Title
81392
    1CHL1    C3    1   6.690   0.818  10.105  0.3993 -0.1266  0.7240
    1CHL1    H3    2   6.657   0.712  10.100 -0.0432  0.0541 -0.4274
    1CHL1    O3    3   6.648   0.879  10.226 -0.3329 -0.5805  0.6370
    1CHL1   H3'    4   6.554   0.898  10.219 -0.2989 -0.8808 -1.0512
    1CHL1    C4    5   6.842   0.810  10.085  0.1250  0.4501  0.0067
    1CHL1   H4A    6   6.882   0.914  10.093 -0.2476  0.6356 -0.4797
    1CHL1   H4B    7   6.880   0.740  10.162 -1.1150 -2.3340 -1.7340
    1CHL1    C5    8   6.887   0.758   9.948 -0.3254  0.0152  0.1147
    1CHL1    C6    9   6.967   0.651   9.932 -0.0499 -0.2118 -0.2557
    1CHL1    H6   10   7.002   0.601  10.023 -0.1839  0.6759  0.2992
    1CHL1    C7   11   7.024   0.612   9.798 -0.1466 -0.0999 -1.2116
    1CHL1   H7A   12   7.134   0.606   9.815 -0.4161 -0.9260  0.5207
    1CHL1   H7B   13   6.984   0.515   9.760 -2.1633 -0.6728  1.9792
    1CHL1    C8   14   6.992   0.715   9.682 -0.5743 -0.2220 -0.2898
    1CHL1    H8   15   7.064   0.800   9.686 -1.2441  0.3059  1.3842
    1CHL1   C14   16   7.006   0.649   9.547 -0.1710  0.3865  0.0493
    1CHL1   H14   17   6.933   0.566   9.546  3.0585 -2.7685  2.1452
    1CHL1   C15   18   7.142   0.580   9.515 -0.1273  0.7598  0.6180
    1CHL1  H15A   19   7.218   0.659   9.532  0.4555  0.6749 -1.2909
    1CHL1  H15B   20   7.160   0.495   9.584 -0.0873 -0.5690 -0.9614
    1CHL1   C16   21   7.128   0.552   9.365 -0.4411 -0.4283  0.2567
    1CHL1  H16A   22   7.216   0.599   9.317 -0.5731 -1.2444 -0.8142
    1CHL1  H16B   23   7.134   0.446   9.332 -0.8785  0.2190 -2.0821
    1CHL1   C17   24   6.997   0.628   9.313  0.1476 -0.0141  0.0861
    1CHL1   H17   25   6.908   0.562   9.321  0.4628 -0.5598 -0.8602
    1CHL1   C13   26   6.973   0.739   9.421  1.0068  0.0883 -0.9283
    1CHL1   C18   27   7.076   0.851   9.406  0.6074 -0.3018  0.0152
    1CHL1  H18A   28   7.048   0.913   9.318  0.3658 -1.1133 -0.4820
    1CHL1  H18B   29   7.091   0.915   9.496  2.6677  2.8590 -2.3687
    1CHL1  H18C   30   7.176   0.805   9.393  0.8856  0.2901  0.0324
    1CHL1   C12   31   6.835   0.801   9.440 -0.4984 -0.3897  0.1086
    1CHL1  H12A   32   6.804   0.876   9.364  1.4876 -0.4196 -0.7641
    1CHL1  H12B   33   6.759   0.720   9.433 -0.0930 -0.9119  1.4502
    1CHL1   C11   34   6.823   0.880   9.578  0.1800 -0.2317  0.4296
    1CHL1  H11A   35   6.883   0.972   9.588  0.1025 -0.2381  0.9765
    1CHL1  H11B   36   6.722   0.925   9.583  0.1826 -0.1395 -0.2552
    1CHL1    C9   37   6.852   0.783   9.699  0.4652 -0.2797  0.1239
    1CHL1    H9   38   6.780   0.699   9.689  2.0914 -1.5727 -1.2489
    1CHL1   C10   39   6.822   0.841   9.839  0.9498  0.8660  0.0500
    1CHL1   C19   40   6.879   0.975   9.843  0.0936  0.4843 -0.0086
    1CHL1  H19A   41   6.844   1.058   9.778 -2.1320  1.4980  2.3251
    1CHL1  H19B   42   6.869   1.029   9.939 -2.0716 -2.0301  1.2973
    1CHL1  H19C   43   6.987   0.967   9.814  1.2740 -2.3261  4.2490
    1CHL1    C1   44   6.666   0.848   9.852 -0.8255  0.0092  0.5046
    1CHL1   H1A   45   6.641   0.931   9.784 -0.2596 -0.3286 -0.1303
    1CHL1   H1B   46   6.611   0.760   9.811  0.5896 -0.6086 -0.1500
    1CHL1    C2   47   6.611   0.887   9.992  0.3915  0.0760 -0.0214
    1CHL1   H2A   48   6.502   0.871   9.988  0.1070  1.7201  0.3764
    1CHL1   H2B   49   6.611   0.998  10.004 -0.2391  0.0377  0.3400
    1CHL1   C20   50   7.008   0.665   9.160 -0.3460  0.3337 -0.5689
    1CHL1   H20   51   7.089   0.740   9.153 -0.6706  0.6481 -1.0303
    1CHL1   C21   52   6.877   0.731   9.111 -0.1046  0.0543 -0.3132
    1CHL1  H21A   53   6.898   0.746   9.003  4.0441  1.2389  0.4870
    1CHL1  H21B   54   6.865   0.837   9.141  0.4065 -0.0221  0.1762
    1CHL1  H21C   55   6.789   0.668   9.137  1.4574 -2.8383 -1.6092
    1CHL1   C22   56   7.041   0.539   9.072 -0.9763  0.4998 -0.3603
    1CHL1  H22A   57   7.124   0.488   9.124 -1.9841  0.7342  1.5553
    1CHL1  H22B   58   6.954   0.470   9.076 -0.5694 -0.1078 -1.4698
    1CHL1   C23   59   7.069   0.556   8.924 -0.8841 -0.6124 -0.2920
    1CHL1  H23A   60   7.068   0.452   8.884 -1.1232  0.0666 -2.1948
    1CHL1  H23B   61   6.978   0.608   8.887 -0.2599  0.5895 -0.2006
    1CHL1   C24   62   7.200   0.632   8.894 -0.0075  0.0375  0.3572
    1CHL1  H24A   63   7.195   0.731   8.944  2.8315  0.2913  0.3399
    1CHL1  H24B   64   7.285   0.580   8.943 -0.6119 -1.0825  0.2524
    1CHL1   C25   65   7.225   0.645   8.743  0.3591  0.1843 -0.1296
    1CHL1   H25   66   7.131   0.685   8.700  0.7348  1.5963  0.3368
    1CHL1   C26   67   7.337   0.741   8.711 -0.2664 -0.0423  0.3540
    1CHL1  H26A   68   7.423   0.708   8.773 -1.3096 -1.6291  1.0104
    1CHL1  H26B   69   7.358   0.723   8.603  0.4430  0.3370  0.4214
    1CHL1  H26C   70   7.325   0.850   8.730  0.2538  0.0373  0.2652
    1CHL1   C27   71   7.258   0.510   8.662 -0.7055 -0.7437 -0.7737
    1CHL1  H27A   72   7.356   0.468   8.695 -0.2075 -1.0431 -2.5096
    1CHL1  H27B   73   7.175   0.442   8.692 -0.1393 -0.6015  1.3078
    1CHL1  H27C   74   7.253   0.530   8.553 -0.0181  2.2775 -0.3433
    2CHL1    C3   75   0.268   4.579  10.253 -0.9492  0.2772 -0.0619
    2CHL1    H3   76   0.361   4.520  10.265 -1.0945  0.0811  0.1273
    2CHL1    O3   77   0.227   4.610  10.387  0.0050 -0.5751  0.1156
    2CHL1   H3'   78   0.225   4.706  10.387 -1.1572 -0.5856 -0.3480
    2CHL1    C4   79   0.294   4.710  10.178 -0.1134  0.1037 -0.6319
    2CHL1   H4A   80   0.199   4.768  10.172  1.4643  2.6939 -1.7426
    2CHL1   H4B   81   0.369   4.767  10.236 -0.2018 -0.3433 -0.0627
    2CHL1    C5   82   0.350   4.685  10.040  0.8575 -0.1106 -0.2455
    2CHL1    C6   83   0.472   4.740   9.997  0.4269  0.4951  0.0660
    2CHL1    H6   84   0.529   4.803  10.066 -0.8432 -0.1889  1.8091
    2CHL1    C7   85   0.522   4.716   9.851 -0.7182 -0.0050  0.2300
    2CHL1   H7A   86   0.547   4.814   9.804 -0.3817  0.7608  1.9455
    2CHL1   H7B   87   0.609   4.647   9.853 -1.1057 -0.4766  1.1897
    2CHL1    C8   88   0.404   4.658   9.757 -0.8179 -0.9823 -0.3959
    2CHL1    H8   89   0.336   4.746   9.749 -0.2953 -0.6611 -1.3934
    2CHL1   C14   90   0.465   4.613   9.625 -0.5784  0.4413  0.7929
    2CHL1   H14   91   0.541   4.539   9.657  0.0183  0.9702  0.6212
    2CHL1   C15   92   0.552   4.711   9.544  0.3192  1.2006  0.2590
    2CHL1  H15A   93   0.499   4.806   9.523 -0.0670  0.9626  0.1561
    2CHL1  H15B   94   0.650   4.735   9.591  0.1581  0.0202  1.2537
    2CHL1   C16   95   0.579   4.621   9.414  0.8707 -0.1088 -0.4982
    2CHL1  H16A   96   0.579   4.687   9.325 -1.0092 -0.0262 -0.4857
    2CHL1  H16B   97   0.677   4.572   9.434  0.4261 -0.3636  1.1773
    2CHL1   C17   98   0.467   4.515   9.407 -0.1612 -0.4546  0.8389
    2CHL1   H17   99   0.516   4.416   9.421  1.6347  0.1704 -0.6471
    2CHL1   C13  100   0.368   4.549   9.529  0.0310  0.0052  1.1216
    2CHL1   C18  101   0.256   4.657   9.489 -0.0912 -0.5783  0.2429
    2CHL1  H18A  102   0.177   4.610   9.428 -0.3472 -0.2373  0.3127
    2CHL1  H18B  103   0.214   4.692   9.586 -0.2136 -0.6209  0.2047
    2CHL1  H18C  104   0.306   4.737   9.430  0.8780  0.0355  1.7971
    2CHL1   C12  105   0.303   4.426   9.598 -0.2082 -0.4937  0.6217
    2CHL1  H12A  106   0.234   4.367   9.534  0.0387  0.6631 -0.7528
    2CHL1  H12B  107   0.392   4.365   9.624 -0.3646 -0.8870  0.2511
    2CHL1   C11  108   0.232   4.463   9.729  0.3887 -0.2732 -0.6140
    2CHL1  H11A  109   0.139   4.516   9.700 -0.4668 -0.1726  2.0783
    2CHL1  H11B  110   0.189   4.376   9.783  0.9062 -0.0570  0.1581
    2CHL1    C9  111   0.331   4.549   9.824  1.3340 -0.3450 -0.2587
    2CHL1    H9  112   0.408   4.478   9.860  2.4148  0.3515 -1.1190
    2CHL1   C10  113   0.256   4.596   9.957 -0.8496  0.0511 -0.0932
    2CHL1   C19  114   0.120   4.676   9.925  0.1353  0.8896  0.3259
    2CHL1  H19A  115   0.040   4.611   9.883 -0.6062  1.0254  1.4747
    2CHL1  H19B  116   0.071   4.726  10.011  1.3875  0.8064  1.1114
    2CHL1  H19C  117   0.143   4.754   9.850  0.3606  3.1165  2.5888
    2CHL1    C1  118   0.217   4.468  10.040  0.3162 -0.5787 -0.2006
    2CHL1   H1A  119   0.145   4.402   9.988  0.8742 -0.1236 -1.6155
    2CHL1   H1B  120   0.308   4.406  10.058 -0.6226 -1.8811  0.2380
    2CHL1    C2  121   0.166   4.492  10.178 -0.0463 -0.5595 -0.3341
    2CHL1   H2A  122   0.154   4.397  10.234 -0.8381 -0.5295 -0.4379
    2CHL1   H2B  123   0.074   4.554  10.167 -0.3411 -0.8078  0.6277
    2CHL1   C20  124   0.406   4.503   9.260  0.7102  0.1062  0.1904
    2CHL1   H20  125   0.338   4.590   9.252  1.1335  0.7481  2.6541
    2CHL1   C21  126   0.319   4.377   9.252  1.1184  0.3838  0.4798
    2CHL1  H21A  127   0.379   4.286   9.277 -0.1261 -0.8833 -0.9075
    2CHL1  H21B  128   0.281   4.365   9.148 -1.4046  0.7604  1.2960
    2CHL1  H21C  129   0.231   4.381   9.318  0.3753 -0.8154 -0.3998
    2CHL1   C22  130   0.500   4.498   9.139  0.3481 -0.1875 -0.5153
    2CHL1  H22A  131   0.442   4.478   9.046 -0.6174 -0.5563  0.1593
    2CHL1  H22B  132   0.544   4.600   9.135  0.0927 -0.1036 -1.7467
    2CHL1   C23  133   0.618   4.402   9.152  0.0231 -0.4331 -0.5814
    2CHL1  H23A  134   0.695   4.444   9.220  1.6957 -0.0528 -2.6182
    2CHL1  H23B  135   0.586   4.301   9.186 -1.5098  0.2896  0.2238
    2CHL1   C24  136   0.697   4.387   9.023 -0.3615 -1.1080  0.2075
    2CHL1  H24A  137   0.625   4.357   8.944  0.1540 -0.9037 -0.3496
    2CHL1  H24B  138   0.759   4.472   8.988  1.3522 -0.9248  3.3691
    2CHL1   C25  139   0.812   4.278   9.029  0.3926  0.5292  0.3156
    2CHL1   H25  140   0.771   4.188   9.079 -0.6119  1.4209  1.1461
    2CHL1   C26  141   0.847   4.245   8.885  0.1465  0.1296  0.5206
    2CHL1  H26A  142   0.931   4.173   8.897  0.0478  0.4818  5.0048
    2CHL1  H26B  143   0.761   4.208   8.824  0.0310  2.7230 -1.0616
    2CHL1  H26C  144   0.877   4.327   8.816  0.1628 -1.2171 -1.1406
    2CHL1   C27  145   0.930   4.319   9.107 -0.0015  0.3085  0.2087
    2CHL1  H27A  146   0.908   4.318   9.216 -0.3527 -1.8850  0.1671
    2CHL1  H27B  147   1.007   4.241   9.088  0.9340  1.4097 -0.6593
    2CHL1  H27C  148   0.987   4.411   9.081 -0.1611  0.1021 -0.9028
    3CHL1    C3  149   1.667   4.227  10.259 -0.6981  0.4416  0.0819
    3CHL1    H3  150   1.594   4.154  10.219  0.2950  0.0561 -1.0775
    3CHL1    O3  151   1.713   4.211  10.397  0.7905 -0.0408 -0.1664
    3CHL1   H3'  152   1.793   4.260  10.419  0.0323  1.2733 -0.2045
    3CHL1    C4  153   1.789   4.202  10.164 -0.4503 -0.4597  0.7456
    3CHL1   H4A  154   1.873   4.270  10.192 -1.4337  1.3625 -0.5065
    3CHL1   H4B  155   1.823   4.100  10.192  0.5858 -0.3368  0.0131
    3CHL1    C5  156   1.742   4.214  10.020  0.0021  0.4571 -0.2031
    3CHL1    C6  157   1.743   4.112   9.933 -0.0456 -0.3037 -0.1863
    3CHL1    H6  158   1.793   4.024   9.977  0.3346  0.1526  0.3127
    3CHL1    C7  159   1.710   4.128   9.786 -0.2330  0.5033 -0.0516
    3CHL1   H7A  160   1.789   4.078   9.726  0.0892  0.7441  0.1672
    3CHL1   H7B  161   1.613   4.080   9.763 -0.7178  0.9441  0.9998
    3CHL1    C8  162   1.693   4.271   9.734 -0.2650 -0.8367  0.2555
    3CHL1    H8  163   1.795   4.314   9.731  0.0440 -1.5655  0.2865
    3CHL1   C14  164   1.615   4.281   9.601  0.4481 -0.2796  0.4290
    3CHL1   H14  165   1.517   4.231   9.617 -1.5122  2.8771 -0.7761
    3CHL1   C15  166   1.667   4.199   9.485  0.1760  0.4065 -0.0710
    3CHL1  H15A  167   1.769   4.243   9.471 -0.4275  2.6992  2.0559
    3CHL1  H15B  168   1.674   4.092   9.514 -1.7149  1.1556  3.7376
    3CHL1   C16  169   1.584   4.247   9.367 -0.0789  0.5348  0.4726
    3CHL1  H16A  170   1.649   4.272   9.281 -0.4408 -0.2277 -0.0353
    3CHL1  H16B  171   1.509   4.168   9.346 -0.2747 -0.0526  2.9734
    3CHL1   C17  172   1.503   4.373   9.416 -0.1722  0.1872  0.6812
    3CHL1   H17  173   1.404   4.334   9.448 -0.2714  1.4456  2.0352
    3CHL1   C13  174   1.571   4.414   9.549 -0.5430 -0.2371  0.1801
    3CHL1   C18  175   1.696   4.514   9.518 -0.0446  0.3839 -0.4534
    3CHL1  H18A  176   1.762   4.480   9.436 -0.5541 -1.2375 -0.2188
    3CHL1  H18B  177   1.660   4.616   9.491 -0.5421  0.2142 -0.4232
    3CHL1  H18C  178   1.762   4.516   9.608  0.3950 -2.7666 -0.6147
    3CHL1   C12  179   1.481   4.471   9.653  0.5534 -0.3715 -0.3328
    3CHL1  H12A  180   1.439   4.574   9.646  1.9490  0.4012  1.5882
    3CHL1  H12B  181   1.396   4.404   9.678 -0.2525  0.0489 -1.8309
    3CHL1   C11  182   1.550   4.485   9.788 -0.8366 -0.0680 -0.0945
    3CHL1  H11A  183   1.632   4.559   9.779 -1.1456  0.3689  0.6521
    3CHL1  H11B  184   1.480   4.527   9.863  0.4492  0.9804  0.5707
    3CHL1    C9  185   1.610   4.349   9.841  0.1048  0.0776 -0.1001
    3CHL1    H9  186   1.518   4.288   9.851 -0.6168  1.3687  1.4677
    3CHL1   C10  187   1.677   4.356   9.988  0.0952 -0.2284  0.4066
    3CHL1   C19  188   1.798   4.451   9.988 -0.4985 -0.7952  0.1178
    3CHL1  H19A  189   1.788   4.532   9.913  2.4465 -1.1911 -0.8441
    3CHL1  H19B  190   1.816   4.494  10.089  0.1924  0.0132 -0.3321
    3CHL1  H19C  191   1.889   4.400   9.949  0.2945  1.3519 -0.9613
    3CHL1    C1  192   1.572   4.399  10.090 -0.2231  0.0266  0.2240
    3CHL1   H1A  193   1.567   4.510  10.077  3.3822  0.4158  1.2387
    3CHL1   H1B  194   1.469   4.359  10.074 -0.3248  0.2120  0.4103
    3CHL1    C2  195   1.620   4.373  10.242 -0.0123  0.1094  0.2306
    3CHL1   H2A  196   1.549   4.396  10.325  2.3781  1.8808  1.9044
    3CHL1   H2B  197   1.707   4.437  10.265  0.2850 -0.0833 -0.3300
    3CHL1   C20  198   1.475   4.480   9.311  0.1117 -0.8821 -0.3783
    3CHL1   H20  199   1.568   4.533   9.283  0.5623 -0.6695  1.3936
    3CHL1   C21  200   1.371   4.582   9.374 -0.5484 -0.7245  0.1368
    3CHL1  H21A  201   1.337   4.646   9.290  1.2564 -2.2525 -1.8475
    3CHL1  H21B  202   1.412   4.640   9.460 -0.5357 -0.2199 -0.2069
    3CHL1  H21C  203   1.286   4.516   9.403 -0.5296 -0.5792  0.5347
    3CHL1   C22  204   1.417   4.413   9.188 -0.1371 -0.2599  0.0741
    3CHL1  H22A  205   1.486   4.345   9.135 -1.3371 -0.3411 -1.4552
    3CHL1  H22B  206   1.330   4.355   9.227  0.0138 -0.5359  0.0002
    3CHL1   C23  207   1.357   4.511   9.087 -0.0257 -0.4723  0.4350
    3CHL1  H23A  208   1.257   4.546   9.119  0.0662 -0.1999  0.4257
    3CHL1  H23B  209   1.428   4.595   9.070  0.2037 -0.4349  1.5176
    3CHL1   C24  210   1.332   4.428   8.957  0.0420  0.2582 -1.6000
    3CHL1  H24A  211   1.438   4.403   8.932 -0.0162 -0.4308 -1.1929
    3CHL1  H24B  212   1.283   4.330   8.975 -0.3053  0.9260  1.6567
    3CHL1   C25  213   1.275   4.505   8.839 -0.2074 -0.8653 -0.0876
    3CHL1   H25  214   1.288   4.445   8.747  0.5293  1.4627 -1.6050
    3CHL1   C26  215   1.124   4.541   8.843 -0.7739  0.7755 -0.1559
    3CHL1  H26A  216   1.057   4.456   8.868  1.2792 -1.2716 -1.2080
    3CHL1  H26B  217   1.104   4.632   8.903 -0.0177  1.4001 -0.8189
    3CHL1  H26C  218   1.098   4.581   8.743  1.5190 -0.0382 -1.1511
    3CHL1   C27  219   1.365   4.632   8.805 -0.1476  0.1019  0.0648
    3CHL1  H27A  220   1.374   4.656   8.697  1.5218  0.3681  0.2396
    3CHL1  H27B  221   1.329   4.721   8.861  0.8768  0.4817  0.1284
    3CHL1  H27C  222   1.468   4.618   8.845  0.6765  0.6480 -1.7909
    4CHL1    C3  223   1.544   6.560  10.217 -0.4683  0.2304  0.4918
    4CHL1    H3  224   1.631   6.568  10.286  1.0440  1.7663 -1.4527
    4CHL1    O3  225   1.449   6.472  10.280  0.0043 -0.3157  0.1458
    4CHL1   H3'  226   1.469   6.385  10.244  0.6151  0.8387 -2.5469
    4CHL1    C4  227   1.483   6.702  10.182 -0.4732 -0.2118  0.1728
    4CHL1   H4A  228   1.390   6.696  10.121  0.2303  0.0921 -0.9777
    4CHL1   H4B  229   1.462   6.754  10.277 -0.8264 -1.6908  0.9255
    4CHL1    C5  230   1.582   6.791  10.094  0.0409 -0.4969 -0.0735
    4CHL1    C6  231   1.610   6.917  10.128  0.2107 -0.3432 -0.0815
    4CHL1    H6  232   1.561   6.958  10.218  2.4643 -0.3223  1.2179
    4CHL1    C7  233   1.693   7.021  10.050 -0.6800  0.1957 -0.2801
    4CHL1   H7A  234   1.637   7.116  10.043 -3.8165 -1.2022  2.7499
    4CHL1   H7B  235   1.785   7.054  10.103 -1.5960 -1.2350  2.4122
    4CHL1    C8  236   1.727   6.961   9.908  0.4100 -0.4622  0.4755
    4CHL1    H8  237   1.634   6.969   9.848 -0.3393  0.0447  1.6650
    4CHL1   C14  238   1.837   7.038   9.836  0.7667  0.4047  0.0583
    4CHL1   H14  239   1.919   7.032   9.911  1.4013  0.4552 -0.6135
    4CHL1   C15  240   1.808   7.190   9.816  0.0874 -0.4658  0.2221
    4CHL1  H15A  241   1.701   7.202   9.790  0.3469 -1.9634 -1.7501
    4CHL1  H15B  242   1.825   7.242   9.913 -2.2096 -0.5450  0.7198
    4CHL1   C16  243   1.911   7.231   9.702  0.4685  0.7964 -0.2518
    4CHL1  H16A  244   1.861   7.270   9.611 -0.0597  0.8413  0.0527
    4CHL1  H16B  245   1.984   7.309   9.732 -0.8062  1.4892  1.2139
    4CHL1   C17  246   1.991   7.103   9.667 -1.1462  0.4998  0.1127
    4CHL1   H17  247   2.071   7.099   9.743 -0.9879 -1.7452 -0.1306
    4CHL1   C13  248   1.893   6.989   9.700  0.0887  0.1251  0.4242
    4CHL1   C18  249   1.771   6.996   9.602  0.9496  0.3082  0.4996
    4CHL1  H18A  250   1.807   6.958   9.504 -2.4648 -0.6415 -0.5268
    4CHL1  H18B  251   1.678   6.950   9.642  1.7260 -0.1024  1.8797
    4CHL1  H18C  252   1.733   7.100   9.585  0.1805  0.1012  0.9058
    4CHL1   C12  253   1.942   6.847   9.718  0.3038  0.5999  0.4553
    4CHL1  H12A  254   1.971   6.806   9.619  1.6148 -2.8625  2.0853
    4CHL1  H12B  255   2.028   6.848   9.787  1.3815  0.5927 -0.8561
    4CHL1   C11  256   1.825   6.751   9.783 -0.3975 -0.3220  0.0355
    4CHL1  H11A  257   1.757   6.737   9.696  0.1851 -1.5573 -0.2367
    4CHL1  H11B  258   1.865   6.649   9.798 -0.1018 -0.1703  0.2913
    4CHL1    C9  259   1.764   6.806   9.909  0.0785  0.3492 -0.7256
    4CHL1    H9  260   1.848   6.802   9.982 -0.0036 -3.5487 -0.6703
    4CHL1   C10  261   1.652   6.720   9.973 -0.2087  0.2111  0.1285
    4CHL1   C19  262   1.553   6.688   9.868 -0.9260  0.2491  0.0568
    4CHL1  H19A  263   1.603   6.626   9.791  1.7927  1.7569  0.4493
    4CHL1  H19B  264   1.469   6.626   9.906 -0.3066 -0.9726 -0.5213
    4CHL1  H19C  265   1.517   6.786   9.831  2.3381  2.0720  1.2253
    4CHL1    C1  266   1.719   6.589  10.035  0.1351  0.0225 -0.4626
    4CHL1   H1A  267   1.754   6.533   9.945 -1.9482 -1.0675 -0.6676
    4CHL1   H1B  268   1.802   6.615  10.104 -1.3924 -1.0464  1.8863
    4CHL1    C2  269   1.608   6.496  10.096  0.0646  0.3520 -0.3001
    4CHL1   H2A  270   1.649   6.396  10.121  1.2498  0.6518 -1.0027
    4CHL1   H2B  271   1.520   6.465  10.035 -0.4486  1.2158 -0.0082
    4CHL1   C20  272   2.046   7.112   9.521 -0.2224  0.0643 -0.6914
    4CHL1   H20  273   1.967   7.140   9.448 -0.1997 -0.3470 -0.8748
    4CHL1   C21  274   2.106   6.974   9.470 -0.0918 -0.2906  0.5136
    4CHL1  H21A  275   2.029   6.901   9.437 -0.4694 -0.0164  0.7735
    4CHL1  H21B  276   2.164   6.933   9.557 -1.2340 -1.5275  0.7284
    4CHL1  H21C  277   2.170   7.004   9.385  0.3795  0.8188  1.2313
    4CHL1   C22  278   2.142   7.233   9.496  0.3478 -0.2002 -0.3907
    4CHL1  H22A  279   2.140   7.321   9.564  2.3347  1.2118 -2.0410
    4CHL1  H22B  280   2.245   7.196   9.509  0.1659 -0.7342 -0.4381
    4CHL1   C23  281   2.117   7.283   9.350 -0.8089 -0.6946 -0.3385
    4CHL1  H23A  282   2.187   7.369   9.340 -0.6290 -0.7063  0.7453
    4CHL1  H23B  283   2.124   7.215   9.263 -0.5554 -0.5062 -0.4681
    4CHL1   C24  284   1.978   7.365   9.346 -0.2940  0.4119  0.3274
    4CHL1  H24A  285   1.895   7.295   9.325 -0.2827  0.9210 -1.6375
    4CHL1  H24B  286   1.974   7.413   9.446  1.7557  0.8224  0.2509
    4CHL1   C25  287   1.976   7.469   9.235  0.5675 -0.3589  0.0935
    4CHL1   H25  288   2.079   7.512   9.237 -0.4525  2.2695 -0.2128
    4CHL1   C26  289   1.959   7.400   9.097 -0.1096 -1.1570  0.5598
    4CHL1  H26A  290   1.868   7.337   9.111 -2.9960  2.7516  0.9154
    4CHL1  H26B  291   1.950   7.469   9.011 -1.8582 -0.4371  1.2595
    4CHL1  H26C  292   2.047   7.342   9.063 -0.8284 -0.1619 -3.4666
    4CHL1   C27  293   1.868   7.577   9.251 -0.4847  0.3211  0.5725
    4CHL1  H27A  294   1.865   7.652   9.169  1.6359  0.2330  0.3435
    4CHL1  H27B  295   1.771   7.523   9.255 -0.8411  0.8988 -0.0779
    4CHL1  H27C  296   1.875   7.624   9.351  1.2681  1.2821  0.0315
    5CHL1    C3  297   1.567   4.709  10.468 -0.2585 -0.1885 -0.3001
    5CHL1    H3  298   1.595   4.602  10.456 -0.0491 -0.0802 -0.8192
    5CHL1    O3  299   1.544   4.735  10.607 -0.0969  0.2988  0.2737
    5CHL1   H3'  300   1.530   4.829  10.619 -3.6095 -0.0435 -0.1203
    5CHL1    C4  301   1.679   4.804  10.414  0.7152 -0.2855  0.0091
    5CHL1   H4A  302   1.665   4.903  10.463 -0.0952 -0.3184 -0.1409
    5CHL1   H4B  303   1.772   4.751  10.444 -0.5619 -2.5936  0.1413
    5CHL1    C5  304   1.677   4.825  10.266 -0.2292  0.3308  0.5200
    5CHL1    C6  305   1.781   4.796  10.185  0.4167  0.4401 -0.4063
    5CHL1    H6  306   1.873   4.753  10.226  0.8612  0.4309 -1.3974
    5CHL1    C7  307   1.768   4.823  10.032 -0.2959 -0.2564 -0.3259
    5CHL1   H7A  308   1.859   4.875   9.994 -0.9219  0.8709 -0.3052
    5CHL1   H7B  309   1.749   4.723   9.988 -1.8787  0.2440 -0.8161
    5CHL1    C8  310   1.653   4.911   9.983  0.1541 -0.1559 -0.0802
    5CHL1    H8  311   1.672   5.016  10.014  2.6856 -0.4734 -0.3666
    5CHL1   C14  312   1.640   4.894   9.831 -0.1320 -0.0127  0.0501
    5CHL1   H14  313   1.624   4.785   9.823 -1.6921  0.0611  1.5413
    5CHL1   C15  314   1.756   4.936   9.742  0.4088 -0.0167  0.1805
    5CHL1  H15A  315   1.786   5.038   9.773 -0.6598 -0.2229  2.0522
    5CHL1  H15B  316   1.835   4.858   9.751 -0.3712 -0.9051 -0.4007
    5CHL1   C16  317   1.691   4.932   9.596 -0.2807 -0.2061  0.0073
    5CHL1  H16A  318   1.696   5.035   9.554 -0.7062 -0.5011 -0.7920
    5CHL1  H16B  319   1.741   4.856   9.532 -1.4561 -1.7466  0.8392
    5CHL1   C17  320   1.537   4.916   9.619 -0.5499 -0.4866 -0.1403
    5CHL1   H17  321   1.517   4.808   9.602 -1.2701 -0.3316 -0.3115
    5CHL1   C13  322   1.516   4.953   9.773  0.4910 -0.6856 -0.1976
    5CHL1   C18  323   1.515   5.110   9.796 -0.4753 -0.0293 -0.4168
    5CHL1  H18A  324   1.592   5.161   9.733 -0.2321  3.7881  2.5707
    5CHL1  H18B  325   1.414   5.153   9.778 -1.0809 -1.0635  0.4056
    5CHL1  H18C  326   1.544   5.138   9.899  1.3398  1.3806 -1.2439
    5CHL1   C12  327   1.399   4.884   9.844 -0.5540  0.4557 -0.1967
    5CHL1  H12A  328   1.307   4.929   9.801 -0.5600  1.2897  0.6508
    5CHL1  H12B  329   1.401   4.776   9.821 -3.7513  0.1091  0.7428
    5CHL1   C11  330   1.397   4.904   9.995 -0.4658 -0.0450 -0.0103
    5CHL1  H11A  331   1.394   5.014  10.009  1.4135  0.0596 -0.1711
    5CHL1  H11B  332   1.302   4.862  10.035 -0.4906  0.7052  0.7331
    5CHL1    C9  333   1.530   4.858  10.058  0.3730 -1.3565  0.0479
    5CHL1    H9  334   1.522   4.753  10.023 -1.6903  0.0119 -4.2468
    5CHL1   C10  335   1.537   4.861  10.211  0.6542  0.0716 -0.4690
    5CHL1   C19  336   1.492   5.003  10.262  0.4966 -0.2939  0.5338
    5CHL1  H19A  337   1.385   5.006  10.231  0.3599  1.3973  1.0589
    5CHL1  H19B  338   1.510   5.027  10.368  2.6612  0.4180  0.0555
    5CHL1  H19C  339   1.560   5.073  10.209  0.5540 -1.1910 -0.6332
    5CHL1    C1  340   1.444   4.749  10.258 -0.1140  0.0311  0.5340
    5CHL1   H1A  341   1.343   4.765  10.216 -0.4141  1.0542  1.5959
    5CHL1   H1B  342   1.479   4.651  10.220 -2.7517  0.2461 -2.8882
    5CHL1    C2  343   1.436   4.742  10.404 -0.2118  0.4449 -0.4560
    5CHL1   H2A  344   1.353   4.671  10.424 -0.4950  1.5617  3.0168
    5CHL1   H2B  345   1.402   4.837  10.451  0.3011  1.1764 -1.5164
    5CHL1   C20  346   1.447   4.997   9.517 -0.8359 -0.0033 -0.2746
    5CHL1   H20  347   1.417   5.093   9.564 -1.9409 -0.2130 -0.5235
    5CHL1   C21  348   1.310   4.924   9.501  0.6028 -0.0512 -0.5543
    5CHL1  H21A  349   1.324   4.847   9.422 -1.4720 -1.8107  0.6836
    5CHL1  H21B  350   1.226   4.995   9.487  0.4525 -0.2532 -0.6832
    5CHL1  H21C  351   1.290   4.871   9.597  0.6257  1.6200  0.3979
    5CHL1   C22  352   1.521   5.036   9.385  0.2516  0.3412  0.4014
    5CHL1  H22A  353   1.580   5.125   9.415 -0.4151  0.4645  1.4182
    5CHL1  H22B  354   1.590   4.952   9.362  0.2929  0.5032 -0.0676
    5CHL1   C23  355   1.453   5.054   9.248 -0.0980 -0.5446  0.3724
    5CHL1  H23A  356   1.426   4.960   9.197  2.7432  0.1538 -2.7790
    5CHL1  H23B  357   1.367   5.123   9.263 -0.1239 -0.5063  0.0522
    5CHL1   C24  358   1.555   5.119   9.151 -0.1183 -0.6905  0.1994
    5CHL1  H24A  359   1.612   5.200   9.202  0.5203 -1.5663  0.9060
    5CHL1  H24B  360   1.626   5.041   9.117  0.4572 -1.0085  2.0134
    5CHL1   C25  361   1.491   5.170   9.013 -0.3006 -0.6028  0.0858
    5CHL1   H25  362   1.429   5.086   8.973 -0.2879 -0.2533 -0.6943
    5CHL1   C26  363   1.401   5.296   9.021  0.3262  0.1696  0.6106
    5CHL1  H26A  364   1.318   5.267   9.090  0.7307  0.1773  1.1091
    5CHL1  H26B  365   1.451   5.384   9.067 -0.0578  0.0818  1.2093
    5CHL1  H26C  366   1.375   5.328   8.918 -0.2835  1.7615  1.2311
    5CHL1   C27  367   1.606   5.186   8.912  0.2137  0.2181  0.0308
    5CHL1  H27A  368   1.560   5.223   8.818 -1.0665 -1.5869 -0.1132
    5CHL1  H27B  369   1.682   5.253   8.957  1.9895 -2.0839  0.6816
    5CHL1  H27C  370   1.653   5.087   8.894 -0.0708 -0.2425  1.6593
    6CHL1    C3  371   0.585   1.938   9.764 -0.1032  0.2982 -0.0144
    6CHL1    H3  372   0.616   1.837   9.729  0.5337  0.7852 -0.9151
    6CHL1    O3  373   0.547   1.937   9.897  0.0994 -0.2721  0.6972
    6CHL1   H3'  374   0.468   1.884   9.884 -0.1544 -0.0053  1.1370
    6CHL1    C4  375   0.686   2.042   9.743 -0.3810 -0.1588 -0.4669
    6CHL1   H4A  376   0.666   2.142   9.788  0.3868  0.3626 -1.2482
    6CHL1   H4B  377   0.781   2.013   9.792 -0.4547  1.4167  0.6754
    6CHL1    C5  378   0.713   2.055   9.594  0.4958 -0.5728  0.9065
    6CHL1    C6  379   0.835   2.040   9.543  0.6358  0.6812  0.6075
    6CHL1    H6  380   0.911   1.997   9.611  1.0738 -0.0580 -0.3131
    6CHL1    C7  381   0.887   2.069   9.402 -0.1128 -0.1045 -0.1050
    6CHL1   H7A  382   0.978   2.132   9.394  1.3166 -2.3043 -2.5567
    6CHL1   H7B  383   0.913   1.972   9.356  0.4755  0.1237 -0.2618
    6CHL1    C8  384   0.771   2.136   9.315 -0.2735 -0.6574  0.7479
    6CHL1    H8  385   0.772   2.246   9.332 -0.9177 -0.0343 -2.6020
    6CHL1   C14  386   0.799   2.116   9.164  0.2047 -0.4431  0.0253
    6CHL1   H14  387   0.804   2.005   9.162  0.7205 -0.4725  1.6515
    6CHL1   C15  388   0.934   2.163   9.110  0.2310  0.5445  0.7473
    6CHL1  H15A  389   0.961   2.267   9.139  1.1837  0.2220  1.0494
    6CHL1  H15B  390   1.013   2.101   9.155 -0.9656 -1.7479 -0.1288
    6CHL1   C16  391   0.913   2.144   8.956 -0.1945 -0.1966 -0.1030
    6CHL1  H16A  392   0.944   2.238   8.905  0.1832 -1.1253 -1.6579
    6CHL1  H16B  393   0.978   2.062   8.917  1.3956  0.7527  0.4490
    6CHL1   C17  394   0.762   2.123   8.930 -0.3379  0.9974  0.2388
    6CHL1   H17  395   0.733   2.016   8.920 -0.8473  1.1090  0.5001
    6CHL1   C13  396   0.698   2.171   9.065 -0.2160  0.2777  0.3838
    6CHL1   C18  397   0.695   2.330   9.078 -0.1882  0.6074 -0.1417
    6CHL1  H18A  398   0.692   2.369   9.182  0.3119  2.4619 -0.7821
    6CHL1  H18B  399   0.785   2.381   9.038  0.6109 -0.7885 -0.1888
    6CHL1  H18C  400   0.614   2.378   9.019 -0.4275  1.2368  0.6903
    6CHL1   C12  401   0.556   2.120   9.105  0.8783 -0.4381  0.3617
    6CHL1  H12A  402   0.476   2.166   9.043  0.5898 -2.3853 -0.8075
    6CHL1  H12B  403   0.543   2.014   9.075  0.2871  0.3770 -2.6239
    6CHL1   C11  404   0.530   2.137   9.253 -0.8384  0.0991 -0.6000
    6CHL1  H11A  405   0.516   2.247   9.267 -0.5754  0.3121 -1.8555
    6CHL1  H11B  406   0.432   2.089   9.273 -0.7493 -0.0108 -0.4263
    6CHL1    C9  407   0.631   2.081   9.348 -0.6904  0.5128 -0.7412
    6CHL1    H9  408   0.652   1.972   9.333  1.6400  0.9159 -0.7988
    6CHL1   C10  409   0.591   2.091   9.504  0.7701  0.0251  0.1358
    6CHL1   C19  410   0.530   2.228   9.536 -0.0914  0.4628 -0.3691
    6CHL1  H19A  411   0.431   2.258   9.495 -0.7971  0.9558  1.5945
    6CHL1  H19B  412   0.530   2.233   9.647 -1.3378  1.4169 -0.3940
    6CHL1  H19C  413   0.603   2.305   9.505  0.1431  0.6617  0.6301
    6CHL1    C1  414   0.477   1.991   9.542  0.5833 -0.8658 -0.3070
    6CHL1   H1A  415   0.379   2.017   9.497 -0.3809 -0.2539  2.0437
    6CHL1   H1B  416   0.514   1.900   9.491  1.3455 -0.4667 -0.4869
    6CHL1    C2  417   0.454   1.968   9.688 -0.7279  0.2074 -1.1090
    6CHL1   H2A  418   0.386   1.881   9.697  1.5032 -1.4119  2.5956
    6CHL1   H2B  419   0.397   2.055   9.729 -1.4894 -0.0285 -1.6480
    6CHL1   C20  420   0.718   2.193   8.799 -0.2398 -0.1708 -0.7785
    6CHL1   H20  421   0.738   2.302   8.809  0.8175 -0.4468  0.3293
    6CHL1   C21  422   0.560   2.181   8.787 -0.2196 -0.0427  0.4082
    6CHL1  H21A  423   0.525   2.076   8.804 -0.0187 -0.1487  0.1707
    6CHL1  H21B  424   0.520   2.211   8.688  1.9677  0.6945 -0.3031
    6CHL1  H21C  425   0.520   2.244   8.869 -0.8194 -1.4378  1.2325
    6CHL1   C22  426   0.787   2.139   8.676 -0.2060  0.4020  0.3263
    6CHL1  H22A  427   0.753   2.204   8.592  0.9113  0.7087  0.0876
    6CHL1  H22B  428   0.897   2.160   8.672 -0.2507  0.6848 -4.0068
    6CHL1   C23  429   0.770   1.989   8.665  0.6786  0.4369  0.5670
    6CHL1  H23A  430   0.827   1.940   8.747  2.2490  0.1174 -0.6469
    6CHL1  H23B  431   0.662   1.970   8.681  0.0860  1.1038 -2.1296
    6CHL1   C24  432   0.817   1.923   8.536  0.0741 -0.4006 -0.1122
    6CHL1  H24A  433   0.758   1.976   8.458 -1.0899 -1.3401  0.0824
    6CHL1  H24B  434   0.925   1.938   8.517  0.2881 -0.9492  0.6423
    6CHL1   C25  435   0.783   1.773   8.540  0.4295  0.1665 -0.0150
    6CHL1   H25  436   0.684   1.760   8.588 -0.6438  1.0609 -1.8800
    6CHL1   C26  437   0.767   1.720   8.396  1.2801 -0.5875 -0.5910
    6CHL1  H26A  438   0.700   1.784   8.335  1.1828 -1.6023 -1.5826
    6CHL1  H26B  439   0.868   1.726   8.350  1.2150 -0.7331 -0.7502
    6CHL1  H26C  440   0.730   1.616   8.390 -1.6296  0.4330 -2.4690
    6CHL1   C27  441   0.899   1.692   8.589 -0.2989  0.3745 -0.5944
    6CHL1  H27A  442   0.940   1.751   8.675 -0.3818 -1.2321  0.5884
    6CHL1  H27B  443   0.873   1.587   8.613 -0.5361  0.1924 -1.6006
    6CHL1  H27C  444   0.981   1.683   8.514  0.4689  0.2674  0.2353
    7CHL1    C3  445   2.090   6.425  10.506  0.7636 -0.3636 -0.1546
    7CHL1    H3  446   2.030   6.491  10.439 -1.9546 -1.6716  0.8124
    7CHL1    O3  447   2.051   6.470  10.638 -0.1112  0.0629  0.1434
    7CHL1   H3'  448   2.133   6.445  10.682  0.1851  1.5038  0.4554
    7CHL1    C4  449   2.041   6.274  10.485 -0.4381  0.2314  0.8271
    7CHL1   H4A  450   2.083   6.210  10.565  1.4485  0.5352  0.1421
    7CHL1   H4B  451   1.931   6.278  10.501 -0.3160  0.6070  1.5797
    7CHL1    C5  452   2.079   6.233  10.344 -0.4710 -0.5727 -1.0567
    7CHL1    C6  453   1.985   6.186  10.264  0.7180 -0.4145  0.6724
    7CHL1    H6  454   1.886   6.169  10.309  1.2047  1.3586  2.5603
    7CHL1    C7  455   2.020   6.141  10.127 -0.9000  0.5718  0.0512
    7CHL1   H7A  456   1.966   6.052  10.089 -0.7308  0.7501 -0.6214
    7CHL1   H7B  457   1.987   6.215  10.050  1.3048  1.1535 -0.4114
    7CHL1    C8  458   2.173   6.120  10.106 -0.0690  0.3277  0.3530
    7CHL1    H8  459   2.197   6.017  10.138  0.6784  0.5081  0.3866
    7CHL1   C14  460   2.201   6.112   9.958  0.2527 -0.5214  0.3002
    7CHL1   H14  461   2.177   6.213   9.919 -0.8057 -0.3850  1.2684
    7CHL1   C15  462   2.111   6.017   9.873 -0.3846 -0.2325  0.9934
    7CHL1  H15A  463   2.105   5.916   9.918  2.5225 -0.9811 -0.0424
    7CHL1  H15B  464   2.006   6.051   9.865 -0.4370 -0.5510  0.2424
    7CHL1   C16  465   2.198   5.999   9.740 -0.3531  0.1077 -0.2727
    7CHL1  H16A  466   2.213   5.889   9.737 -1.2116 -0.0108 -3.8160
    7CHL1  H16B  467   2.152   6.036   9.646  0.5427  1.4816 -0.2027
    7CHL1   C17  468   2.338   6.063   9.769  0.1001 -0.0493  0.4046
    7CHL1   H17  469   2.326   6.170   9.739  0.2603  0.0362  0.6450
    7CHL1   C13  470   2.350   6.075   9.922 -0.7294 -0.0687  0.7228
    7CHL1   C18  471   2.409   5.942   9.984 -0.0834 -0.5198 -0.1920
    7CHL1  H18A  472   2.438   5.958  10.090  1.0639  0.0379 -0.5693
    7CHL1  H18B  473   2.334   5.862   9.974  1.5007 -2.2700  1.1870
    7CHL1  H18C  474   2.503   5.914   9.932 -1.0896 -1.0473 -1.7677
    7CHL1   C12  475   2.435   6.191   9.973  0.3685  0.6459  0.3517
    7CHL1  H12A  476   2.543   6.171   9.962  0.4319  1.4748 -0.8348
    7CHL1  H12B  477   2.406   6.277   9.907 -1.9347 -1.5424 -1.7180
    7CHL1   C11  478   2.406   6.235  10.117  0.0265  0.1289 -0.5623
    7CHL1  H11A  479   2.458   6.159  10.179 -1.0422  0.7361  1.1496
    7CHL1  H11B  480   2.451   6.331  10.149  2.9314 -1.7409  1.4569
    7CHL1    C9  481   2.253   6.236  10.166 -0.8389 -0.3567  0.4796
    7CHL1    H9  482   2.209   6.319  10.107  2.0082 -0.7563 -2.4924
    7CHL1   C10  483   2.233   6.251  10.313  0.6037 -0.0981 -0.0548
    7CHL1   C19  484   2.311   6.148  10.399 -0.0868  0.1804 -0.1314
    7CHL1  H19A  485   2.262   6.053  10.366 -0.0007  0.0058  0.2409
    7CHL1  H19B  486   2.422   6.143  10.401 -0.1357 -2.4934  2.4307
    7CHL1  H19C  487   2.289   6.158  10.507 -1.9439  0.9238 -0.5297
    7CHL1    C1  488   2.286   6.396  10.348  0.3099  0.0300  0.4752
    7CHL1   H1A  489   2.397   6.397  10.346  0.3013  1.0218  0.0281
    7CHL1   H1B  490   2.244   6.457  10.265  0.7480 -1.0614 -0.5788
    7CHL1    C2  491   2.241   6.444  10.483 -0.1325  0.3639 -0.4139
    7CHL1   H2A  492   2.269   6.552  10.492 -0.3002  0.3404  0.4762
    7CHL1   H2B  493   2.295   6.388  10.562 -1.7576 -0.0555  0.4390
    7CHL1   C20  494   2.447   6.003   9.684  0.3236  0.6970  0.2880
    7CHL1   H20  495   2.455   5.893   9.697  0.3064  0.9611  2.8965
    7CHL1   C21  496   2.593   6.052   9.707  0.1865 -0.2914 -0.5367
    7CHL1  H21A  497   2.615   6.046   9.816 -2.0423 -2.9593 -0.1181
    7CHL1  H21B  498   2.601   6.160   9.685 -0.0329  0.0928  1.1000
    7CHL1  H21C  499   2.667   5.988   9.655  2.4224  1.2495  0.6103
    7CHL1   C22  500   2.431   6.036   9.534 -0.3327 -0.6032 -0.4765
    7CHL1  H22A  501   2.325   6.050   9.504 -1.0631  0.5785  2.3273
    7CHL1  H22B  502   2.469   6.140   9.522  0.0671 -0.2338  2.8393
    7CHL1   C23  503   2.505   5.939   9.452  0.3827  0.7609 -0.1646
    7CHL1  H23A  504   2.616   5.944   9.459  0.3604  0.4118  0.5126
    7CHL1  H23B  505   2.477   5.837   9.486  2.5414 -1.1724 -3.5326
    7CHL1   C24  506   2.472   5.953   9.296  0.0486 -0.3104  0.6730
    7CHL1  H24A  507   2.550   5.895   9.242 -0.0298  0.3139 -0.1295
    7CHL1  H24B  508   2.369   5.921   9.269 -0.3521  0.6958  0.9809
    7CHL1   C25  509   2.501   6.096   9.252  0.2272  0.4701 -0.2185
    7CHL1   H25  510   2.445   6.160   9.323  0.4858  0.0550  0.3664
    7CHL1   C26  511   2.646   6.142   9.262 -0.3321 -0.5386 -0.0288
    7CHL1  H26A  512   2.667   6.243   9.222 -0.0543 -0.6799 -0.2415
    7CHL1  H26B  513   2.675   6.141   9.369 -1.2300  0.4213  0.2447
    7CHL1  H26C  514   2.714   6.080   9.199 -0.7281 -0.3732 -0.6252
    7CHL1   C27  515   2.461   6.120   9.111 -1.2709 -0.2183 -1.1215
    7CHL1  H27A  516   2.415   6.036   9.055  0.2113 -1.4405 -0.5780
    7CHL1  H27B  517   2.388   6.204   9.111  0.6478  1.5335 -1.3002
    7CHL1  H27C  518   2.544   6.161   9.049 -0.3051 -0.9926 -0.3620
    8CHL1    C3  519   3.719   1.066  10.311  0.2177 -0.4712 -0.5057
    8CHL1    H3  520   3.703   1.173  10.284  1.4363  0.6215  2.6270
    8CHL1    O3  521   3.767   1.051  10.444  0.2785 -0.5014  0.0797
    8CHL1   H3'  522   3.842   1.109  10.457 -0.3290  0.6420 -1.2601
    8CHL1    C4  523   3.598   0.975  10.278 -0.0025  0.4961 -0.2122
    8CHL1   H4A  524   3.602   0.866  10.293  0.6035  0.6048  0.4811
    8CHL1   H4B  525   3.524   1.018  10.348  0.4477  1.9815 -0.5933
    8CHL1    C5  526   3.562   0.994  10.134  0.2135  0.1201 -0.1844
    8CHL1    C6  527   3.440   1.042  10.108  0.9332  0.1571  0.6669
    8CHL1    H6  528   3.367   1.062  10.188 -0.5420  0.6472 -0.7519
    8CHL1    C7  529   3.405   1.086   9.962  0.4635  0.6230 -0.5505
    8CHL1   H7A  530   3.301   1.066   9.926  0.4861  0.0227 -0.2973
    8CHL1   H7B  531   3.409   1.197   9.950 -2.0316  0.6668 -1.8615
    8CHL1    C8  532   3.487   1.017   9.856 -0.2139 -0.3360  0.2663
    8CHL1    H8  533   3.465   0.908   9.856  1.5980 -0.7474 -1.2814
    8CHL1   C14  534   3.456   1.077   9.718  0.3319  0.1044  0.4933
    8CHL1   H14  535   3.483   1.182   9.739 -0.3447  0.1647  1.1349
    8CHL1   C15  536   3.313   1.080   9.670 -0.4467 -0.3917 -0.2640
    8CHL1  H15A  537   3.257   0.990   9.705 -1.1654  0.5188  1.0135
    8CHL1  H15B  538   3.264   1.163   9.725  0.0928 -1.3454  1.7562
    8CHL1   C16  539   3.316   1.099   9.520  0.2003 -0.0926  0.4871
    8CHL1  H16A  540   3.274   1.014   9.463 -0.6397  0.6202  0.0192
    8CHL1  H16B  541   3.268   1.194   9.488 -3.0266 -1.2133  1.6054
    8CHL1   C17  542   3.463   1.105   9.476 -0.4916  0.4364 -0.4637
    8CHL1   H17  543   3.485   1.213   9.486  0.5596  0.2604 -0.8031
    8CHL1   C13  544   3.534   1.031   9.595 -0.5644 -0.0794  0.0697
    8CHL1   C18  545   3.510   0.880   9.575 -0.3797  0.2909 -0.3502
    8CHL1  H18A  546   3.404   0.847   9.574 -0.2817 -0.1611  1.2873
    8CHL1  H18B  547   3.553   0.847   9.478 -1.2808 -0.3022 -0.5547
    8CHL1  H18C  548   3.560   0.818   9.653 -2.1942 -2.1852 -1.0514
    8CHL1   C12  549   3.685   1.073   9.616 -0.2359 -0.4505 -0.5243
    8CHL1  H12A  550   3.748   1.029   9.537 -0.5605 -3.7654  0.8880
    8CHL1  H12B  551   3.691   1.184   9.618  1.3463 -0.4505  3.1795
    8CHL1   C11  552   3.739   1.021   9.751  0.6149 -0.1272 -0.7458
    8CHL1  H11A  553   3.750   0.910   9.748  1.9154 -0.1784  2.2535
    8CHL1  H11B  554   3.843   1.057   9.768  0.2736 -0.5288  3.1988
    8CHL1    C9  555   3.641   1.043   9.880  1.1092 -0.8227  0.1542
    8CHL1    H9  556   3.642   1.154   9.891 -1.6182 -0.4174 -2.3626
    8CHL1   C10  557   3.670   0.978  10.019 -0.0248  0.9206  0.5108
    8CHL1   C19  558   3.702   0.829  10.002  0.0548 -0.7144  0.4188
    8CHL1  H19A  559   3.633   0.776   9.933  1.8124 -2.3772 -0.1785
    8CHL1  H19B  560   3.802   0.818   9.955 -0.3246 -1.0231 -0.3382
    8CHL1  H19C  561   3.713   0.772  10.097  1.6263 -2.0630 -0.5175
    8CHL1    C1  562   3.795   1.051  10.072  0.0476  0.2301  0.1266
    8CHL1   H1A  563   3.875   1.026   9.999 -1.2231 -2.7472 -0.3990
    8CHL1   H1B  564   3.770   1.159  10.068  1.1102  0.4516 -2.5320
    8CHL1    C2  565   3.833   1.017  10.222  0.7350 -0.0185  0.2523
    8CHL1   H2A  566   3.930   1.063  10.248  0.5653  0.1803  0.5384
    8CHL1   H2B  567   3.855   0.909  10.233 -1.9542 -0.7176 -0.3432
    8CHL1   C20  568   3.492   1.061   9.328 -0.6436  0.1408 -0.2435
    8CHL1   H20  569   3.442   0.962   9.328 -0.7964  0.1890  1.6260
    8CHL1   C21  570   3.642   1.037   9.292  0.3066 -0.1420 -0.2812
    8CHL1  H21A  571   3.686   0.948   9.343  2.8214  0.2116 -1.7081
    8CHL1  H21B  572   3.706   1.126   9.308  1.3126 -1.1048  1.2829
    8CHL1  H21C  573   3.652   1.008   9.186 -1.7810 -2.1578 -0.0191
    8CHL1   C22  574   3.424   1.161   9.230 -0.4212  0.4903  0.3637
    8CHL1  H22A  575   3.322   1.181   9.270 -1.1635 -1.3718 -0.5069
    8CHL1  H22B  576   3.481   1.256   9.219 -0.8051  0.6658 -0.1169
    8CHL1   C23  577   3.412   1.094   9.081  0.3220 -0.5273 -0.2636
    8CHL1  H23A  578   3.512   1.066   9.040  0.5787 -0.6837  0.4616
    8CHL1  H23B  579   3.361   0.999   9.106  0.9201 -0.8138 -0.1100
    8CHL1   C24  580   3.335   1.179   8.976 -0.8160  0.0840  0.7365
    8CHL1  H24A  581   3.232   1.211   9.004 -0.6259  0.6784  0.7716
    8CHL1  H24B  582   3.400   1.266   8.952  0.5659 -1.4030 -1.2270
    8CHL1   C25  583   3.330   1.098   8.847 -0.8399  0.4737  0.5101
    8CHL1   H25  584   3.358   0.994   8.876  1.0612  1.1625  1.2818
    8CHL1   C26  585   3.186   1.104   8.791  0.1217 -0.5326  0.6755
    8CHL1  H26A  586   3.183   1.052   8.693 -0.3938 -2.1334  1.4978
    8CHL1  H26B  587   3.114   1.062   8.865 -1.9692 -0.0409 -0.9698
    8CHL1  H26C  588   3.156   1.208   8.768  0.6847 -0.3492  0.7513
    8CHL1   C27  589   3.416   1.151   8.732 -0.0236  0.2309 -0.4972
    8CHL1  H27A  590   3.378   1.249   8.694 -0.6698  0.0994 -0.2078
    8CHL1  H27B  591   3.520   1.158   8.768 -0.1491 -2.3425  0.5319
    8CHL1  H27C  592   3.428   1.072   8.655  2.5350  0.1116 -0.0554
    9CHL1    C3  593   0.685   2.544  10.171  1.0291  0.6609 -0.3749
    9CHL1    H3  594   0.613   2.628  10.183  2.3211  1.7123  0.2643
    9CHL1    O3  595   0.700   2.472  10.297 -0.3618 -0.1616  0.1002
    9CHL1   H3'  596   0.725   2.544  10.356 -3.7222  0.8033  0.5644
    9CHL1    C4  597   0.623   2.440  10.075  0.7966  0.2947  0.3940
    9CHL1   H4A  598   0.680   2.345  10.073 -0.0583 -0.2499  1.2542
    9CHL1   H4B  599   0.524   2.426  10.123  1.0807 -2.6678  0.2758
    9CHL1    C5  600   0.603   2.503   9.938 -0.1847 -0.3854 -0.0678
    9CHL1    C6  601   0.483   2.508   9.874 -0.2357 -0.0553  0.0804
    9CHL1    H6  602   0.398   2.454   9.917  0.0309 -0.4737  0.0821
    9CHL1    C7  603   0.463   2.568   9.732  0.0166 -0.1644  0.0560
    9CHL1   H7A  604   0.388   2.503   9.680 -0.2569  0.5354 -0.4361
    9CHL1   H7B  605   0.413   2.665   9.748 -1.3188 -0.8952  0.4790
    9CHL1    C8  606   0.592   2.589   9.658  0.0541  0.6100 -0.5209
    9CHL1    H8  607   0.643   2.492   9.639 -1.0911  0.1484 -1.3503
    9CHL1   C14  608   0.564   2.671   9.538  0.0424 -0.8105  0.5848
    9CHL1   H14  609   0.524   2.768   9.574  1.3115  0.1033 -0.4311
    9CHL1   C15  610   0.458   2.613   9.439 -0.6327  0.5932 -0.2916
    9CHL1  H15A  611   0.491   2.509   9.418 -0.2918  1.0231 -2.0999
    9CHL1  H15B  612   0.359   2.621   9.489 -1.4066  0.6273 -1.7512
    9CHL1   C16  613   0.479   2.705   9.313  0.5912  0.8406 -0.0950
    9CHL1  H16A  614   0.478   2.644   9.221 -1.0425  0.7950 -0.0678
    9CHL1  H16B  615   0.391   2.770   9.299  0.5772  1.1943  1.3797
    9CHL1   C17  616   0.603   2.787   9.333  0.1541 -0.1380  0.2617
    9CHL1   H17  617   0.575   2.881   9.386 -0.7881  0.0875 -0.5979
    9CHL1   C13  618   0.686   2.710   9.445  0.1788  0.7501 -0.9175
    9CHL1   C18  619   0.753   2.582   9.386 -1.0321 -0.0674  0.0801
    9CHL1  H18A  620   0.691   2.526   9.314 -3.4160  0.1234  1.8707
    9CHL1  H18B  621   0.843   2.608   9.326 -1.6271  0.0698 -0.7740
    9CHL1  H18C  622   0.790   2.516   9.467  1.4542  2.4493  1.1906
    9CHL1   C12  623   0.782   2.785   9.543  0.0468 -0.3960  0.3703
    9CHL1  H12A  624   0.884   2.786   9.497 -0.2688 -1.3604 -0.3731
    9CHL1  H12B  625   0.745   2.889   9.556  1.4555 -0.0445  1.9843
    9CHL1   C11  626   0.815   2.711   9.673  0.0792 -0.1712 -0.3232
    9CHL1  H11A  627   0.874   2.621   9.645 -1.5967 -1.7270  0.9470
    9CHL1  H11B  628   0.872   2.780   9.738  0.4241 -1.2929  0.6025
    9CHL1    C9  629   0.696   2.656   9.751 -0.2584  0.8925  0.2792
    9CHL1    H9  630   0.649   2.742   9.803 -3.1269 -0.4589  0.0818
    9CHL1   C10  631   0.727   2.566   9.874 -0.8202  0.7811  0.0148
    9CHL1   C19  632   0.824   2.450   9.837  0.1325  0.1101 -0.4161
    9CHL1  H19A  633   0.926   2.494   9.834  0.8022 -1.3955 -0.9161
    9CHL1  H19B  634   0.817   2.372   9.916  1.2508  1.7481  1.3779
    9CHL1  H19C  635   0.803   2.414   9.734  0.3726 -0.2916 -0.3281
    9CHL1    C1  636   0.796   2.662   9.977  0.1420  0.2500 -1.1206
    9CHL1   H1A  637   0.884   2.715   9.933 -1.8052  1.2705 -4.1444
    9CHL1   H1B  638   0.730   2.749   9.997  0.7170  0.4652 -0.0642
    9CHL1    C2  639   0.815   2.599  10.120 -0.2749 -0.1510 -0.1969
    9CHL1   H2A  640   0.844   2.687  10.182 -3.0729  0.6672  0.0931
    9CHL1   H2B  641   0.899   2.527  10.111 -0.2775 -0.0208 -1.3718
    9CHL1   C20  642   0.679   2.837   9.204  0.3250  1.0352 -0.1609
    9CHL1   H20  643   0.783   2.861   9.234 -0.0531  2.1696  0.2935
    9CHL1   C21  644   0.609   2.961   9.152 -0.4297  0.3687  0.0051
    9CHL1  H21A  645   0.585   3.026   9.239  0.3569  0.7291 -0.0387
    9CHL1  H21B  646   0.516   2.929   9.101 -0.8670  1.7405 -0.1021
    9CHL1  H21C  647   0.669   3.015   9.076  1.1890 -1.5076 -0.1256
    9CHL1   C22  648   0.688   2.729   9.093 -1.0357  0.1023 -0.4386
    9CHL1  H22A  649   0.730   2.640   9.142  1.5651  1.4293 -0.0780
    9CHL1  H22B  650   0.593   2.692   9.048 -0.5755 -0.3094 -1.0968
    9CHL1   C23  651   0.786   2.766   8.987 -1.6890 -0.3580  0.2446
    9CHL1  H23A  652   0.758   2.862   8.937 -0.0614 -0.5238 -1.0601
    9CHL1  H23B  653   0.888   2.787   9.026 -2.9533  1.3414  2.9865
    9CHL1   C24  654   0.808   2.662   8.861  0.2232 -0.2461 -0.3554
    9CHL1  H24A  655   0.852   2.571   8.906 -2.2739 -1.3205  0.0734
    9CHL1  H24B  656   0.708   2.639   8.818  0.9074 -0.3564 -1.9770
    9CHL1   C25  657   0.904   2.718   8.752  0.6212  0.5675  0.6253
    9CHL1   H25  658   0.986   2.767   8.809 -0.7812  3.3645  0.4252
    9CHL1   C26  659   0.959   2.601   8.662 -0.1226 -0.0428  0.0680
    9CHL1  H26A  660   0.882   2.546   8.604 -0.3790  1.4889 -1.1206
    9CHL1  H26B  661   1.038   2.646   8.598 -1.6324 -0.3435 -2.1282
    9CHL1  H26C  662   1.008   2.526   8.728  0.8926  2.0290  1.7970
    9CHL1   C27  663   0.844   2.831   8.664  0.2070 -0.7963 -0.3769
    9CHL1  H27A  664   0.920   2.867   8.591 -2.3999  2.8294 -1.6015
    9CHL1  H27B  665   0.751   2.798   8.614 -1.0693  0.1927  1.2230
    9CHL1  H27C  666   0.813   2.920   8.724 -0.7637 -1.7076  0.5134
   10CHL1    C3  667   5.236   0.029   9.636  0.2243 -0.2830  0.3556
   10CHL1    H3  668   5.342   0.038   9.670  0.9023 -1.8425 -1.1689
   10CHL1    O3  669   5.148   0.035   9.744  0.1968 -0.2281 -0.3036
   10CHL1   H3'  670   5.166  -0.048   9.789  0.5917  1.0691  2.1068
   10CHL1    C4  671   5.204   0.144   9.540  0.7831 -0.3082 -0.0053
   10CHL1   H4A  672   5.093   0.152   9.529  0.3235 -1.4819  2.7602
   10CHL1   H4B  673   5.234   0.233   9.600  2.7334 -0.5227 -0.5927
   10CHL1    C5  674   5.271   0.138   9.404 -0.0023  0.2766  0.5663
   10CHL1    C6  675   5.342   0.247   9.360 -0.5986 -0.4924  0.3581
   10CHL1    H6  676   5.349   0.342   9.414 -2.8400 -0.0271 -0.0525
   10CHL1    C7  677   5.419   0.253   9.233  0.7455 -0.8208 -0.5053
   10CHL1   H7A  678   5.421   0.345   9.172 -0.1468  1.0384  2.0793
   10CHL1   H7B  679   5.524   0.231   9.263  2.4849  3.0690 -2.9117
   10CHL1    C8  680   5.376   0.127   9.144  0.1929  0.1740  0.3927
   10CHL1    H8  681   5.275   0.153   9.106  0.5758 -1.4501 -1.9530
   10CHL1   C14  682   5.483   0.109   9.033 -0.4389 -0.8648  0.3406
   10CHL1   H14  683   5.576   0.072   9.081  2.0877  1.3911 -2.3884
   10CHL1   C15  684   5.532   0.239   8.957 -0.2686  0.8837 -0.6620
   10CHL1  H15A  685   5.444   0.301   8.929 -2.0147  0.0310  2.4347
   10CHL1  H15B  686   5.610   0.296   9.012  1.4684 -2.4777  0.6259
   10CHL1   C16  687   5.594   0.176   8.829 -0.1274 -0.3930 -0.1376
   10CHL1  H16A  688   5.535   0.203   8.739  0.8921 -0.0129 -0.7159
   10CHL1  H16B  689   5.701   0.203   8.814 -0.3971  0.2967 -0.8578
   10CHL1   C17  690   5.576   0.021   8.836 -0.3440  0.3997  0.1336
   10CHL1   H17  691   5.663  -0.030   8.882  1.1985  0.0846 -2.9274
   10CHL1   C13  692   5.458  -0.004   8.933 -0.0272 -0.5056 -0.6791
   10CHL1   C18  693   5.339   0.040   8.863  0.5799  0.5457 -0.2027
   10CHL1  H18A  694   5.301  -0.039   8.796  0.4422  0.7750 -0.3952
   10CHL1  H18B  695   5.249   0.069   8.921 -0.3233  2.2458 -2.3377
   10CHL1  H18C  696   5.350   0.124   8.792  3.5115 -1.2753 -2.0998
   10CHL1   C12  697   5.453  -0.130   9.019  0.1185  0.5466  0.5276
   10CHL1  H12A  698   5.421  -0.219   8.960 -0.8456  0.0645  1.7420
   10CHL1  H12B  699   5.546  -0.162   9.070  0.1635  1.5480  1.0943
   10CHL1   C11  700   5.337  -0.122   9.122 -0.3352 -0.1635  0.4400
   10CHL1  H11A  701   5.239  -0.100   9.075 -0.8055  1.5874  2.1224
   10CHL1  H11B  702   5.331  -0.221   9.173 -1.3091 -1.4678 -2.0482
   10CHL1    C9  703   5.361  -0.007   9.213  0.1452 -0.5463 -0.2468
   10CHL1    H9  704   5.464  -0.013   9.254  1.4767  1.3707 -2.9837
   10CHL1   C10  705   5.267   0.002   9.336  0.4326 -0.0460  0.7435
   10CHL1   C19  706   5.116  -0.008   9.290 -0.3783  0.1755 -0.4051
   10CHL1  H19A  707   5.035   0.009   9.364  0.3802  0.2501  0.4268
   10CHL1  H19B  708   5.098   0.058   9.202 -2.9622 -0.6569 -0.6094
   10CHL1  H19C  709   5.103  -0.110   9.248  0.3015  0.8061 -2.2205
   10CHL1    C1  710   5.295  -0.113   9.428 -0.2482  0.1884 -0.4881
   10CHL1   H1A  711   5.291  -0.210   9.374  1.2727  0.5908 -1.4066
   10CHL1   H1B  712   5.394  -0.096   9.477 -0.5511  4.1002 -0.8713
   10CHL1    C2  713   5.219  -0.105   9.563 -0.6306 -0.3414 -0.6800
   10CHL1   H2A  714   5.263  -0.182   9.630  1.6966  2.8195  1.7668
   10CHL1   H2B  715   5.111  -0.123   9.543 -0.8952 -1.6623  1.5278
   10CHL1   C20  716   5.575  -0.048   8.693 -0.0852  0.2534 -0.1294
   10CHL1   H20  717   5.491  -0.017   8.628  1.1444  4.0730 -0.1591
   10CHL1   C21  718   5.562  -0.203   8.704  1.0870  0.0496 -0.5556
   10CHL1  H21A  719   5.648  -0.245   8.760  2.1762  0.7670 -1.6451
   10CHL1  H21B  720   5.563  -0.245   8.601 -1.5305  0.3122 -0.7727
   10CHL1  H21C  721   5.458  -0.215   8.742  1.7553 -0.0702  1.3196
   10CHL1   C22  722   5.707  -0.013   8.613  0.0505 -0.2155 -0.1583
   10CHL1  H22A  723   5.725   0.096   8.617 -1.3189  0.0056  0.6246
   10CHL1  H22B  724   5.793  -0.060   8.666  0.8555 -0.7566 -1.8532
   10CHL1   C23  725   5.724  -0.051   8.466 -0.0994 -0.8293 -0.5322
   10CHL1  H23A  726   5.831  -0.039   8.438 -0.3330  1.0446 -0.7319
   10CHL1  H23B  727   5.713  -0.162   8.457  1.1813 -0.9924 -0.2167
   10CHL1   C24  728   5.640   0.036   8.375 -0.1835 -0.7801  0.1868
   10CHL1  H24A  729   5.530   0.023   8.385 -0.5837  1.0976 -1.1665
   10CHL1  H24B  730   5.648   0.144   8.400 -0.4431 -1.4088  3.4137
   10CHL1   C25  731   5.674   0.001   8.227 -0.1548  1.0556 -0.7967
   10CHL1   H25  732   5.785  -0.001   8.219 -0.0928 -0.1479  0.0552
   10CHL1   C26  733   5.627  -0.138   8.186  0.1442 -0.2002 -0.6433
   10CHL1  H26A  734   5.520  -0.158   8.210  0.0872 -3.1954 -2.8800
   10CHL1  H26B  735   5.623  -0.154   8.076 -0.3258 -0.7058 -0.5575
   10CHL1  H26C  736   5.693  -0.222   8.216  1.0395  0.7306  0.0963
   10CHL1   C27  737   5.622   0.108   8.131 -0.5888  0.4483  0.3155
   10CHL1  H27A  738   5.512   0.108   8.116 -0.6432 -1.0218  0.4982
   10CHL1  H27B  739   5.655   0.211   8.157  1.1893 -0.2741  1.0852
   10CHL1  H27C  740   5.669   0.088   8.033 -0.5911  0.0315  0.3958
   11CHL1    C3  741   2.337   3.495  10.454 -0.4188  0.1755  0.8662
   11CHL1    H3  742   2.445   3.485  10.479  0.0460  1.8947 -0.2646
   11CHL1    O3  743   2.271   3.484  10.575 -0.1402 -0.1840 -0.0045
   11CHL1   H3'  744   2.176   3.480  10.562 -0.2014 -0.2220  0.4396
   11CHL1    C4  745   2.321   3.649  10.405 -0.1333  0.1114  0.0343
   11CHL1   H4A  746   2.212   3.666  10.394 -0.3273 -1.3961 -0.6334
   11CHL1   H4B  747   2.361   3.715  10.485  1.3313 -0.5175 -0.1581
   11CHL1    C5  748   2.387   3.668  10.273 -0.5184 -0.0629  0.8778
   11CHL1    C6  749   2.470   3.765  10.260 -0.0861  0.3615 -0.1760
   11CHL1    H6  750   2.495   3.833  10.343  0.8165  0.3366 -0.4177
   11CHL1    C7  751   2.532   3.798  10.124  0.0804 -0.9729 -0.2295
   11CHL1   H7A  752   2.536   3.909  10.116 -2.5555 -0.6594  1.6949
   11CHL1   H7B  753   2.639   3.770  10.129  0.3077 -0.1085 -0.0392
   11CHL1    C8  754   2.461   3.736  10.003 -0.0585  0.2961  0.0172
   11CHL1    H8  755   2.366   3.792   9.988  1.0668  2.6767  1.1067
   11CHL1   C14  756   2.551   3.741   9.882 -0.4559  0.5091  0.0943
   11CHL1   H14  757   2.640   3.683   9.912 -0.5023 -0.7834 -2.0543
   11CHL1   C15  758   2.622   3.875   9.834 -0.2030 -0.3576 -0.2030
   11CHL1  H15A  759   2.562   3.963   9.866  1.5901  0.0857  2.2282
   11CHL1  H15B  760   2.724   3.890   9.876 -0.5228 -1.1424  0.9012
   11CHL1   C16  761   2.638   3.869   9.682 -0.3576  0.2755 -0.2811
   11CHL1  H16A  762   2.575   3.942   9.627 -1.2207 -0.1799  0.0797
   11CHL1  H16B  763   2.746   3.892   9.669  0.6691 -3.6678  0.0007
   11CHL1   C17  764   2.603   3.724   9.645  0.2380 -0.7165 -0.7806
   11CHL1   H17  765   2.690   3.660   9.670 -0.9006 -1.3054  2.0097
   11CHL1   C13  766   2.495   3.686   9.755 -0.3946  0.2379  0.2316
   11CHL1   C18  767   2.366   3.763   9.719  0.5065 -0.3126 -0.3577
   11CHL1  H18A  768   2.285   3.749   9.793 -1.0825  0.6925 -1.8505
   11CHL1  H18B  769   2.379   3.873   9.717 -0.6642 -0.1442  0.3962
   11CHL1  H18C  770   2.326   3.742   9.617  1.1528 -1.3562 -0.4167
   11CHL1   C12  771   2.472   3.534   9.775 -0.0941 -0.3945  0.2678
   11CHL1  H12A  772   2.418   3.501   9.684 -1.3421  1.2418  0.3694
   11CHL1  H12B  773   2.572   3.486   9.772  1.2592  2.1805  1.0883
   11CHL1   C11  774   2.382   3.518   9.901 -1.3346  0.3090  0.4034
   11CHL1  H11A  775   2.280   3.553   9.873 -0.1723  2.5024 -1.4214
   11CHL1  H11B  776   2.366   3.409   9.916 -2.5361  0.7729  3.0922
   11CHL1    C9  777   2.440   3.594  10.024 -0.8944  0.5097 -0.2020
   11CHL1    H9  778   2.535   3.539  10.042 -1.2606  0.1412  0.6648
   11CHL1   C10  779   2.356   3.568  10.158  0.6134  0.9812 -0.5831
   11CHL1   C19  780   2.209   3.592  10.128 -0.5135 -0.3419  0.5963
   11CHL1  H19A  781   2.167   3.514  10.060  1.2257 -0.3605 -0.5333
   11CHL1  H19B  782   2.140   3.592  10.215 -2.8103  0.7639 -1.1363
   11CHL1  H19C  783   2.204   3.688  10.073 -0.0076 -0.5432  0.1828
   11CHL1    C1  784   2.377   3.428  10.217 -0.4091 -1.3233 -0.4618
   11CHL1   H1A  785   2.342   3.359  10.137 -4.0958  1.0070 -1.1142
   11CHL1   H1B  786   2.485   3.412  10.238 -0.2470 -2.4292 -1.9306
   11CHL1    C2  787   2.298   3.397  10.348 -0.7260  0.0176  0.7001
   11CHL1   H2A  788   2.316   3.297  10.394 -0.4161 -0.1433  0.2295
   11CHL1   H2B  789   2.191   3.405  10.320 -0.5822  2.3600  0.5986
   11CHL1   C20  790   2.568   3.700   9.497 -0.3582 -0.7440  0.3415
   11CHL1   H20  791   2.458   3.693   9.485 -0.8241  1.9647  2.0469
   11CHL1   C21  792   2.646   3.573   9.456  0.2552 -0.3370  0.3338
   11CHL1  H21A  793   2.757   3.578   9.469  0.3448 -0.8361 -0.1902
   11CHL1  H21B  794   2.617   3.545   9.352 -0.0173 -1.9195  0.8061
   11CHL1  H21C  795   2.629   3.484   9.519 -0.6110 -0.8393 -0.5873
   11CHL1   C22  796   2.601   3.823   9.400  0.2256 -0.0370  0.0696
   11CHL1  H22A  797   2.552   3.918   9.431 -1.0780 -0.7190  0.1577
   11CHL1  H22B  798   2.710   3.845   9.401 -0.0150  1.3601 -0.8035
   11CHL1   C23  799   2.548   3.790   9.258 -0.2376 -0.4460 -0.2092
   11CHL1  H23A  800   2.613   3.717   9.203 -0.0204 -0.8982  0.6288
   11CHL1  H23B  801   2.448   3.744   9.272  0.2263 -1.0377  1.3813
   11CHL1   C24  802   2.512   3.905   9.168  0.6342 -0.0231  0.5836
   11CHL1  H24A  803   2.446   3.983   9.213 -0.0588 -0.9524  1.2171
   11CHL1  H24B  804   2.610   3.942   9.129 -0.1679  0.8290 -0.7049
   11CHL1   C25  805   2.445   3.862   9.032 -0.1592  0.3070  0.3836
   11CHL1   H25  806   2.346   3.816   9.055 -0.6867  0.7415 -0.9467
   11CHL1   C26  807   2.407   3.981   8.945  0.2383 -1.0391  0.9631
   11CHL1  H26A  808   2.357   3.946   8.852  0.2885  2.2141 -0.4192
   11CHL1  H26B  809   2.341   4.056   8.992  2.0512  0.8816  0.5894
   11CHL1  H26C  810   2.504   4.033   8.927 -0.8777  0.6265 -0.5609
   11CHL1   C27  811   2.529   3.765   8.950 -0.3089  0.7390  0.1716
   11CHL1  H27A  812   2.634   3.799   8.946 -0.6841  2.0411  1.0245
   11CHL1  H27B  813   2.530   3.665   8.999 -0.2642  0.9476  0.6058
   11CHL1  H27C  814   2.497   3.737   8.847 -0.1097 -4.4649  1.2506
   12CHL1    C3  815   5.246   5.708   9.924 -0.1736  0.5702 -0.2438
   12CHL1    H3  816   5.184   5.623   9.888  2.6751 -1.9949  0.4676
   12CHL1    O3  817   5.256   5.712  10.066 -0.1394  0.0756 -0.4173
   12CHL1   H3'  818   5.316   5.782  10.090  0.9893 -0.9603 -0.1219
   12CHL1    C4  819   5.386   5.699   9.863  0.3217 -0.0979  0.0074
   12CHL1   H4A  820   5.450   5.781   9.904  0.1776 -0.1166  0.2756
   12CHL1   H4B  821   5.423   5.599   9.894  0.5129  0.3924  1.4387
   12CHL1    C5  822   5.382   5.709   9.714  0.3579 -0.3885  0.0284
   12CHL1    C6  823   5.446   5.617   9.641  0.8210 -0.3399  0.2910
   12CHL1    H6  824   5.502   5.536   9.690  1.3990 -0.4853 -0.5711
   12CHL1    C7  825   5.451   5.601   9.489  0.3253 -0.6260 -0.0165
   12CHL1   H7A  826   5.552   5.584   9.446  0.1422  0.0078 -0.7228
   12CHL1   H7B  827   5.384   5.513   9.472  0.4228 -0.9703  1.3142
   12CHL1    C8  828   5.405   5.731   9.419  0.2137 -0.5946 -0.3947
   12CHL1    H8  829   5.488   5.806   9.424 -1.6880  1.5627  0.9218
   12CHL1   C14  830   5.373   5.700   9.276  0.4681  0.0984 -0.3339
   12CHL1   H14  831   5.279   5.642   9.273 -0.2968  1.2152  0.8049
   12CHL1   C15  832   5.476   5.628   9.178  0.0704 -0.6960  0.5558
   12CHL1  H15A  833   5.577   5.662   9.208 -0.9115  0.9105  2.2310
   12CHL1  H15B  834   5.466   5.518   9.190 -1.3889 -0.8336 -1.3121
   12CHL1   C16  835   5.416   5.653   9.039  0.6792  0.1080  0.1534
   12CHL1  H16A  836   5.506   5.709   9.005  0.7266 -1.3171 -2.3758
   12CHL1  H16B  837   5.397   5.561   8.979 -2.6014  1.1319 -0.6015
   12CHL1   C17  838   5.304   5.757   9.054 -0.0904 -0.1913 -0.0388
   12CHL1   H17  839   5.213   5.693   9.057  0.7306 -1.3721  0.4509
   12CHL1   C13  840   5.324   5.825   9.191 -0.6115  0.6114 -0.6591
   12CHL1   C18  841   5.448   5.928   9.186  0.2613  0.0927 -0.0444
   12CHL1  H18A  842   5.490   5.955   9.285  2.1001 -0.8096 -0.5429
   12CHL1  H18B  843   5.530   5.878   9.131  0.6823  1.7754 -1.0074
   12CHL1  H18C  844   5.419   6.019   9.130 -0.8344  0.3430  0.8745
   12CHL1   C12  845   5.192   5.871   9.264  0.3905 -0.5240 -0.0006
   12CHL1  H12A  846   5.136   5.948   9.207 -0.5326 -0.8563  0.4356
   12CHL1  H12B  847   5.116   5.790   9.268 -2.8111  2.3027  1.1767
   12CHL1   C11  848   5.212   5.913   9.411 -0.2968 -0.1620 -0.4424
   12CHL1  H11A  849   5.273   6.005   9.398 -0.2093 -0.5111 -3.0213
   12CHL1  H11B  850   5.116   5.940   9.460  0.3926 -1.5422  1.8610
   12CHL1    C9  851   5.278   5.797   9.494 -0.2880 -0.1950 -0.2922
   12CHL1    H9  852   5.204   5.715   9.486  0.3402 -0.6300 -2.1460
   12CHL1   C10  853   5.302   5.821   9.644  0.4491  0.4664 -0.1431
   12CHL1   C19  854   5.369   5.957   9.654 -0.1377 -0.0864  0.0582
   12CHL1  H19A  855   5.465   5.958   9.598 -0.3525  0.9453 -0.3215
   12CHL1  H19B  856   5.299   6.029   9.608 -0.4938 -2.0160 -2.6427
   12CHL1  H19C  857   5.395   5.983   9.760  1.8104 -2.1740  0.1630
   12CHL1    C1  858   5.170   5.827   9.720  0.6481 -0.1273 -0.2858
   12CHL1   H1A  859   5.109   5.914   9.686  0.8287  0.0750 -0.0901
   12CHL1   H1B  860   5.098   5.746   9.694  1.7085 -1.9010  2.0764
   12CHL1    C2  861   5.176   5.832   9.876  0.6519  0.4055  0.2513
   12CHL1   H2A  862   5.081   5.850   9.931  0.9440 -1.1186  1.3005
   12CHL1   H2B  863   5.238   5.918   9.910  0.2750 -0.1761  2.5747
   12CHL1   C20  864   5.287   5.845   8.932 -0.0236 -0.4575  0.0083
   12CHL1   H20  865   5.373   5.915   8.931 -1.3915  1.2641  0.1527
   12CHL1   C21  866   5.162   5.928   8.952  0.0388  0.2099 -0.8064
   12CHL1  H21A  867   5.138   5.977   8.855  0.3637  0.9910 -0.5051
   12CHL1  H21B  868   5.187   6.005   9.029 -0.0595 -1.4510  0.9458
   12CHL1  H21C  869   5.080   5.859   8.980  0.7284  0.3528  1.8155
   12CHL1   C22  870   5.281   5.765   8.801 -0.3102 -0.5810  0.3522
   12CHL1  H22A  871   5.259   5.829   8.713 -0.7169  0.3991  1.1467
   12CHL1  H22B  872   5.385   5.728   8.789 -0.9407 -2.0666 -0.8550
   12CHL1   C23  873   5.177   5.655   8.790 -0.8120  0.1254 -0.0691
   12CHL1  H23A  874   5.172   5.598   8.886 -1.5932 -0.0226 -0.1958
   12CHL1  H23B  875   5.076   5.698   8.775 -0.9201 -0.1683 -0.1858
   12CHL1   C24  876   5.205   5.573   8.662  0.5015  0.2671  0.1245
   12CHL1  H24A  877   5.223   5.629   8.567 -0.7161  0.9475  0.2785
   12CHL1  H24B  878   5.294   5.515   8.693 -0.0140 -0.2644  0.6428
   12CHL1   C25  879   5.086   5.478   8.632 -0.4362 -0.1266  0.7516
   12CHL1   H25  880   4.988   5.527   8.611  0.2438  0.6198 -0.8210
   12CHL1   C26  881   5.104   5.403   8.499 -0.6569 -0.0854  0.4352
   12CHL1  H26A  882   5.026   5.325   8.490 -0.7781  0.0760  0.0666
   12CHL1  H26B  883   5.096   5.461   8.405 -2.5064  0.4392  0.8810
   12CHL1  H26C  884   5.195   5.339   8.504 -1.9120 -2.0394 -0.5077
   12CHL1   C27  885   5.075   5.384   8.751  0.5168  0.1520  0.2651
   12CHL1  H27A  886   5.003   5.303   8.728 -0.2111  1.0392 -0.6483
   12CHL1  H27B  887   5.176   5.343   8.773 -0.4102 -2.2444  0.3163
   12CHL1  H27C  888   5.032   5.431   8.841  0.1234  2.5083 -1.0686
   13CHL1    C3  889   3.771   1.613  10.417  0.2309 -0.4842  0.1468
   13CHL1    H3  890   3.679   1.676  10.422  0.7425  0.3433 -0.6543
   13CHL1    O3  891   3.835   1.597  10.548  0.3107  0.3010  0.2123
   13CHL1   H3'  892   3.913   1.544  10.526 -1.1678 -1.3859 -1.3021
   13CHL1    C4  893   3.728   1.471  10.359  0.0568  0.4525  0.1881
   13CHL1   H4A  894   3.823   1.415  10.351  1.4764  2.5424  1.3206
   13CHL1   H4B  895   3.655   1.420  10.426  1.8685 -0.0784  1.8392
   13CHL1    C5  896   3.670   1.487  10.220 -0.3637  0.2167 -0.4646
   13CHL1    C6  897   3.544   1.458  10.199  0.0544  0.1350  0.2037
   13CHL1    H6  898   3.486   1.413  10.281 -0.3515  0.1587 -0.0724
   13CHL1    C7  899   3.477   1.479  10.073  0.5171  0.4947  0.7393
   13CHL1   H7A  900   3.406   1.398  10.047 -1.0160  0.7884  3.6633
   13CHL1   H7B  901   3.406   1.563  10.088  1.4400  1.1016  1.8580
   13CHL1    C8  902   3.572   1.502   9.954 -0.0679 -0.6915 -0.5742
   13CHL1    H8  903   3.608   1.399   9.932 -6.1253 -3.0812 -1.2701
   13CHL1   C14  904   3.492   1.565   9.838  0.3766 -0.4988 -0.3480
   13CHL1   H14  905   3.456   1.663   9.875  0.7041 -0.9267  1.1769
   13CHL1   C15  906   3.361   1.502   9.794 -0.1361  0.0163  0.2494
   13CHL1  H15A  907   3.372   1.393   9.782 -0.2037 -0.1143  1.3156
   13CHL1  H15B  908   3.282   1.522   9.869  0.5633 -0.6627  1.1841
   13CHL1   C16  909   3.326   1.565   9.658 -0.0930 -0.0792  0.2604
   13CHL1  H16A  910   3.299   1.481   9.591  0.5615  0.1457 -0.2959
   13CHL1  H16B  911   3.240   1.637   9.663 -0.6614 -0.4749 -2.5149
   13CHL1   C17  912   3.453   1.635   9.605 -0.1372  0.0012  0.1143
   13CHL1   H17  913   3.443   1.741   9.635 -1.3109 -0.4213  1.2919
   13CHL1   C13  914   3.566   1.576   9.706  0.2570 -0.0585  0.3767
   13CHL1   C18  915   3.608   1.440   9.655  0.0903  0.0368 -0.1946
   13CHL1  H18A  916   3.522   1.372   9.637 -0.2585  0.2024  0.7974
   13CHL1  H18B  917   3.669   1.445   9.563  2.8137  0.5590  1.5454
   13CHL1  H18C  918   3.679   1.402   9.731 -1.1462 -0.2103  0.8823
   13CHL1   C12  919   3.686   1.664   9.741  0.5438 -0.0859  0.7045
   13CHL1  H12A  920   3.753   1.663   9.653 -0.1628 -0.4853  0.1573
   13CHL1  H12B  921   3.655   1.768   9.764 -0.3646 -0.2582  0.3205
   13CHL1   C11  922   3.776   1.619   9.861  0.6809 -0.0462 -0.1723
   13CHL1  H11A  923   3.829   1.528   9.828  1.5838  0.3757  0.0920
   13CHL1  H11B  924   3.849   1.701   9.879 -0.5316  0.7215  1.5111
   13CHL1    C9  925   3.689   1.595   9.985  0.6102  0.3592 -0.2202
   13CHL1    H9  926   3.627   1.684  10.007  0.9371  0.1301  1.9313
   13CHL1   C10  927   3.757   1.552  10.116 -0.2380 -0.5659 -0.2079
   13CHL1   C19  928   3.860   1.440  10.085  0.3454 -0.8402 -0.1508
   13CHL1  H19A  929   3.928   1.480  10.007 -0.4225  1.3245  0.2244
   13CHL1  H19B  930   3.926   1.417  10.171  0.8535  1.2453  0.0608
   13CHL1  H19C  931   3.812   1.346  10.049 -1.7096  0.9627 -2.4183
   13CHL1    C1  932   3.831   1.673  10.177 -0.0319 -0.5717  0.3696
   13CHL1   H1A  933   3.915   1.695  10.108 -0.2190 -0.4930  0.1667
   13CHL1   H1B  934   3.755   1.754  10.174 -1.8897 -2.1850  1.1452
   13CHL1    C2  935   3.877   1.662  10.319 -0.1677 -0.0532 -0.2897
   13CHL1   H2A  936   3.922   1.758  10.351  0.6642 -0.7044  0.5635
   13CHL1   H2B  937   3.968   1.599  10.313 -0.9372 -1.2020 -0.3152
   13CHL1   C20  938   3.471   1.646   9.449  0.3214 -1.2442 -0.2432
   13CHL1   H20  939   3.518   1.556   9.405 -2.9105 -2.6290 -1.1868
   13CHL1   C21  940   3.565   1.767   9.421  0.1149  0.5391 -0.1354
   13CHL1  H21A  941   3.539   1.849   9.490 -0.9107 -0.8444  1.1927
   13CHL1  H21B  942   3.551   1.786   9.312  0.7370  0.5798 -0.2131
   13CHL1  H21C  943   3.668   1.730   9.444 -0.3703 -0.4634  0.5148
   13CHL1   C22  944   3.333   1.660   9.371  0.5964  0.0163 -0.3111
   13CHL1  H22A  945   3.265   1.584   9.414 -0.7620  1.4387  0.1838
   13CHL1  H22B  946   3.305   1.762   9.407 -1.9841 -1.2880  1.7194
   13CHL1   C23  947   3.348   1.620   9.223 -0.1042 -0.5321  0.6577
   13CHL1  H23A  948   3.426   1.676   9.168 -3.1795  2.0400 -1.3699
   13CHL1  H23B  949   3.360   1.509   9.230  0.0269 -0.5622 -0.0142
   13CHL1   C24  950   3.215   1.644   9.149 -0.3820  0.1194 -0.0639
   13CHL1  H24A  951   3.132   1.579   9.183 -1.1168  1.9207  1.7581
   13CHL1  H24B  952   3.184   1.747   9.173 -0.2494  0.1868 -0.1760
   13CHL1   C25  953   3.235   1.639   8.994  0.3222 -0.2325 -0.1072
   13CHL1   H25  954   3.312   1.716   8.969 -0.3921  0.4520 -0.2561
   13CHL1   C26  955   3.261   1.497   8.938 -0.1893  0.2060 -0.5291
   13CHL1  H26A  956   3.176   1.433   8.971  0.1842 -0.4082 -0.7376
   13CHL1  H26B  957   3.285   1.492   8.830 -0.8932  1.6100 -0.7607
   13CHL1  H26C  958   3.347   1.468   9.003 -0.1181  3.0167  0.7555
   13CHL1   C27  959   3.113   1.685   8.922 -0.3983 -0.6503  0.0445
   13CHL1  H27A  960   3.142   1.705   8.817  0.7902 -1.7605  0.1310
   13CHL1  H27B  961   3.034   1.606   8.931  0.0714 -1.1516 -0.1706
   13CHL1  H27C  962   3.077   1.780   8.966 -2.0424 -1.5630  0.7787
   14CHL1    C3  963   2.745   5.075  10.427 -0.6729  0.0915  0.1044
   14CHL1    H3  964   2.665   4.998  10.431 -1.7285  1.1903  0.8555
   14CHL1    O3  965   2.783   5.094  10.564 -0.3242 -0.1300 -0.1049
   14CHL1   H3'  966   2.696   5.092  10.604  0.3205 -0.5343  1.3814
   14CHL1    C4  967   2.866   5.025  10.345 -0.4687 -0.0580  0.0240
   14CHL1   H4A  968   2.949   5.097  10.362 -0.0433 -0.5653  0.1355
   14CHL1   H4B  969   2.906   4.928  10.382  3.2594  1.8465  1.4994
   14CHL1    C5  970   2.831   5.022  10.194 -0.3617  0.6297 -0.1774
   14CHL1    C6  971   2.836   4.906  10.132  0.0134 -0.2333 -0.0324
   14CHL1    H6  972   2.851   4.814  10.190  0.1392 -0.8500 -1.0185
   14CHL1    C7  973   2.789   4.880   9.991 -1.0149 -0.9369  0.2027
   14CHL1   H7A  974   2.834   4.787   9.951 -0.3121  0.1304 -1.6247
   14CHL1   H7B  975   2.680   4.860   9.999 -1.6852  1.9395 -0.3969
   14CHL1    C8  976   2.794   5.011   9.908  0.4234 -0.3851 -0.5433
   14CHL1    H8  977   2.902   5.035   9.904  0.2084  1.5680  2.4221
   14CHL1   C14  978   2.717   4.997   9.770  0.3735  0.1826  0.5730
   14CHL1   H14  979   2.609   4.983   9.792  0.5631  2.0956  3.1743
   14CHL1   C15  980   2.754   4.873   9.677 -0.0435  0.2974 -0.4220
   14CHL1  H15A  981   2.865   4.861   9.673  0.1611  2.0769 -0.8841
   14CHL1  H15B  982   2.712   4.776   9.710  1.7422 -0.6728 -0.8728
   14CHL1   C16  983   2.711   4.926   9.536 -0.4732  0.0700 -0.7166
   14CHL1  H16A  984   2.807   4.928   9.480 -0.1084  1.9226 -0.0764
   14CHL1  H16B  985   2.640   4.854   9.489 -0.5162 -0.4818  0.1582
   14CHL1   C17  986   2.662   5.070   9.556 -0.5423 -0.3115 -0.4582
   14CHL1   H17  987   2.555   5.068   9.586  0.1792  1.8299  2.7435
   14CHL1   C13  988   2.726   5.120   9.685 -0.0872 -0.2342 -0.0540
   14CHL1   C18  989   2.876   5.151   9.661 -0.0568 -0.3862  0.5213
   14CHL1  H18A  990   2.939   5.188   9.745  0.2479  1.5975 -0.5049
   14CHL1  H18B  991   2.928   5.063   9.619  0.5995  0.1687  0.1360
   14CHL1  H18C  992   2.886   5.230   9.583  0.0378  0.2655  1.1780
   14CHL1   C12  993   2.659   5.240   9.748 -0.1519 -0.1106  0.2515
   14CHL1  H12A  994   2.670   5.326   9.679  2.0421 -0.7666 -0.3096
   14CHL1  H12B  995   2.549   5.227   9.748 -0.3278  0.9608  2.3578
   14CHL1   C11  996   2.721   5.266   9.887  0.0984  0.2037 -0.2443
   14CHL1  H11A  997   2.815   5.325   9.880 -0.7391  1.7558  1.0599
   14CHL1  H11B  998   2.648   5.336   9.931 -0.2298  1.1250 -2.1486
   14CHL1    C9  999   2.727   5.133   9.978 -0.4724  0.4236  0.1764
   14CHL1    H9 1000   2.622   5.099   9.988 -1.4913  3.1106 -0.4711
   14CHL1   C10 1001   2.786   5.159  10.124  0.1307 -0.4730 -0.2898
   14CHL1   C19 1002   2.907   5.257  10.124 -0.2922 -0.3878  0.2357
   14CHL1  H19A 1003   2.951   5.267  10.226  1.2173 -2.1812 -0.1867
   14CHL1  H19B 1004   2.996   5.229  10.064  0.8294  1.7119  0.8191
   14CHL1  H19C 1005   2.877   5.362  10.104  0.7497 -0.1421 -0.0943
   14CHL1    C1 1006   2.665   5.207  10.210  0.2457  0.8021  0.7706
   14CHL1   H1A 1007   2.635   5.309  10.178 -0.0402  0.0781 -1.4468
   14CHL1   H1B 1008   2.586   5.135  10.180  0.6265  1.0193 -0.8666
   14CHL1    C2 1009   2.691   5.210  10.364  0.3213 -0.3661 -0.6695
   14CHL1   H2A 1010   2.595   5.234  10.412  1.0789  0.1817  0.6204
   14CHL1   H2B 1011   2.764   5.293  10.377 -1.6421  1.5389 -1.2742
   14CHL1   C20 1012   2.652   5.157   9.436 -0.4933  0.2820  0.9760
   14CHL1   H20 1013   2.660   5.262   9.471 -1.3439  0.5294  0.4518
   14CHL1   C21 1014   2.509   5.136   9.377 -0.2590 -0.1390 -0.1986
   14CHL1  H21A 1015   2.498   5.210   9.295  2.2457  0.3698 -0.1518
   14CHL1  H21B 1016   2.427   5.138   9.453 -1.3823  1.3607 -1.3945
   14CHL1  H21C 1017   2.499   5.035   9.332 -0.8241  0.0023 -0.4027
   14CHL1   C22 1018   2.757   5.128   9.329 -0.3181 -0.0868  0.1497
   14CHL1  H22A 1019   2.856   5.128   9.380 -1.1976  1.6069  1.9943
   14CHL1  H22B 1020   2.737   5.031   9.278 -0.9936  0.1836 -0.1194
   14CHL1   C23 1021   2.769   5.226   9.214  0.0553 -0.3218 -0.0883
   14CHL1  H23A 1022   2.681   5.225   9.147  0.0144  2.3212 -0.1737
   14CHL1  H23B 1023   2.770   5.330   9.252  0.5677 -0.0605 -0.7920
   14CHL1   C24 1024   2.894   5.204   9.124  0.9284 -0.7022  0.0472
   14CHL1  H24A 1025   2.986   5.239   9.174  1.0046  1.0988 -1.2322
   14CHL1  H24B 1026   2.906   5.095   9.105  0.8411 -0.9398  1.3126
   14CHL1   C25 1027   2.879   5.276   8.981  0.2961 -0.6399  0.5498
   14CHL1   H25 1028   2.779   5.246   8.941 -0.0180 -1.5223  1.9232
   14CHL1   C26 1029   2.887   5.437   8.995  0.0750 -0.0081  0.2224
   14CHL1  H26A 1030   2.799   5.480   9.046 -0.7407 -1.1294 -0.2024
   14CHL1  H26B 1031   2.983   5.464   9.044  0.2152 -0.2181  0.0647
   14CHL1  H26C 1032   2.899   5.473   8.890  2.0574 -0.6014  0.1957
   14CHL1   C27 1033   2.996   5.229   8.898 -0.5132 -0.0927 -0.3678
   14CHL1  H27A 1034   3.086   5.280   8.938 -0.7374  1.6165 -1.8797
   14CHL1  H27B 1035   2.998   5.118   8.891  0.9771 -0.0965 -0.1165
   14CHL1  H27C 1036   2.984   5.265   8.793 -0.4189 -1.7752 -0.9926
   15CHL1    C3 1037   2.840   3.288  10.412  0.9203 -0.1986  1.4059
   15CHL1    H3 1038   2.854   3.182  10.383 -0.3719  0.1852 -0.8480
   15CHL1    O3 1039   2.818   3.312  10.547  0.2278 -0.3660  0.4663
   15CHL1   H3' 1040   2.868   3.388  10.578 -2.0943  0.4886  2.4584
   15CHL1    C4 1041   2.963   3.382  10.385 -0.0404  0.6617  0.2479
   15CHL1   H4A 1042   2.937   3.488  10.407  1.9682  1.5449 -1.2650
   15CHL1   H4B 1043   3.044   3.349  10.453  0.7580  0.2034 -0.8941
   15CHL1    C5 1044   3.000   3.359  10.243 -0.4611  0.2466  0.6723
   15CHL1    C6 1045   3.123   3.315  10.201  0.0435  0.3370  0.2120
   15CHL1    H6 1046   3.199   3.284  10.274 -1.2857 -1.6420  0.8329
   15CHL1    C7 1047   3.170   3.315  10.055  0.1259 -0.5471 -0.7441
   15CHL1   H7A 1048   3.269   3.361  10.040 -0.0728  0.0572 -0.2628
   15CHL1   H7B 1049   3.172   3.207  10.029 -0.0856 -0.7744  0.1401
   15CHL1    C8 1050   3.073   3.380   9.954 -0.3318 -0.3367  0.2831
   15CHL1    H8 1051   3.098   3.488   9.948  1.1520 -0.5800  1.5124
   15CHL1   C14 1052   3.103   3.311   9.814 -0.2349  0.1602 -0.0024
   15CHL1   H14 1053   3.092   3.203   9.836  1.4028  0.1616  0.9775
   15CHL1   C15 1054   3.248   3.305   9.755 -0.1942  0.5211  0.1840
   15CHL1  H15A 1055   3.300   3.403   9.762  0.1266  0.4226 -0.6721
   15CHL1  H15B 1056   3.315   3.240   9.816 -0.2723 -1.7862 -2.0298
   15CHL1   C16 1057   3.223   3.261   9.610  0.1291 -0.4846 -0.8325
   15CHL1  H16A 1058   3.252   3.356   9.560 -1.0368  0.3795  0.0683
   15CHL1  H16B 1059   3.274   3.170   9.574 -0.8116 -1.1871 -0.4155
   15CHL1   C17 1060   3.063   3.261   9.583 -1.0568  0.4527 -0.2678
   15CHL1   H17 1061   3.040   3.155   9.611 -0.0320  0.3623  0.2985
   15CHL1   C13 1062   3.004   3.346   9.699 -0.3722  0.2381  0.5603
   15CHL1   C18 1063   3.015   3.501   9.667  0.0133 -0.2457 -0.4263
   15CHL1  H18A 1064   2.979   3.530   9.566  0.4704 -0.5708 -0.6870
   15CHL1  H18B 1065   2.951   3.559   9.737  0.8488 -1.3476  1.3241
   15CHL1  H18C 1066   3.124   3.522   9.670  0.4794 -1.8464 -3.0270
   15CHL1   C12 1067   2.860   3.312   9.748  0.2425  0.0970  0.4988
   15CHL1  H12A 1068   2.791   3.335   9.664  1.2441 -0.5255 -0.5299
   15CHL1  H12B 1069   2.845   3.203   9.763  0.7257 -0.0330  0.0574
   15CHL1   C11 1070   2.827   3.383   9.884 -0.4345  0.4073  1.0966
   15CHL1  H11A 1071   2.835   3.493   9.871 -0.9425  0.4562  1.1870
   15CHL1  H11B 1072   2.720   3.360   9.906 -0.5451 -1.3655 -0.9060
   15CHL1    C9 1073   2.930   3.351   9.995  0.0274 -0.2190  0.4578
   15CHL1    H9 1074   2.915   3.241   9.998  1.2323 -0.3967  0.1950
   15CHL1   C10 1075   2.898   3.398  10.139 -0.4174 -1.0290  0.4172
   15CHL1   C19 1076   2.876   3.550  10.136  0.0423  1.0301  0.1127
   15CHL1  H19A 1077   2.976   3.591  10.111  1.3083 -2.9064 -2.1468
   15CHL1  H19B 1078   2.793   3.587  10.073 -0.6205  0.0468  0.3850
   15CHL1  H19C 1079   2.840   3.587  10.234 -0.4554  0.9069 -0.0208
   15CHL1    C1 1080   2.763   3.333  10.177 -0.0734  0.3320  0.0142
   15CHL1   H1A 1081   2.680   3.387  10.126  0.0114  1.4513  1.0337
   15CHL1   H1B 1082   2.757   3.230  10.136  2.4688  0.2741 -0.3432
   15CHL1    C2 1083   2.724   3.343  10.326 -0.2197  0.4196 -0.4763
   15CHL1   H2A 1084   2.632   3.285  10.349 -1.2283  2.4003  0.8242
   15CHL1   H2B 1085   2.716   3.448  10.361  2.2061 -0.2245  2.5531
   15CHL1   C20 1086   3.028   3.286   9.433 -0.1871  0.4349  0.9581
   15CHL1   H20 1087   3.036   3.395   9.413 -1.6924  0.2203 -1.0511
   15CHL1   C21 1088   2.877   3.246   9.416  0.3993  0.7826 -0.0624
   15CHL1  H21A 1089   2.858   3.216   9.311 -0.6252 -1.5551  0.7197
   15CHL1  H21B 1090   2.806   3.324   9.450 -2.1393 -1.5597  0.3172
   15CHL1  H21C 1091   2.863   3.153   9.475 -0.0202 -0.0832 -1.4929
   15CHL1   C22 1092   3.125   3.216   9.334  0.3033  0.7599  0.2744
   15CHL1  H22A 1093   3.227   3.256   9.353  0.8329 -1.8371  3.9766
   15CHL1  H22B 1094   3.142   3.107   9.352 -0.9461  0.1326 -1.9922
   15CHL1   C23 1095   3.098   3.247   9.192  0.1997 -0.1355  0.0606
   15CHL1  H23A 1096   2.997   3.212   9.160  0.3976  0.8071 -1.6763
   15CHL1  H23B 1097   3.101   3.356   9.173  0.5857 -0.4483 -1.8313
   15CHL1   C24 1098   3.206   3.188   9.104  0.2676  0.0687  0.1082
   15CHL1  H24A 1099   3.296   3.253   9.115  1.1154 -1.1546  0.7599
   15CHL1  H24B 1100   3.247   3.087   9.128  1.9733  0.8113  0.4888
   15CHL1   C25 1101   3.155   3.196   8.953  0.0963 -0.2594  0.2486
   15CHL1   H25 1102   3.059   3.145   8.931  1.0927 -1.3993 -1.7805
   15CHL1   C26 1103   3.148   3.340   8.906 -0.1030 -0.9650  0.5994
   15CHL1  H26A 1104   3.138   3.345   8.795 -0.2282 -0.4295  0.6303
   15CHL1  H26B 1105   3.066   3.400   8.952  0.2213  0.7661 -0.9470
   15CHL1  H26C 1106   3.238   3.397   8.935 -0.1967  0.7364 -2.0686
   15CHL1   C27 1107   3.251   3.104   8.864 -0.1729  0.2434  0.1578
   15CHL1  H27A 1108   3.350   3.153   8.851  0.7209 -1.8799 -1.8040
   15CHL1  H27B 1109   3.271   3.006   8.913  1.7858  1.2050  1.3623
   15CHL1  H27C 1110   3.207   3.080   8.764 -0.9310 -1.0556  0.7763
   16CHL1    C3 1111   4.924   3.410   9.987  0.2039 -0.1080  0.2049
   16CHL1    H3 1112   4.813   3.398   9.987  0.3010 -1.1203  0.3795
   16CHL1    O3 1113   4.940   3.481  10.114  0.2339 -0.7522 -0.1564
   16CHL1   H3' 1114   5.031   3.460  10.137  0.5862  0.7246 -0.0982
   16CHL1    C4 1115   4.988   3.275   9.986  0.7518 -0.8302  0.0828
   16CHL1   H4A 1116   5.092   3.301  10.012  0.2718  2.2683 -0.7421
   16CHL1   H4B 1117   4.960   3.227  10.082 -2.5578 -0.9650 -0.8297
   16CHL1    C5 1118   4.978   3.192   9.858 -0.0241  0.3204 -0.4477
   16CHL1    C6 1119   4.915   3.070   9.860 -0.2796 -0.8626 -0.3419
   16CHL1    H6 1120   4.891   3.025   9.958  0.4379 -0.4142  0.0569
   16CHL1    C7 1121   4.895   2.989   9.734  0.2637  0.2819 -0.5104
   16CHL1   H7A 1122   4.915   2.881   9.753 -0.3556  0.4275  1.0951
   16CHL1   H7B 1123   4.789   3.008   9.707 -0.3433 -0.4802  1.1710
   16CHL1    C8 1124   4.977   3.039   9.611 -0.3519  0.8473  0.2649
   16CHL1    H8 1125   5.082   3.008   9.629  0.2004  1.6276 -1.3666
   16CHL1   C14 1126   4.939   2.975   9.471 -0.3531  0.1996 -1.0201
   16CHL1   H14 1127   4.834   3.009   9.458 -0.4004  0.0668 -0.9861
   16CHL1   C15 1128   4.951   2.819   9.462  0.0005 -0.0513 -0.2818
   16CHL1  H15A 1129   5.045   2.780   9.507 -1.0004 -0.7537  1.2844
   16CHL1  H15B 1130   4.881   2.757   9.521 -1.6787  0.8489 -1.2624
   16CHL1   C16 1131   4.937   2.792   9.310 -0.0857  0.0356  0.8644
   16CHL1  H16A 1132   5.027   2.730   9.286  1.5063  2.2092  0.9209
   16CHL1  H16B 1133   4.836   2.748   9.295  0.6804 -1.0411 -1.6701
   16CHL1   C17 1134   4.956   2.935   9.244 -0.8746 -0.4508  0.8805
   16CHL1   H17 1135   4.855   2.975   9.220 -1.0708 -1.3102  0.2101
   16CHL1   C13 1136   5.014   3.027   9.356 -0.8132  0.0671  0.4254
   16CHL1   C18 1137   5.171   2.996   9.364 -0.7705  0.8272  0.1637
   16CHL1  H18A 1138   5.195   2.889   9.346  1.9333  1.4134 -0.1472
   16CHL1  H18B 1139   5.220   3.057   9.285  0.5602  2.9287  2.4320
   16CHL1  H18C 1140   5.201   3.022   9.468  1.2614  1.2022 -0.4772
   16CHL1   C12 1141   4.983   3.180   9.343 -0.5946  0.2752 -0.1537
   16CHL1  H12A 1142   5.035   3.227   9.257 -2.0901  0.7665 -0.8217
   16CHL1  H12B 1143   4.874   3.198   9.333 -0.4366  0.3467 -2.1336
   16CHL1   C11 1144   5.039   3.247   9.472  0.2015  0.2310 -0.6730
   16CHL1  H11A 1145   5.148   3.246   9.491 -0.1541  2.4793  2.0771
   16CHL1  H11B 1146   5.027   3.357   9.460  0.8589  0.3810 -0.0150
   16CHL1    C9 1147   4.975   3.194   9.605 -0.0241  0.6124 -0.4337
   16CHL1    H9 1148   4.866   3.213   9.594 -0.0836  0.5519  0.0286
   16CHL1   C10 1149   5.025   3.268   9.733 -0.0196 -0.9184  0.0205
   16CHL1   C19 1150   5.178   3.295   9.743 -0.6243 -0.0798  0.3006
   16CHL1  H19A 1151   5.201   3.335   9.844  2.9097  0.5323 -0.6321
   16CHL1  H19B 1152   5.232   3.198   9.733 -1.0609 -0.4132  1.1040
   16CHL1  H19C 1153   5.207   3.370   9.667 -0.1912  1.7267  2.1635
   16CHL1    C1 1154   4.953   3.404   9.740 -1.2540  0.7241 -0.4248
   16CHL1   H1A 1155   4.998   3.466   9.660  0.8056  0.9904  0.8613
   16CHL1   H1B 1156   4.846   3.389   9.716 -1.0215 -0.4598 -0.7825
   16CHL1    C2 1157   4.964   3.489   9.870 -0.1200  0.6223 -0.0844
   16CHL1   H2A 1158   4.920   3.592   9.868 -1.4310  0.0788 -0.3974
   16CHL1   H2B 1159   5.073   3.495   9.891  0.3500 -0.9326 -1.8400
   16CHL1   C20 1160   5.033   2.929   9.113  0.7979 -0.4663  0.0475
   16CHL1   H20 1161   5.132   2.879   9.121  1.6731  1.2096  0.1945
   16CHL1   C21 1162   5.058   3.069   9.053 -0.6556 -0.1445  0.5550
   16CHL1  H21A 1163   4.956   3.111   9.040  0.3677  2.2392 -0.4565
   16CHL1  H21B 1164   5.098   3.058   8.950  0.1812 -0.1683  0.8823
   16CHL1  H21C 1165   5.116   3.142   9.113 -0.0808 -0.2417  0.1271
   16CHL1   C22 1166   4.948   2.850   9.020  0.2294  0.1957 -0.4821
   16CHL1  H22A 1167   4.936   2.749   9.066  1.5359 -0.0727 -0.6675
   16CHL1  H22B 1168   4.845   2.891   9.020 -0.2860 -1.0085  1.0867
   16CHL1   C23 1169   5.000   2.840   8.878  0.6898  0.1674 -0.0671
   16CHL1  H23A 1170   4.988   2.941   8.834 -1.3819  0.5646  1.2877
   16CHL1  H23B 1171   5.106   2.807   8.887  1.0035  1.1203 -0.0900
   16CHL1   C24 1172   4.917   2.762   8.779 -0.3509  0.4528 -0.4838
   16CHL1  H24A 1173   4.890   2.658   8.807  0.4542 -0.0789 -1.6098
   16CHL1  H24B 1174   4.820   2.816   8.766  0.2007  1.8265  0.7995
   16CHL1   C25 1175   4.987   2.749   8.642  0.2427  0.2898  0.6036
   16CHL1   H25 1176   5.013   2.851   8.607 -2.8736  0.5646 -1.3311
   16CHL1   C26 1177   5.103   2.651   8.642 -0.3267  0.5671  1.0431
   16CHL1  H26A 1178   5.141   2.618   8.543 -1.3307 -3.7528  1.9177
   16CHL1  H26B 1179   5.185   2.689   8.707  0.1317  1.4350 -0.0012
   16CHL1  H26C 1180   5.065   2.557   8.687 -0.0627 -1.8572 -3.1947
   16CHL1   C27 1181   4.882   2.705   8.531  0.5175  0.1502 -0.3907
   16CHL1  H27A 1182   4.833   2.612   8.566  3.6991 -1.7214 -0.5620
   16CHL1  H27B 1183   4.809   2.789   8.526  0.7004  0.3067 -0.4639
   16CHL1  H27C 1184   4.921   2.691   8.428  0.8817 -1.4768 -0.0516
   17CHL1    C3 1185   6.318   2.110   9.911 -0.2213 -0.1082 -0.3938
   17CHL1    H3 1186   6.404   2.154   9.857 -0.1946 -2.7199 -2.6614
   17CHL1    O3 1187   6.307   2.178  10.035 -0.3485 -0.3286  0.1520
   17CHL1   H3' 1188   6.395   2.175  10.073 -0.2852  0.3995  0.0768
   17CHL1    C4 1189   6.185   2.130   9.829 -0.2630  0.3534  0.7070
   17CHL1   H4A 1190   6.099   2.091   9.888  1.2310  1.1734  3.6113
   17CHL1   H4B 1191   6.168   2.237   9.806  3.1497  1.5118  2.7630
   17CHL1    C5 1192   6.197   2.048   9.700 -0.3279  0.6076 -0.4707
   17CHL1    C6 1193   6.175   2.097   9.581 -0.9173  0.5049  0.4311
   17CHL1    H6 1194   6.153   2.204   9.566  2.5184  1.3167  0.4908
   17CHL1    C7 1195   6.173   2.017   9.455 -0.2992 -0.2771  0.7680
   17CHL1   H7A 1196   6.087   2.043   9.390  0.8988  0.5143 -0.5656
   17CHL1   H7B 1197   6.264   2.037   9.394 -0.4093  1.5397  1.1376
   17CHL1    C8 1198   6.158   1.869   9.486 -0.7328 -0.4770  0.0213
   17CHL1    H8 1199   6.053   1.848   9.518 -0.6861 -0.4092  0.2180
   17CHL1   C14 1200   6.189   1.784   9.359  0.7877  0.3547  0.2999
   17CHL1   H14 1201   6.290   1.814   9.324  1.7155 -0.1608  2.3546
   17CHL1   C15 1202   6.101   1.816   9.231 -0.0103  0.6142 -0.0807
   17CHL1  H15A 1203   5.995   1.808   9.263  0.4143 -0.0056  1.2647
   17CHL1  H15B 1204   6.129   1.918   9.196  0.1514  1.0795  1.3367
   17CHL1   C16 1205   6.134   1.696   9.140 -0.0754  0.1667  0.6272
   17CHL1  H16A 1206   6.043   1.643   9.105  0.3335 -1.0610  1.3469
   17CHL1  H16B 1207   6.190   1.738   9.054 -1.3215  0.8081  0.1097
   17CHL1   C17 1208   6.221   1.593   9.218  0.4277 -0.2939 -0.6121
   17CHL1   H17 1209   6.329   1.620   9.207  1.2003 -2.9552 -0.2207
   17CHL1   C13 1210   6.196   1.628   9.371  0.3509 -0.0376 -0.1173
   17CHL1   C18 1211   6.055   1.574   9.414  0.0327 -0.0443  0.1729
   17CHL1  H18A 1212   5.976   1.601   9.341  0.7998  0.4248 -0.4930
   17CHL1  H18B 1213   6.068   1.464   9.420 -1.3635 -0.1604  1.9072
   17CHL1  H18C 1214   6.032   1.618   9.513  2.2492  2.5332 -0.3332
   17CHL1   C12 1215   6.301   1.592   9.481 -0.4072  0.0942 -0.6131
   17CHL1  H12A 1216   6.312   1.484   9.505  1.9810  0.2201 -0.8465
   17CHL1  H12B 1217   6.401   1.623   9.442 -0.3715 -0.7222 -1.2018
   17CHL1   C11 1218   6.265   1.668   9.608  0.2200  0.4291  0.4074
   17CHL1  H11A 1219   6.167   1.634   9.648  0.1428  3.0282  2.6975
   17CHL1  H11B 1220   6.347   1.653   9.682 -0.1759  0.2955  0.8272
   17CHL1    C9 1221   6.258   1.822   9.587  0.1958  0.4076  0.3312
   17CHL1    H9 1222   6.365   1.846   9.566  0.2939 -0.4312 -0.1498
   17CHL1   C10 1223   6.229   1.897   9.726  0.0430 -0.0117  0.1469
   17CHL1   C19 1224   6.105   1.834   9.800  0.2238  0.2218 -0.4007
   17CHL1  H19A 1225   6.133   1.736   9.846  1.6485  1.0143  0.5123
   17CHL1  H19B 1226   6.085   1.893   9.892  0.1482  0.5400 -0.6230
   17CHL1  H19C 1227   6.008   1.834   9.747 -0.0738 -0.2215  0.1329
   17CHL1    C1 1228   6.360   1.886   9.801 -0.8508 -0.3436 -0.4147
   17CHL1   H1A 1229   6.369   1.783   9.842 -0.9312  0.1361  0.8460
   17CHL1   H1B 1230   6.451   1.910   9.743 -0.0698 -1.6555  0.2196
   17CHL1    C2 1231   6.355   1.968   9.935 -0.3594  0.0086 -0.3644
   17CHL1   H2A 1232   6.456   1.961   9.982 -0.5054 -0.9920 -0.1765
   17CHL1   H2B 1233   6.287   1.925  10.012  2.8973  0.6453  3.1977
   17CHL1   C20 1234   6.210   1.442   9.178  0.4760  0.5245  0.0519
   17CHL1   H20 1235   6.105   1.415   9.204 -0.2969  2.7507 -0.5710
   17CHL1   C21 1236   6.304   1.360   9.267 -0.7834  0.0564  0.1747
   17CHL1  H21A 1237   6.321   1.264   9.214  0.5261  0.4552 -0.1456
   17CHL1  H21B 1238   6.244   1.340   9.359 -1.1495  0.9657  0.1491
   17CHL1  H21C 1239   6.397   1.417   9.287  0.6381 -0.7352 -3.4594
   17CHL1   C22 1240   6.228   1.420   9.031 -0.3455  0.4113  0.3751
   17CHL1  H22A 1241   6.204   1.514   8.976 -0.2386 -0.4010 -1.1179
   17CHL1  H22B 1242   6.338   1.409   9.028 -0.5614 -1.9450 -1.9005
   17CHL1   C23 1243   6.163   1.294   8.977  0.8312 -0.2523  0.3754
   17CHL1  H23A 1244   6.165   1.209   9.048  0.4593  0.2434  0.9964
   17CHL1  H23B 1245   6.054   1.318   8.969  0.9601  0.4001  0.5060
   17CHL1   C24 1246   6.217   1.247   8.840 -0.4029  0.3713 -0.0211
   17CHL1  H24A 1247   6.215   1.334   8.772 -1.1703  1.8936  1.8611
   17CHL1  H24B 1248   6.326   1.226   8.851  0.0977  3.0326  0.9257
   17CHL1   C25 1249   6.136   1.134   8.773  0.2849  0.5693 -0.4216
   17CHL1   H25 1250   6.115   1.047   8.838 -2.6008  1.9921  0.7121
   17CHL1   C26 1251   5.999   1.176   8.711 -0.4044  0.1203 -0.0931
   17CHL1  H26A 1252   5.945   1.230   8.792 -2.1120 -0.5873 -0.7156
   17CHL1  H26B 1253   6.002   1.256   8.634 -3.8067  1.8893  1.4275
   17CHL1  H26C 1254   5.939   1.090   8.674  1.2692 -1.4348  0.6727
   17CHL1   C27 1255   6.223   1.093   8.663 -0.2590 -0.1205  0.3327
   17CHL1  H27A 1256   6.233   1.159   8.575  0.2816 -2.1900 -1.2554
   17CHL1  H27B 1257   6.329   1.076   8.693  0.0890  1.9777  0.4087
   17CHL1  H27C 1258   6.185   0.996   8.624 -0.8981 -0.4442  1.6844
   18CHL1    C3 1259   4.785   6.708  10.153  0.2236 -0.3574 -0.0547
   18CHL1    H3 1260   4.687   6.757  10.169  0.2987  0.2363 -1.3073
   18CHL1    O3 1261   4.845   6.693  10.290 -0.4079 -0.6848  0.4283
   18CHL1   H3' 1262   4.839   6.783  10.324 -4.0815 -1.1688  1.5447
   18CHL1    C4 1263   4.764   6.567  10.085 -0.5368 -0.3441 -0.1059
   18CHL1   H4A 1264   4.860   6.512  10.082  1.1476  2.4059 -0.3551
   18CHL1   H4B 1265   4.703   6.510  10.159  2.0947 -2.3792  0.6249
   18CHL1    C5 1266   4.710   6.569   9.940 -0.3918  0.4967  0.3315
   18CHL1    C6 1267   4.596   6.499   9.908 -0.0842  0.6972 -0.1178
   18CHL1    H6 1268   4.547   6.430   9.979  0.3362  1.3619  0.8401
   18CHL1    C7 1269   4.531   6.498   9.770 -0.0108  0.4216 -0.3301
   18CHL1   H7A 1270   4.526   6.393   9.732 -1.8249  0.3882 -0.0997
   18CHL1   H7B 1271   4.429   6.541   9.769 -1.2952 -2.2992  1.2271
   18CHL1    C8 1272   4.619   6.573   9.668 -1.0556  0.0548  0.2769
   18CHL1    H8 1273   4.694   6.496   9.642 -0.2571  0.0145  2.5170
   18CHL1   C14 1274   4.526   6.606   9.553 -0.4624 -0.5362  0.3119
   18CHL1   H14 1275   4.451   6.677   9.593 -0.3466 -1.2845  1.9050
   18CHL1   C15 1276   4.450   6.486   9.484 -0.3575  0.1306  0.0878
   18CHL1  H15A 1277   4.525   6.404   9.476  2.6939  2.3544  2.7931
   18CHL1  H15B 1278   4.362   6.454   9.544  0.7465 -1.7927  0.7938
   18CHL1   C16 1279   4.405   6.547   9.350  0.8956 -0.1762  0.0539
   18CHL1  H16A 1280   4.435   6.493   9.258  1.3564  0.8638 -0.4185
   18CHL1  H16B 1281   4.294   6.544   9.341  1.0297 -1.9681 -1.5242
   18CHL1   C17 1282   4.463   6.689   9.333 -0.6328  0.7896 -0.4780
   18CHL1   H17 1283   4.388   6.757   9.380 -1.0477  1.6293 -2.3028
   18CHL1   C13 1284   4.584   6.681   9.433 -1.0182 -0.4233 -0.3914
   18CHL1   C18 1285   4.703   6.595   9.374  0.1570 -0.2117 -0.2991
   18CHL1  H18A 1286   4.777   6.577   9.454  1.4664 -0.8051 -1.6179
   18CHL1  H18B 1287   4.663   6.497   9.340  0.4974  0.4552 -2.8650
   18CHL1  H18C 1288   4.755   6.651   9.293  0.1996 -1.3406 -1.0699
   18CHL1   C12 1289   4.647   6.814   9.494  0.3695 -0.3739  0.0411
   18CHL1  H12A 1290   4.706   6.871   9.419 -1.8486  2.0735  0.0466
   18CHL1  H12B 1291   4.554   6.867   9.523 -0.5820 -0.2276 -2.9560
   18CHL1   C11 1292   4.738   6.797   9.616  0.0207 -0.1138  0.4742
   18CHL1  H11A 1293   4.832   6.762   9.569  0.6437  3.1638 -0.9629
   18CHL1  H11B 1294   4.773   6.893   9.661  0.1969  0.4277 -0.7804
   18CHL1    C9 1295   4.681   6.703   9.728  0.1556  0.2921 -0.0133
   18CHL1    H9 1296   4.595   6.761   9.768  1.8701  3.5785 -0.7619
   18CHL1   C10 1297   4.778   6.670   9.843  0.5843 -0.5287 -0.1218
   18CHL1   C19 1298   4.901   6.603   9.781 -0.4887  0.1853  0.1992
   18CHL1  H19A 1299   4.951   6.673   9.710 -0.3752  0.5902  0.6699
   18CHL1  H19B 1300   4.974   6.590   9.864 -1.0758 -2.9767  0.3334
   18CHL1  H19C 1301   4.891   6.502   9.737  1.5919  0.6863 -1.6384
   18CHL1    C1 1302   4.826   6.804   9.918 -0.3677 -0.6942  0.3613
   18CHL1   H1A 1303   4.896   6.866   9.857  1.2823 -2.8211 -0.0792
   18CHL1   H1B 1304   4.734   6.862   9.939  0.1220  0.0949  0.3770
   18CHL1    C2 1305   4.873   6.795  10.061  0.3505  0.3598 -0.2969
   18CHL1   H2A 1306   4.887   6.896  10.106  2.1049  0.2567 -0.5298
   18CHL1   H2B 1307   4.975   6.751  10.066  0.1098 -0.4302 -1.7779
   18CHL1   C20 1308   4.487   6.740   9.187  0.4378 -0.2629  0.5846
   18CHL1   H20 1309   4.574   6.695   9.136  0.8200  0.2142  0.8021
   18CHL1   C21 1310   4.502   6.898   9.186 -0.5574  0.1929  0.1121
   18CHL1  H21A 1311   4.408   6.939   9.229 -1.0162 -1.4942  0.7767
   18CHL1  H21B 1312   4.508   6.947   9.086  2.5947  0.9974  0.6082
   18CHL1  H21C 1313   4.582   6.927   9.257 -0.1300 -0.9796  0.1368
   18CHL1   C22 1314   4.363   6.712   9.097  0.1796  0.0014  0.1929
   18CHL1  H22A 1315   4.344   6.602   9.097  0.9801 -0.1570 -1.2592
   18CHL1  H22B 1316   4.269   6.753   9.140  0.1476 -0.6922  0.8046
   18CHL1   C23 1317   4.374   6.758   8.944  0.4178  0.7799 -0.2249
   18CHL1  H23A 1318   4.269   6.745   8.910  1.2784 -2.3127 -2.0773
   18CHL1  H23B 1319   4.393   6.867   8.935 -1.4056  1.2222  0.7257
   18CHL1   C24 1320   4.460   6.665   8.860  0.6510 -0.1746  0.3414
   18CHL1  H24A 1321   4.564   6.676   8.900  0.6145  1.3913  0.0689
   18CHL1  H24B 1322   4.435   6.562   8.894  3.6193 -0.2831  2.6858
   18CHL1   C25 1323   4.453   6.692   8.704  0.3548 -0.1878  0.1355
   18CHL1   H25 1324   4.345   6.685   8.682 -0.3449  0.3689  3.0045
   18CHL1   C26 1325   4.499   6.837   8.666  0.7625 -0.7503 -0.0508
   18CHL1  H26A 1326   4.440   6.912   8.723  0.9120 -0.5523 -0.1527
   18CHL1  H26B 1327   4.606   6.865   8.678  0.9804 -1.4776 -0.2632
   18CHL1  H26C 1328   4.482   6.866   8.561 -1.6400  2.9071  1.1744
   18CHL1   C27 1329   4.521   6.585   8.623 -0.4654  0.4214  0.0132
   18CHL1  H27A 1330   4.630   6.587   8.643 -0.1774 -0.0512 -1.3857
   18CHL1  H27B 1331   4.487   6.479   8.626 -1.0930  0.5076 -1.9869
   18CHL1  H27C 1332   4.497   6.621   8.520 -0.2984  0.4364 -0.0197
   19CHL1    C3 1333   2.597   2.935  10.253 -0.5012  0.0670  0.4467
   19CHL1    H3 1334   2.697   2.975  10.224 -0.5684 -0.3920 -0.4338
   19CHL1    O3 1335   2.578   2.928  10.394  0.2530 -0.7130 -0.1547
   19CHL1   H3' 1336   2.486   2.907  10.414  0.4033 -0.8973  0.3806
   19CHL1    C4 1337   2.495   3.026  10.181  0.1829 -0.0101  0.0186
   19CHL1   H4A 1338   2.395   3.005  10.225  0.6774 -2.4628  0.1461
   19CHL1   H4B 1339   2.519   3.129  10.215  0.5748 -0.3864  0.9390
   19CHL1    C5 1340   2.502   3.019  10.030  0.7677 -0.5232  0.0556
   19CHL1    C6 1341   2.527   3.131   9.959 -0.5493  0.0800 -0.2046
   19CHL1    H6 1342   2.521   3.224  10.017  0.9576 -0.2431  0.5166
   19CHL1    C7 1343   2.538   3.134   9.811 -0.1094  0.0219  0.1108
   19CHL1   H7A 1344   2.487   3.223   9.768 -1.5105 -0.0794  1.4769
   19CHL1   H7B 1345   2.648   3.135   9.796 -0.0256 -2.1493  0.2196
   19CHL1    C8 1346   2.487   3.001   9.752  0.4701  0.6365 -0.0678
   19CHL1    H8 1347   2.377   2.990   9.753  0.5557 -0.4793 -0.9544
   19CHL1   C14 1348   2.523   2.994   9.602 -0.3375 -0.0533  0.2944
   19CHL1   H14 1349   2.634   2.997   9.601 -0.3387  0.8205 -1.3928
   19CHL1   C15 1350   2.469   3.121   9.521 -0.7174  0.5242 -0.7574
   19CHL1  H15A 1351   2.361   3.127   9.547 -1.4403 -1.6632 -2.8817
   19CHL1  H15B 1352   2.521   3.218   9.536  0.6060 -0.4614  1.6135
   19CHL1   C16 1353   2.477   3.072   9.377  0.7415  0.1449  0.2329
   19CHL1  H16A 1354   2.372   3.085   9.341  1.2331 -1.4686 -1.9935
   19CHL1  H16B 1355   2.537   3.133   9.306  0.3429 -0.0308 -0.2646
   19CHL1   C17 1356   2.514   2.918   9.387 -0.1010 -0.6596 -0.4095
   19CHL1   H17 1357   2.625   2.924   9.381 -0.1964  3.5596 -0.6067
   19CHL1   C13 1358   2.476   2.871   9.528  0.0780  0.5417 -0.0482
   19CHL1   C18 1359   2.319   2.860   9.525  0.2317  0.1884 -0.2990
   19CHL1  H18A 1360   2.267   2.852   9.623 -0.0811  1.0127 -0.3883
   19CHL1  H18B 1361   2.262   2.934   9.465  3.7043  0.1217 -4.1632
   19CHL1  H18C 1362   2.291   2.763   9.479 -0.0860 -0.1912  0.6660
   19CHL1   C12 1363   2.540   2.746   9.588  0.2788 -1.3849 -1.0744
   19CHL1  H12A 1364   2.511   2.650   9.540 -1.3320 -1.6514  0.3389
   19CHL1  H12B 1365   2.647   2.775   9.579  0.0786  1.4075  2.8784
   19CHL1   C11 1366   2.511   2.739   9.740 -1.0736 -0.6241  0.7084
   19CHL1  H11A 1367   2.401   2.724   9.745 -1.3027  0.6396 -0.0345
   19CHL1  H11B 1368   2.573   2.655   9.776 -0.2943  0.1707  1.2786
   19CHL1    C9 1369   2.546   2.872   9.818 -0.9945 -0.3877  0.6820
   19CHL1    H9 1370   2.657   2.877   9.810 -1.1631  0.1739 -2.8282
   19CHL1   C10 1371   2.504   2.878   9.968 -0.0688 -0.4756 -0.2075
   19CHL1   C19 1372   2.365   2.824   9.998 -0.4561 -0.1615  0.0123
   19CHL1  H19A 1373   2.290   2.871   9.931  1.4668  1.9127 -0.8129
   19CHL1  H19B 1374   2.361   2.717   9.967  0.9039  0.2388 -1.7239
   19CHL1  H19C 1375   2.334   2.833  10.104  0.7364  0.2412  0.3416
   19CHL1    C1 1376   2.609   2.786  10.043 -0.2609 -0.1036 -0.0243
   19CHL1   H1A 1377   2.604   2.681  10.006  0.9169  0.4768 -1.9363
   19CHL1   H1B 1378   2.707   2.831  10.018 -1.4872  2.4622 -0.5549
   19CHL1    C2 1379   2.599   2.792  10.200  0.5561 -0.1370  0.3952
   19CHL1   H2A 1380   2.684   2.731  10.237  0.3670 -1.0987 -0.6891
   19CHL1   H2B 1381   2.509   2.735  10.231 -0.7403  1.2759 -0.6581
   19CHL1   C20 1382   2.463   2.835   9.264 -1.1105 -0.3267 -0.1494
   19CHL1   H20 1383   2.357   2.800   9.267 -0.6105 -1.8174  0.6569
   19CHL1   C21 1384   2.546   2.707   9.256 -0.6024 -0.0363 -0.3184
   19CHL1  H21A 1385   2.610   2.673   9.340 -0.4851 -3.3565 -1.5690
   19CHL1  H21B 1386   2.624   2.715   9.177  1.6989 -0.7693  1.7347
   19CHL1  H21C 1387   2.486   2.615   9.240 -0.2200 -0.7568  2.0605
   19CHL1   C22 1388   2.480   2.910   9.127  0.0096  0.7547  0.3931
   19CHL1  H22A 1389   2.408   2.995   9.123 -1.5032 -0.3600  2.1621
   19CHL1  H22B 1390   2.583   2.951   9.126  0.5000 -0.4202 -0.2012
   19CHL1   C23 1391   2.441   2.843   8.991 -0.6621 -0.7652  0.0087
   19CHL1  H23A 1392   2.490   2.743   8.988  1.2340  0.1445 -1.0443
   19CHL1  H23B 1393   2.331   2.837   8.978 -0.7141  0.2825 -0.0669
   19CHL1   C24 1394   2.488   2.910   8.865  0.0654 -0.1218 -0.1071
   19CHL1  H24A 1395   2.466   3.019   8.866 -1.0232 -0.3371  0.3238
   19CHL1  H24B 1396   2.599   2.909   8.857  0.2381  1.8842  1.2196
   19CHL1   C25 1397   2.423   2.849   8.735  0.7068  0.1502  0.4941
   19CHL1   H25 1398   2.312   2.849   8.739  0.5585 -3.4139 -0.1274
   19CHL1   C26 1399   2.483   2.896   8.595 -0.1297  0.2612 -0.2705
   19CHL1  H26A 1400   2.588   2.911   8.626 -1.0242  1.8429  2.2756
   19CHL1  H26B 1401   2.469   2.819   8.516 -0.7846 -0.1389  0.2198
   19CHL1  H26C 1402   2.426   2.987   8.566 -0.2772  1.8454  4.2592
   19CHL1   C27 1403   2.447   2.695   8.734  0.3892 -0.9288 -0.3805
   19CHL1  H27A 1404   2.555   2.672   8.747  0.4775  0.6023  2.2706
   19CHL1  H27B 1405   2.398   2.657   8.826  0.0683 -0.6182 -0.4217
   19CHL1  H27C 1406   2.407   2.639   8.647  1.4557  0.7836 -2.0532
   20CHL1    C3 1407   3.597   4.097  10.420 -0.1343  0.1013  0.6921
   20CHL1    H3 1408   3.701   4.059  10.412 -0.9561 -1.7736 -3.9369
   20CHL1    O3 1409   3.548   4.123  10.552 -0.4588  0.0422 -0.1178
   20CHL1   H3' 1410   3.596   4.203  10.577  1.9862 -1.4206  0.2363
   20CHL1    C4 1411   3.612   4.235  10.353  0.3750  0.2285  0.0767
   20CHL1   H4A 1412   3.523   4.296  10.377  2.2344  2.1829  2.7271
   20CHL1   H4B 1413   3.690   4.292  10.409  1.2261 -0.2298 -0.6265
   20CHL1    C5 1414   3.656   4.232  10.205 -0.1018  0.2991  0.0209
   20CHL1    C6 1415   3.770   4.296  10.160  0.3252 -0.8495 -0.0226
   20CHL1    H6 1416   3.840   4.341  10.232 -0.8503  1.9683 -0.5431
   20CHL1    C7 1417   3.805   4.305  10.010 -0.4715  0.0009 -0.0549
   20CHL1   H7A 1418   3.835   4.410   9.989  0.5564  0.2802  2.4366
   20CHL1   H7B 1419   3.891   4.239   9.989 -0.1046 -0.4688  2.6065
   20CHL1    C8 1420   3.693   4.250   9.913  0.1642  0.0393 -0.2554
   20CHL1    H8 1421   3.620   4.332   9.895 -2.0597 -1.8495 -0.3933
   20CHL1   C14 1422   3.757   4.223   9.776 -0.0215 -0.2937 -0.2807
   20CHL1   H14 1423   3.839   4.152   9.799 -0.2790 -0.4559  0.1507
   20CHL1   C15 1424   3.827   4.335   9.696  0.8078 -1.2582 -0.2359
   20CHL1  H15A 1425   3.759   4.423   9.692  2.2125 -0.1592 -2.8892
   20CHL1  H15B 1426   3.922   4.349   9.751  0.9607 -2.9394 -0.0421
   20CHL1   C16 1427   3.844   4.273   9.560  0.2043  0.1657 -0.1957
   20CHL1  H16A 1428   3.800   4.337   9.481 -2.0122 -1.6742 -0.5583
   20CHL1  H16B 1429   3.951   4.252   9.536  0.3032  1.0516 -0.5724
   20CHL1   C17 1430   3.769   4.137   9.559 -0.1207 -1.3971  1.1655
   20CHL1   H17 1431   3.838   4.057   9.594 -0.0951 -2.1065 -0.4061
   20CHL1   C13 1432   3.668   4.152   9.677  1.2600  0.5831 -0.1019
   20CHL1   C18 1433   3.547   4.238   9.627  0.0113 -0.3919 -0.2985
   20CHL1  H18A 1434   3.473   4.182   9.566 -2.0857  0.5833  1.2449
   20CHL1  H18B 1435   3.493   4.282   9.713 -2.2764 -0.7426 -1.4879
   20CHL1  H18C 1436   3.574   4.320   9.558 -0.0333 -0.5571 -0.5139
   20CHL1   C12 1437   3.621   4.023   9.741 -0.2176 -0.2082  0.5814
   20CHL1  H12A 1438   3.557   3.958   9.679  0.7848 -3.4368  2.6797
   20CHL1  H12B 1439   3.713   3.966   9.767 -0.9587 -2.2285 -0.9819
   20CHL1   C11 1440   3.538   4.054   9.866 -0.0526 -0.0184  0.1366
   20CHL1  H11A 1441   3.452   4.121   9.844  0.0518 -0.2837 -1.1876
   20CHL1  H11B 1442   3.509   3.960   9.916 -2.9823  1.2334  1.0132
   20CHL1    C9 1443   3.624   4.124   9.971 -0.5482  0.1642  0.1294
   20CHL1    H9 1444   3.703   4.048   9.987  0.8416  1.7007  0.8466
   20CHL1   C10 1445   3.562   4.144  10.114  0.1070 -0.7215 -0.4133
   20CHL1   C19 1446   3.423   4.213  10.098  0.7961 -0.2013  0.5165
   20CHL1  H19A 1447   3.354   4.131  10.068 -1.5212  2.0015 -0.6303
   20CHL1  H19B 1448   3.383   4.254  10.193 -1.9977  0.5592 -0.8705
   20CHL1  H19C 1449   3.425   4.292  10.020 -0.5828 -0.2370  0.4187
   20CHL1    C1 1450   3.549   4.010  10.186 -0.5290  0.5572 -0.1421
   20CHL1   H1A 1451   3.486   3.939  10.128 -1.2995  1.5134 -0.5022
   20CHL1   H1B 1452   3.648   3.961  10.176 -0.5221  0.6001 -0.2811
   20CHL1    C2 1453   3.512   4.004  10.336 -0.0643  0.7584 -0.5045
   20CHL1   H2A 1454   3.536   3.901  10.373 -1.2791  0.9016  0.7588
   20CHL1   H2B 1455   3.403   4.016  10.353  0.4252  0.8169  4.0137
   20CHL1   C20 1456   3.718   4.110   9.422 -0.1455  0.5068  0.6829
   20CHL1   H20 1457   3.630   4.172   9.392 -0.2369  0.5805  1.1061
   20CHL1   C21 1458   3.658   3.964   9.418 -0.4291 -0.6005 -0.4793
   20CHL1  H21A 1459   3.630   3.917   9.321  0.0270  2.1935 -2.0805
   20CHL1  H21B 1460   3.562   3.963   9.473 -1.0933 -0.1049 -1.5966
   20CHL1  H21C 1461   3.730   3.897   9.470 -1.7146  1.0068  3.7737
   20CHL1   C22 1462   3.817   4.133   9.306 -0.1808  1.1280  0.3834
   20CHL1  H22A 1463   3.762   4.106   9.213  1.8015  0.3732 -0.6178
   20CHL1  H22B 1464   3.849   4.238   9.289  1.6921  0.3609 -1.1992
   20CHL1   C23 1465   3.943   4.044   9.319  0.2824 -0.0146  1.1135
   20CHL1  H23A 1466   3.976   4.038   9.425  2.4801  0.6757  0.5302
   20CHL1  H23B 1467   3.911   3.942   9.288  2.7888 -0.5664  0.1061
   20CHL1   C24 1468   4.068   4.094   9.242 -0.5367 -0.4845  0.8265
   20CHL1  H24A 1469   4.104   4.190   9.285 -0.2688  0.2941 -1.0479
   20CHL1  H24B 1470   4.150   4.024   9.270 -0.8516 -0.1750  2.6558
   20CHL1   C25 1471   4.052   4.118   9.089 -0.6508  0.0311 -0.4046
   20CHL1   H25 1472   3.966   4.186   9.071 -2.1415 -2.2541 -2.5623
   20CHL1   C26 1473   4.175   4.178   9.022  0.0009 -0.3141  0.0506
   20CHL1  H26A 1474   4.260   4.107   9.031 -0.7114 -1.1500  0.2311
   20CHL1  H26B 1475   4.159   4.210   8.917  0.4680 -0.5708 -0.1026
   20CHL1  H26C 1476   4.203   4.267   9.083  0.4184  0.6411 -1.4881
   20CHL1   C27 1477   4.022   3.974   9.032  0.5898  0.2859  0.4716
   20CHL1  H27A 1478   4.119   3.924   9.050  0.1484 -1.2245 -1.1160
   20CHL1  H27B 1479   3.938   3.926   9.086  0.5055  0.1748  0.2435
   20CHL1  H27C 1480   3.999   3.975   8.923 -1.6046 -0.3373  0.8842
   21CHL1    C3 1481   3.731   5.961  10.230 -0.3605 -0.4203 -0.4388
   21CHL1    H3 1482   3.642   5.895  10.226 -0.1989 -0.7133  0.5252
   21CHL1    O3 1483   3.730   6.012  10.366  0.1784  0.1936 -0.7086
   21CHL1   H3' 1484   3.808   6.066  10.383 -0.6790  0.8841  1.4207
   21CHL1    C4 1485   3.848   5.850  10.206 -0.4216  0.7751  0.9228
   21CHL1   H4A 1486   3.942   5.897  10.245 -1.3878  1.0104  3.1124
   21CHL1   H4B 1487   3.826   5.762  10.269  1.2095 -0.9926 -0.8332
   21CHL1    C5 1488   3.856   5.808  10.065  0.4218 -0.0982 -0.3671
   21CHL1    C6 1489   3.845   5.678  10.037 -0.6657  0.0748  0.1121
   21CHL1    H6 1490   3.833   5.595  10.107  4.2180 -1.4831 -0.5349
   21CHL1    C7 1491   3.856   5.632   9.895  0.5843 -1.1727  0.8174
   21CHL1   H7A 1492   3.926   5.545   9.891  1.7381 -0.2325 -1.0918
   21CHL1   H7B 1493   3.762   5.584   9.860 -0.8455  0.7730  1.8095
   21CHL1    C8 1494   3.904   5.743   9.791 -0.2906 -0.5255 -0.0488
   21CHL1    H8 1495   4.011   5.764   9.808 -0.7622  1.7696  0.4089
   21CHL1   C14 1496   3.879   5.693   9.647  0.0069 -0.0378 -0.4350
   21CHL1   H14 1497   3.769   5.684   9.634  0.1172 -0.8950 -0.7933
   21CHL1   C15 1498   3.939   5.562   9.603 -0.2375  0.2688 -0.1747
   21CHL1  H15A 1499   4.045   5.550   9.633 -0.5499 -2.0887  0.1846
   21CHL1  H15B 1500   3.885   5.473   9.642 -1.1099  0.2606 -1.3477
   21CHL1   C16 1501   3.932   5.568   9.448  0.5462 -0.3252  0.6400
   21CHL1  H16A 1502   4.019   5.518   9.399 -0.8248 -0.6074 -1.6558
   21CHL1  H16B 1503   3.840   5.517   9.415  0.0507  1.0081 -0.1317
   21CHL1   C17 1504   3.911   5.720   9.406  0.4658  0.4079  0.2069
   21CHL1   H17 1505   3.806   5.730   9.372  0.2025  1.0504  1.1610
   21CHL1   C13 1506   3.932   5.796   9.545  0.2806  0.0770  0.4226
   21CHL1   C18 1507   4.090   5.812   9.549  0.9620  0.3280 -0.1382
   21CHL1  H18A 1508   4.135   5.711   9.538  0.9201  0.3783 -0.8105
   21CHL1  H18B 1509   4.120   5.874   9.462  0.1153  2.1229  0.8034
   21CHL1  H18C 1510   4.121   5.856   9.647  0.4902  0.2977  0.0285
   21CHL1   C12 1511   3.861   5.925   9.557  0.4262  0.0208 -0.2106
   21CHL1  H12A 1512   3.911   6.004   9.496  0.8342  0.4597  0.6715
   21CHL1  H12B 1513   3.754   5.918   9.528  0.1298  3.1283 -0.2072
   21CHL1   C11 1514   3.876   5.984   9.701  0.0916 -0.3203  0.0975
   21CHL1  H11A 1515   3.977   6.027   9.720 -0.4093  0.8433  0.2250
   21CHL1  H11B 1516   3.803   6.067   9.708 -1.9023 -2.0892  1.8138
   21CHL1    C9 1517   3.838   5.884   9.815  0.0157 -0.4637 -0.8024
   21CHL1    H9 1518   3.730   5.859   9.802  0.5137 -2.3648 -1.4730
   21CHL1   C10 1519   3.868   5.925   9.961 -0.5707 -0.8778 -0.2706
   21CHL1   C19 1520   4.005   5.995   9.975 -0.2724  0.7943  1.1042
   21CHL1  H19A 1521   4.030   6.023  10.080 -0.3318 -1.6367  1.8123
   21CHL1  H19B 1522   4.083   5.917   9.965  0.2587  1.4148  0.2788
   21CHL1  H19C 1523   4.025   6.082   9.908  0.2361 -1.2394 -1.5521
   21CHL1    C1 1524   3.757   6.035   9.989  0.2151 -0.1433  0.6878
   21CHL1   H1A 1525   3.773   6.115   9.914 -1.0256 -0.3493  0.1720
   21CHL1   H1B 1526   3.655   5.999   9.962  0.4896  0.1441 -0.7663
   21CHL1    C2 1527   3.759   6.078  10.139 -0.4294 -0.5005 -0.0702
   21CHL1   H2A 1528   3.678   6.152  10.156 -0.9591 -1.8224  4.3068
   21CHL1   H2B 1529   3.857   6.124  10.165 -0.1033 -0.8904 -0.5657
   21CHL1   C20 1530   3.995   5.756   9.277 -0.4514 -0.2222 -0.3417
   21CHL1   H20 1531   4.104   5.746   9.299 -1.1137 -0.2123  3.7877
   21CHL1   C21 1532   3.962   5.898   9.239  0.3812 -0.5542  1.0754
   21CHL1  H21A 1533   3.987   5.970   9.319 -2.1504  1.0178  0.5502
   21CHL1  H21B 1534   3.860   5.917   9.198  1.1451  0.9360 -0.2316
   21CHL1  H21C 1535   4.016   5.915   9.144 -0.3475 -0.0625  0.7403
   21CHL1   C22 1536   3.972   5.655   9.163 -0.5925 -0.1294 -0.0834
   21CHL1  H22A 1537   4.036   5.692   9.080  1.4733  1.0358  1.9219
   21CHL1  H22B 1538   4.012   5.559   9.200 -0.2382  0.5859  1.4970
   21CHL1   C23 1539   3.826   5.659   9.107  0.0031  0.0209 -0.7194
   21CHL1  H23A 1540   3.759   5.632   9.191  1.7845 -0.8559  0.4920
   21CHL1  H23B 1541   3.796   5.764   9.085  0.1832  0.9733  2.9476
   21CHL1   C24 1542   3.794   5.567   8.984 -0.0641 -0.5611 -0.0341
   21CHL1  H24A 1543   3.771   5.463   9.017  0.2047 -0.5334  0.2478
   21CHL1  H24B 1544   3.695   5.602   8.947 -0.4828 -0.4818  1.1165
   21CHL1   C25 1545   3.888   5.560   8.861 -0.7893 -0.0406 -0.5731
   21CHL1   H25 1546   3.991   5.552   8.901 -0.1814  0.0984 -2.0538
   21CHL1   C26 1547   3.859   5.438   8.774 -0.1455  0.0989  0.1275
   21CHL1  H26A 1548   3.846   5.341   8.827 -0.9614  0.6092  0.8738
   21CHL1  H26B 1549   3.760   5.449   8.725  0.5909 -0.6236 -1.6399
   21CHL1  H26C 1550   3.938   5.427   8.696  0.4037  2.3436  0.3101
   21CHL1   C27 1551   3.892   5.699   8.779 -0.7777 -0.4349  0.8403
   21CHL1  H27A 1552   3.795   5.744   8.751 -0.9302 -0.6286  1.0499
   21CHL1  H27B 1553   3.939   5.773   8.847 -1.4355  1.3595 -0.5788
   21CHL1  H27C 1554   3.953   5.699   8.687 -0.3053 -0.2772  1.1495
   22CHL1    C3 1555   5.190   1.988   9.832  0.4889 -0.4872  0.7261
   22CHL1    H3 1556   5.271   2.060   9.807  1.5281 -0.7999  2.9361
   22CHL1    O3 1557   5.160   2.002   9.963 -0.1801  0.3330 -0.8582
   22CHL1   H3' 1558   5.239   1.993  10.018  0.5307 -0.2962 -1.9427
   22CHL1    C4 1559   5.065   2.028   9.752  0.7264 -0.4133 -0.2930
   22CHL1   H4A 1560   4.979   1.969   9.791 -2.1330  3.9563  0.8314
   22CHL1   H4B 1561   5.026   2.127   9.784  1.7764  0.4487 -1.5757
   22CHL1    C5 1562   5.060   2.011   9.602  0.0330  0.0363 -0.3931
   22CHL1    C6 1563   5.024   2.109   9.518 -0.3381  0.0991 -0.0367
   22CHL1    H6 1564   4.995   2.206   9.561 -1.7468  0.7316 -2.2292
   22CHL1    C7 1565   5.009   2.098   9.367 -0.5578 -0.4025 -1.3538
   22CHL1   H7A 1566   4.907   2.119   9.329 -0.9844 -0.4752 -0.2947
   22CHL1   H7B 1567   5.078   2.170   9.318  0.3220 -0.1389  0.2284
   22CHL1    C8 1568   5.027   1.945   9.324 -0.3524 -0.4279  0.4810
   22CHL1    H8 1569   4.925   1.901   9.333 -0.9434  0.3575 -1.8031
   22CHL1   C14 1570   5.075   1.945   9.177 -0.9917 -0.0312 -0.6983
   22CHL1   H14 1571   5.171   2.001   9.178 -0.4020 -0.9693  1.5337
   22CHL1   C15 1572   4.995   2.025   9.080 -0.7180  0.3443  0.6304
   22CHL1  H15A 1573   4.886   2.003   9.088 -0.4243 -1.0353  0.9380
   22CHL1  H15B 1574   5.017   2.133   9.094 -1.6020  0.7327 -0.7435
   22CHL1   C16 1575   5.040   1.975   8.942  0.2797  0.2687  0.4358
   22CHL1  H16A 1576   4.956   1.960   8.871  0.4185 -0.2970  0.3888
   22CHL1  H16B 1577   5.099   2.056   8.893 -0.9855  1.2044  0.4273
   22CHL1   C17 1578   5.122   1.843   8.966 -0.3564  0.0920 -1.2057
   22CHL1   H17 1579   5.230   1.867   8.972 -0.2522 -0.6938  3.0916
   22CHL1   C13 1580   5.087   1.804   9.111  0.4801 -0.0382 -0.2770
   22CHL1   C18 1581   4.944   1.726   9.116 -0.4034 -0.0208  0.1831
   22CHL1  H18A 1582   4.957   1.625   9.071 -0.3558  0.2062 -0.3215
   22CHL1  H18B 1583   4.906   1.714   9.219 -0.4865 -2.6475 -0.0812
   22CHL1  H18C 1584   4.869   1.788   9.062 -0.9389  0.3796  1.3526
   22CHL1   C12 1585   5.201   1.729   9.186  0.1850 -0.2047  0.2088
   22CHL1  H12A 1586   5.193   1.626   9.144 -0.8368  0.7045 -1.9729
   22CHL1  H12B 1587   5.303   1.766   9.167  1.0398 -2.5590 -0.1114
   22CHL1   C11 1588   5.178   1.730   9.342 -0.5375 -0.8351 -0.4596
   22CHL1  H11A 1589   5.089   1.667   9.367 -1.1073  0.2419  0.3064
   22CHL1  H11B 1590   5.272   1.694   9.390  0.2078  4.1545  2.5542
   22CHL1    C9 1591   5.134   1.867   9.402 -0.0113  0.5059 -0.3248
   22CHL1    H9 1592   5.223   1.931   9.382  0.9064 -1.5634 -3.7001
   22CHL1   C10 1593   5.108   1.871   9.555 -0.4460  0.0582  0.9672
   22CHL1   C19 1594   4.993   1.768   9.578 -0.4577  0.1447  0.0247
   22CHL1  H19A 1595   4.915   1.783   9.500  0.0301  0.3765 -0.4277
   22CHL1  H19B 1596   5.033   1.665   9.571 -0.1357  0.2673  0.0718
   22CHL1  H19C 1597   4.951   1.772   9.680 -3.8373  1.5468 -1.2806
   22CHL1    C1 1598   5.239   1.832   9.631 -0.2333  0.8179 -0.1266
   22CHL1   H1A 1599   5.276   1.730   9.607 -0.0754  1.2202 -1.6979
   22CHL1   H1B 1600   5.312   1.903   9.587  0.8423 -2.4543 -4.3000
   22CHL1    C2 1601   5.237   1.852   9.788  0.3307 -0.2232 -0.0925
   22CHL1   H2A 1602   5.339   1.840   9.830 -0.0568  0.7770  1.1728
   22CHL1   H2B 1603   5.180   1.767   9.831 -0.3411 -0.5269 -1.5106
   22CHL1   C20 1604   5.107   1.733   8.857  0.1381  0.5418  0.0873
   22CHL1   H20 1605   4.999   1.706   8.857 -0.2855  2.0735  1.1899
   22CHL1   C21 1606   5.194   1.608   8.877  0.0282  0.5410  0.0926
   22CHL1  H21A 1607   5.297   1.641   8.907 -1.2446  3.0007  2.2018
   22CHL1  H21B 1608   5.195   1.553   8.780 -1.9942  0.3535  0.1514
   22CHL1  H21C 1609   5.152   1.537   8.951  2.4952 -0.5547  0.5611
   22CHL1   C22 1610   5.123   1.786   8.717  0.0579 -0.2135  0.1272
   22CHL1  H22A 1611   5.107   1.700   8.650 -0.0524 -0.9946  1.1281
   22CHL1  H22B 1612   5.036   1.853   8.701  0.1485  0.0461  0.6836
   22CHL1   C23 1613   5.268   1.832   8.689  0.1860  0.0032  0.3407
   22CHL1  H23A 1614   5.295   1.917   8.756  1.8609  0.4704 -0.8501
   22CHL1  H23B 1615   5.342   1.750   8.705  0.5256  0.3963  0.8074
   22CHL1   C24 1616   5.277   1.874   8.547 -0.6899 -0.9199  1.1063
   22CHL1  H24A 1617   5.212   1.814   8.480 -1.1567 -0.7414  1.3947
   22CHL1  H24B 1618   5.216   1.967   8.546 -0.3941 -0.7308  0.4922
   22CHL1   C25 1619   5.416   1.902   8.490  0.2400 -0.2325  0.3768
   22CHL1   H25 1620   5.477   1.812   8.516 -0.6473 -0.9389  0.0857
   22CHL1   C26 1621   5.421   1.913   8.334  0.7026  0.2865  0.4948
   22CHL1  H26A 1622   5.386   1.820   8.284 -2.0213  1.5496 -0.1180
   22CHL1  H26B 1623   5.349   1.989   8.298  0.8017  0.1734  0.0474
   22CHL1  H26C 1624   5.520   1.923   8.284 -0.7261  0.1729 -2.5980
   22CHL1   C27 1625   5.466   2.026   8.557 -0.2814 -0.7298  0.4103
   22CHL1  H27A 1626   5.575   2.034   8.536  0.0474  0.1883  2.2128
   22CHL1  H27B 1627   5.406   2.109   8.513  0.2577 -0.7372 -0.3357
   22CHL1  H27C 1628   5.451   2.026   8.668 -0.3967 -0.2773  0.3991
   23CHL1    C3 1629   2.299   1.942  10.503 -0.4032  0.2611 -0.7302
   23CHL1    H3 1630   2.229   2.027  10.516 -1.0460 -0.3895  0.1222
   23CHL1    O3 1631   2.375   1.912  10.619  0.0159 -0.8276  0.1387
   23CHL1   H3' 1632   2.429   1.836  10.597  1.7221  0.6256 -0.9726
   23CHL1    C4 1633   2.227   1.819  10.466  0.4662 -0.2988 -0.8377
   23CHL1   H4A 1634   2.293   1.730  10.472  0.6353 -0.1450 -0.2899
   23CHL1   H4B 1635   2.154   1.807  10.549 -0.2702 -0.6149 -1.5248
   23CHL1    C5 1636   2.154   1.812  10.335  0.1184  0.8915 -0.3971
   23CHL1    C6 1637   2.021   1.788  10.326 -0.1811 -0.5495 -0.1492
   23CHL1    H6 1638   1.964   1.755  10.414 -1.9783 -1.2356 -1.5181
   23CHL1    C7 1639   1.943   1.781  10.195 -1.0941 -0.0194 -0.5252
   23CHL1   H7A 1640   1.878   1.692  10.185 -0.8809 -0.1309 -0.9615
   23CHL1   H7B 1641   1.870   1.864  10.193 -0.9434  0.2361  1.8947
   23CHL1    C8 1642   2.043   1.798  10.069 -0.5443 -0.1931 -0.0794
   23CHL1    H8 1643   2.079   1.699  10.032  0.9475  0.4771 -0.4846
   23CHL1   C14 1644   1.963   1.844   9.946  0.8545 -0.2454 -0.4877
   23CHL1   H14 1645   1.926   1.946   9.969  0.8558 -0.1578 -0.8523
   23CHL1   C15 1646   1.835   1.758   9.915  0.9276 -0.1331  0.5879
   23CHL1  H15A 1647   1.853   1.650   9.933  1.0074 -0.4501 -1.1504
   23CHL1  H15B 1648   1.747   1.799   9.967  0.2427 -0.2853 -0.4112
   23CHL1   C16 1649   1.813   1.788   9.765  0.1738 -0.3311  0.4297
   23CHL1  H16A 1650   1.813   1.698   9.700 -0.7871 -0.1502  0.1547
   23CHL1  H16B 1651   1.711   1.831   9.750  1.4522  3.0340  0.5879
   23CHL1   C17 1652   1.914   1.893   9.717  0.3472 -0.1843 -0.1316
   23CHL1   H17 1653   1.867   1.990   9.746 -0.4755  0.1024 -2.2532
   23CHL1   C13 1654   2.036   1.869   9.811 -0.8963  0.3479 -0.2243
   23CHL1   C18 1655   2.097   1.731   9.764  0.5079 -0.9380 -0.5858
   23CHL1  H18A 1656   2.167   1.690   9.840  1.6214  0.4004 -0.8557
   23CHL1  H18B 1657   2.020   1.653   9.743 -3.0856  1.1342  3.3274
   23CHL1  H18C 1658   2.146   1.746   9.665  0.2586  0.1121 -0.5583
   23CHL1   C12 1659   2.132   1.981   9.846  0.1387  0.6725  0.0270
   23CHL1  H12A 1660   2.187   1.997   9.751 -0.7077  1.4828 -0.3353
   23CHL1  H12B 1661   2.070   2.071   9.866 -2.8048 -1.4227  1.1305
   23CHL1   C11 1662   2.224   1.959   9.965 -0.3838  0.2467 -0.5724
   23CHL1  H11A 1663   2.295   1.881   9.933  0.4206  1.4611 -1.8709
   23CHL1  H11B 1664   2.280   2.049   9.999  0.1154 -0.8938  1.7991
   23CHL1    C9 1665   2.150   1.908  10.096  0.4010 -0.2507 -0.3566
   23CHL1    H9 1666   2.087   1.996  10.122 -0.3718 -0.9869  0.3598
   23CHL1   C10 1667   2.242   1.865  10.213 -0.0026  0.0495 -0.2685
   23CHL1   C19 1668   2.345   1.755  10.183  0.1329 -0.8228  0.9876
   23CHL1  H19A 1669   2.303   1.672  10.123  0.9262  0.6184 -1.7503
   23CHL1  H19B 1670   2.415   1.798  10.108  0.0234 -1.4571  0.5217
   23CHL1  H19C 1671   2.402   1.717  10.271 -1.0512 -1.1749  1.6298
   23CHL1    C1 1672   2.322   1.994  10.263 -0.5356  0.2630 -0.0086
   23CHL1   H1A 1673   2.391   2.029  10.184  0.0864 -1.4944 -0.2915
   23CHL1   H1B 1674   2.245   2.074  10.274 -0.9520 -0.3299  1.7159
   23CHL1    C2 1675   2.403   1.973  10.391  0.6857 -0.7273 -0.1529
   23CHL1   H2A 1676   2.454   2.067  10.422 -2.3079  1.5921 -1.6163
   23CHL1   H2B 1677   2.487   1.902  10.382  0.1616 -1.2814 -0.7829
   23CHL1   C20 1678   1.945   1.896   9.564  0.2473 -0.4745  0.3233
   23CHL1   H20 1679   2.011   1.809   9.545  1.4634  0.5907 -0.5368
   23CHL1   C21 1680   2.013   2.023   9.524 -0.3349 -0.1389  0.1330
   23CHL1  H21A 1681   2.112   2.022   9.575  0.4613 -0.2738 -1.3439
   23CHL1  H21B 1682   1.960   2.108   9.573 -2.0555 -1.1370  0.0790
   23CHL1  H21C 1683   2.023   2.040   9.415  1.7438 -2.7480 -0.1937
   23CHL1   C22 1684   1.826   1.866   9.470  0.1214  0.2527  0.5510
   23CHL1  H22A 1685   1.788   1.765   9.494  0.9430 -0.1348  0.2731
   23CHL1  H22B 1686   1.758   1.953   9.478 -0.4053 -0.0941 -0.0483
   23CHL1   C23 1687   1.859   1.852   9.315  0.4330  0.3864 -0.4343
   23CHL1  H23A 1688   1.910   1.940   9.271  0.6013  0.6108  0.1975
   23CHL1  H23B 1689   1.940   1.776   9.314 -1.7087 -2.0740 -0.4484
   23CHL1   C24 1690   1.735   1.806   9.239  0.0832 -0.0866  0.6375
   23CHL1  H24A 1691   1.730   1.698   9.265  2.5427  0.0632  2.0326
   23CHL1  H24B 1692   1.647   1.859   9.281 -0.3104  1.3526 -1.8175
   23CHL1   C25 1693   1.748   1.828   9.081  0.0625 -0.1293  0.1561
   23CHL1   H25 1694   1.712   1.928   9.048 -0.7917 -0.6232 -0.4663
   23CHL1   C26 1695   1.883   1.813   9.017  0.2389 -0.7200 -0.0431
   23CHL1  H26A 1696   1.955   1.892   9.048 -1.3647  0.0457  1.9878
   23CHL1  H26B 1697   1.915   1.707   9.024 -0.3111 -0.8004  1.6753
   23CHL1  H26C 1698   1.873   1.827   8.907 -2.7956  1.4235  0.3878
   23CHL1   C27 1699   1.655   1.731   9.008 -0.0076 -0.2316  0.7257
   23CHL1  H27A 1700   1.548   1.750   9.030  0.2540 -0.3285  2.1670
   23CHL1  H27B 1701   1.666   1.735   8.898  0.5407 -1.9096  0.6804
   23CHL1  H27C 1702   1.683   1.627   9.035 -1.6059 -0.6137  1.0393
   24CHL1    C3 1703   2.193   4.930  10.454  0.0776 -0.4156 -1.1442
   24CHL1    H3 1704   2.083   4.923  10.438 -0.1785  1.6731 -0.6184
   24CHL1    O3 1705   2.225   4.963  10.587 -0.3477  0.6029  0.1093
   24CHL1   H3' 1706   2.204   5.057  10.593  0.6618  0.8329  0.2111
   24CHL1    C4 1707   2.239   4.784  10.420 -0.0435 -0.6194  0.5614
   24CHL1   H4A 1708   2.350   4.787  10.424 -0.0625  0.5694  0.7099
   24CHL1   H4B 1709   2.192   4.705  10.482  2.2206 -0.5420  2.5233
   24CHL1    C5 1710   2.210   4.758  10.274 -0.5019 -0.3577 -0.1293
   24CHL1    C6 1711   2.145   4.650  10.234 -0.4359  0.4310 -0.5927
   24CHL1    H6 1712   2.096   4.586  10.309  3.4779  0.5685  2.4101
   24CHL1    C7 1713   2.135   4.607  10.089  0.0796  0.2017 -0.5155
   24CHL1   H7A 1714   2.176   4.506  10.067  1.0172  0.6701 -0.9691
   24CHL1   H7B 1715   2.034   4.607  10.042  0.5070  2.1257 -1.5685
   24CHL1    C8 1716   2.225   4.689  10.002  0.0483  0.7845  0.1860
   24CHL1    H8 1717   2.330   4.653   9.997  0.0692  0.8038  0.4545
   24CHL1   C14 1718   2.176   4.672   9.854 -0.1378 -0.0977  0.7268
   24CHL1   H14 1719   2.079   4.725   9.856  1.1488  2.3957  0.3876
   24CHL1   C15 1720   2.156   4.533   9.794 -0.4085 -0.5121  0.5238
   24CHL1  H15A 1721   2.239   4.460   9.804 -0.4761 -0.7436 -0.4834
   24CHL1  H15B 1722   2.067   4.478   9.832 -1.5854  0.1534 -1.1233
   24CHL1   C16 1723   2.142   4.553   9.632  0.1558 -0.3966 -0.5119
   24CHL1  H16A 1724   2.215   4.493   9.575 -0.2650 -1.0353 -0.3951
   24CHL1  H16B 1725   2.033   4.540   9.611  0.0176 -0.6813  0.3348
   24CHL1   C17 1726   2.178   4.706   9.613  0.2133 -0.1053 -0.4700
   24CHL1   H17 1727   2.079   4.756   9.609  0.2206 -0.1004 -0.5859
   24CHL1   C13 1728   2.249   4.751   9.745  0.0501 -1.0680  0.2955
   24CHL1   C18 1729   2.401   4.712   9.720 -0.2483  0.1476 -0.0293
   24CHL1  H18A 1730   2.451   4.706   9.820 -1.3670 -3.3385  0.4554
   24CHL1  H18B 1731   2.420   4.605   9.694  1.7724  0.4450  0.0620
   24CHL1  H18C 1732   2.454   4.784   9.654  0.0303  0.8038  0.8868
   24CHL1   C12 1733   2.248   4.902   9.776 -0.3992 -0.7502  0.2594
   24CHL1  H12A 1734   2.314   4.959   9.707 -0.7750 -0.9702 -0.2912
   24CHL1  H12B 1735   2.146   4.942   9.754 -0.0175 -0.3811 -0.9245
   24CHL1   C11 1736   2.285   4.932   9.926  0.6442  0.0918 -0.2733
   24CHL1  H11A 1737   2.393   4.910   9.936  0.1754 -2.5852 -0.2905
   24CHL1  H11B 1738   2.260   5.037   9.952 -0.9803 -0.3760  0.1869
   24CHL1    C9 1739   2.216   4.837  10.026  0.3058 -0.3783  0.1170
   24CHL1    H9 1740   2.109   4.865  10.034  0.7059  1.9915 -1.5881
   24CHL1   C10 1741   2.276   4.852  10.170 -0.0639 -0.4060  0.4193
   24CHL1   C19 1742   2.427   4.826  10.174 -0.1984 -0.1796  0.5502
   24CHL1  H19A 1743   2.473   4.839  10.274 -1.4154 -0.2967  1.1458
   24CHL1  H19B 1744   2.464   4.729  10.135 -1.1203 -0.5197  0.4952
   24CHL1  H19C 1745   2.484   4.901  10.114 -0.0467  0.7975  1.8843
   24CHL1    C1 1746   2.253   4.998  10.219  0.5334  0.8372  0.5028
   24CHL1   H1A 1747   2.312   5.075  10.166  1.4164  0.0689  0.3485
   24CHL1   H1B 1748   2.144   5.010  10.200 -0.0338 -0.4423  2.6398
   24CHL1    C2 1749   2.275   5.024  10.368  0.4468  0.7496  0.8607
   24CHL1   H2A 1750   2.238   5.127  10.385  0.6372  0.8529  0.6655
   24CHL1   H2B 1751   2.381   5.036  10.397  0.8766  0.2538 -0.4051
   24CHL1   C20 1752   2.246   4.733   9.478 -0.4573 -1.2606 -0.4273
   24CHL1   H20 1753   2.349   4.693   9.481  0.5684  1.2000 -0.0770
   24CHL1   C21 1754   2.244   4.889   9.434  0.5713  0.1418 -0.4235
   24CHL1  H21A 1755   2.297   4.958   9.504  1.5523  0.8760 -1.8316
   24CHL1  H21B 1756   2.137   4.917   9.420  0.7753  0.8058 -0.7187
   24CHL1  H21C 1757   2.301   4.895   9.339  1.0805 -3.8672 -0.5570
   24CHL1   C22 1758   2.184   4.664   9.355 -0.4510  0.6731  1.2367
   24CHL1  H22A 1759   2.242   4.695   9.266 -0.5710 -2.0119  0.1321
   24CHL1  H22B 1760   2.202   4.555   9.364 -0.9612  0.5859  1.2301
   24CHL1   C23 1761   2.033   4.669   9.329 -0.4588  0.4044  0.5559
   24CHL1  H23A 1762   1.973   4.605   9.398 -0.9444 -0.6255 -0.7772
   24CHL1  H23B 1763   1.993   4.772   9.337  1.2474  1.2160 -0.8052
   24CHL1   C24 1764   1.993   4.609   9.197 -0.5164 -0.0503 -0.0653
   24CHL1  H24A 1765   2.032   4.669   9.111  0.1414  0.6855  0.7230
   24CHL1  H24B 1766   2.035   4.508   9.175 -0.8321 -0.2033  0.0372
   24CHL1   C25 1767   1.838   4.598   9.176 -0.8757  0.8731  0.3529
   24CHL1   H25 1768   1.795   4.529   9.252 -2.2306  0.5146 -0.7040
   24CHL1   C26 1769   1.774   4.729   9.186 -0.4250  0.0256 -0.3834
   24CHL1  H26A 1770   1.823   4.816   9.138 -0.3002 -0.9055 -1.9896
   24CHL1  H26B 1771   1.688   4.722   9.117 -2.2736 -0.9829  1.8891
   24CHL1  H26C 1772   1.755   4.763   9.290  0.5964  1.5738 -0.6702
   24CHL1   C27 1773   1.822   4.537   9.031  0.1503 -0.0163  0.5545
   24CHL1  H27A 1774   1.713   4.518   9.023  0.3196 -0.7321 -0.0961
   24CHL1  H27B 1775   1.843   4.618   8.958 -1.7883 -0.7705 -0.9102
   24CHL1  H27C 1776   1.880   4.448   9.000  2.0337  0.5433  2.2403
   25CHL1    C3 1777   3.968   5.304  10.241  0.0550  0.2714  0.0149
   25CHL1    H3 1778   3.867   5.318  10.198  0.3315  1.4583 -0.2842
   25CHL1    O3 1779   3.965   5.370  10.367 -0.5497 -0.2183  0.5181
   25CHL1   H3' 1780   3.981   5.460  10.338 -2.1775 -0.3645 -1.0494
   25CHL1    C4 1781   4.002   5.157  10.271  0.1349  0.2809  0.1960
   25CHL1   H4A 1782   4.100   5.163  10.322 -0.5151  0.4876  1.4849
   25CHL1   H4B 1783   3.921   5.118  10.337 -1.5194  0.8284 -1.4238
   25CHL1    C5 1784   4.004   5.076  10.140  0.3899 -0.0937 -0.0423
   25CHL1    C6 1785   3.931   4.960  10.121  0.2082 -0.0396 -0.3218
   25CHL1    H6 1786   3.873   4.915  10.203  0.5753 -0.1234 -0.1043
   25CHL1    C7 1787   3.940   4.874   9.998  0.1338 -0.1641  0.5904
   25CHL1   H7A 1788   3.956   4.766  10.020 -3.7283 -1.6697 -2.7641
   25CHL1   H7B 1789   3.842   4.873   9.947 -0.9890 -0.1908  2.6563
   25CHL1    C8 1790   4.057   4.905   9.901 -0.0366 -0.2046 -0.3244
   25CHL1    H8 1791   4.149   4.876   9.956  0.7283  0.2992 -1.3167
   25CHL1   C14 1792   4.038   4.840   9.764 -0.5158  0.8851 -0.3272
   25CHL1   H14 1793   3.944   4.884   9.723 -2.1689 -2.0441  0.0290
   25CHL1   C15 1794   4.022   4.692   9.774  0.0584  0.2777 -0.1089
   25CHL1  H15A 1795   4.104   4.656   9.840  0.8887  1.6510 -0.3753
   25CHL1  H15B 1796   3.922   4.657   9.810  0.3252  1.5396  2.0475
   25CHL1   C16 1797   4.061   4.643   9.626 -0.1350 -0.6250 -0.0672
   25CHL1  H16A 1798   4.147   4.575   9.641  2.1794  1.2310 -3.6634
   25CHL1  H16B 1799   3.973   4.595   9.579 -2.9060  1.4688  2.5399
   25CHL1   C17 1800   4.106   4.767   9.547  0.8438  0.3413 -0.0815
   25CHL1   H17 1801   4.018   4.811   9.494  1.9523  1.6795 -0.8762
   25CHL1   C13 1802   4.149   4.866   9.661 -0.5489 -0.0496 -0.3898
   25CHL1   C18 1803   4.288   4.826   9.722 -0.3349  0.2750 -0.1506
   25CHL1  H18A 1804   4.380   4.861   9.670 -0.9192  0.2464 -1.2305
   25CHL1  H18B 1805   4.293   4.861   9.827 -0.0218  1.1318 -0.4416
   25CHL1  H18C 1806   4.299   4.715   9.729  1.7020  0.4865  0.9428
   25CHL1   C12 1807   4.133   5.020   9.633  0.4391  0.1263 -0.2801
   25CHL1  H12A 1808   4.215   5.063   9.572  0.9679 -1.5839 -0.8194
   25CHL1  H12B 1809   4.035   5.029   9.581  0.3296  0.2199 -0.0595
   25CHL1   C11 1810   4.153   5.095   9.770  0.3144 -0.6208 -0.7423
   25CHL1  H11A 1811   4.259   5.080   9.797 -0.1066  0.2537  1.6999
   25CHL1  H11B 1812   4.158   5.204   9.748 -1.1662 -0.0094  1.5359
   25CHL1    C9 1813   4.061   5.058   9.893  0.0974  0.3596 -0.3011
   25CHL1    H9 1814   3.958   5.089   9.866  0.5394  0.5575 -1.8230
   25CHL1   C10 1815   4.090   5.127  10.032  0.4494  0.4770  0.2789
   25CHL1   C19 1816   4.231   5.106  10.082 -0.2353  0.0528 -0.2438
   25CHL1  H19A 1817   4.267   5.146  10.180  2.1203  0.5088 -1.2210
   25CHL1  H19B 1818   4.239   4.996  10.098  0.1063  0.2109  0.7809
   25CHL1  H19C 1819   4.300   5.136  10.000 -1.9942  2.3607 -0.9836
   25CHL1    C1 1820   4.062   5.284  10.009  0.0127 -0.5505 -0.5091
   25CHL1   H1A 1821   4.139   5.317   9.936  0.5957  0.1109  0.3812
   25CHL1   H1B 1822   3.964   5.302   9.960 -0.4093 -1.1635  0.0863
   25CHL1    C2 1823   4.063   5.371  10.135 -0.1744 -0.0590  0.0346
   25CHL1   H2A 1824   4.031   5.477  10.129  1.5488  0.6218  1.7115
   25CHL1   H2B 1825   4.166   5.378  10.176 -0.1050  2.2300 -0.4022
   25CHL1   C20 1826   4.205   4.731   9.439  0.1414  0.1551 -0.4210
   25CHL1   H20 1827   4.299   4.697   9.488  0.1142  1.9631  0.9848
   25CHL1   C21 1828   4.242   4.862   9.361 -0.5149  0.3959  0.3354
   25CHL1  H21A 1829   4.296   4.931   9.429 -0.2595  1.2934 -0.7441
   25CHL1  H21B 1830   4.147   4.917   9.343 -0.0408  0.8285 -0.9944
   25CHL1  H21C 1831   4.300   4.848   9.267 -1.8127 -1.1831 -0.2879
   25CHL1   C22 1832   4.154   4.626   9.335  0.2001  0.5841 -0.4099
   25CHL1  H22A 1833   4.237   4.606   9.265 -0.7598 -1.1569 -1.1240
   25CHL1  H22B 1834   4.116   4.529   9.375  1.6655  0.4102  0.6250
   25CHL1   C23 1835   4.035   4.675   9.243  0.1104  0.0386  0.0544
   25CHL1  H23A 1836   3.952   4.721   9.299 -0.6215 -0.4689 -0.5953
   25CHL1  H23B 1837   4.069   4.761   9.181 -1.4350 -0.3814 -1.4287
   25CHL1   C24 1838   3.972   4.567   9.165 -0.2011  0.3994  0.3572
   25CHL1  H24A 1839   4.033   4.480   9.132  0.2805  0.9889 -0.3249
   25CHL1  H24B 1840   3.901   4.518   9.235 -0.4943 -1.0537 -0.9055
   25CHL1   C25 1841   3.897   4.600   9.036 -0.0098  0.4878  0.0422
   25CHL1   H25 1842   3.835   4.690   9.058 -0.2832 -0.0457  1.6269
   25CHL1   C26 1843   4.002   4.630   8.925  0.5507 -0.5901  0.2422
   25CHL1  H26A 1844   4.064   4.718   8.949 -2.1522  0.9942  1.9265
   25CHL1  H26B 1845   4.058   4.536   8.906 -0.2092 -0.8350 -0.9034
   25CHL1  H26C 1846   3.946   4.662   8.834 -0.3588  0.9327  1.3005
   25CHL1   C27 1847   3.813   4.488   8.998  0.3684 -0.1046  0.1798
   25CHL1  H27A 1848   3.724   4.483   9.065  1.0258 -0.3659  1.0585
   25CHL1  H27B 1849   3.785   4.507   8.892 -2.2846  0.3373  0.8981
   25CHL1  H27C 1850   3.868   4.391   9.004 -0.6484 -0.9573 -2.5030
   26CHL1    C3 1851   5.127   1.257   9.826  0.2790 -0.8417  0.0314
   26CHL1    H3 1852   5.206   1.329   9.794  0.7574 -1.1475  0.5087
   26CHL1    O3 1853   5.131   1.275   9.968 -0.4708  0.4800 -0.4215
   26CHL1   H3' 1854   5.104   1.193  10.011  1.0760  0.8041  1.2524
   26CHL1    C4 1855   4.996   1.312   9.774  0.4737  0.2412 -0.0133
   26CHL1   H4A 1856   4.917   1.251   9.822  0.2626  2.1394  2.2142
   26CHL1   H4B 1857   4.988   1.417   9.810 -0.7845 -0.2017  1.0767
   26CHL1    C5 1858   4.981   1.295   9.624 -0.1243  0.1442 -0.2795
   26CHL1    C6 1859   4.935   1.396   9.547  0.3413  0.0920  0.2428
   26CHL1    H6 1860   4.903   1.491   9.592 -1.0568 -1.0546  1.7754
   26CHL1    C7 1861   4.916   1.382   9.405  0.5528 -0.2303  0.3116
   26CHL1   H7A 1862   4.825   1.437   9.375 -0.7004 -3.4305 -2.3720
   26CHL1   H7B 1863   5.003   1.419   9.346  0.4924  0.9796  0.9459
   26CHL1    C8 1864   4.900   1.230   9.356 -0.1204 -0.1149 -1.4200
   26CHL1    H8 1865   4.805   1.199   9.406  0.6176 -0.0541  0.0676
   26CHL1   C14 1866   4.898   1.212   9.207 -0.3430  0.3269 -0.2864
   26CHL1   H14 1867   4.992   1.253   9.166 -0.7951 -0.1478 -1.8521
   26CHL1   C15 1868   4.803   1.300   9.129 -0.6786  0.0857  0.2636
   26CHL1  H15A 1869   4.704   1.289   9.178 -0.1295 -0.4248  1.2928
   26CHL1  H15B 1870   4.844   1.403   9.127 -0.2327 -0.0921  0.2616
   26CHL1   C16 1871   4.798   1.227   8.990 -0.1046  0.2532 -0.3204
   26CHL1  H16A 1872   4.691   1.208   8.966 -0.1970  1.0227 -0.5304
   26CHL1  H16B 1873   4.849   1.292   8.915 -1.1357  3.0987  1.2864
   26CHL1   C17 1874   4.882   1.087   9.005 -0.1236 -0.6727  0.4748
   26CHL1   H17 1875   4.984   1.109   8.968  0.4525 -1.7953  1.3345
   26CHL1   C13 1876   4.893   1.069   9.151  0.0910  0.0840  0.2831
   26CHL1   C18 1877   4.764   0.994   9.206  0.5500 -0.6477  0.3750
   26CHL1  H18A 1878   4.756   0.994   9.317 -1.5090  1.6453  0.3104
   26CHL1  H18B 1879   4.676   1.045   9.160  0.6114 -2.4151 -1.8614
   26CHL1  H18C 1880   4.761   0.892   9.162 -2.9323  0.1564 -1.6339
   26CHL1   C12 1881   5.022   1.003   9.203  0.3447 -0.3713  0.1451
   26CHL1  H12A 1882   5.017   0.901   9.159  1.5827  0.1048 -1.1861
   26CHL1  H12B 1883   5.114   1.051   9.166 -0.2453  0.2593 -0.5450
   26CHL1   C11 1884   5.023   1.004   9.353  0.1015 -0.0505 -0.0441
   26CHL1  H11A 1885   4.935   0.947   9.390  0.4853  0.5596  1.9677
   26CHL1  H11B 1886   5.112   0.946   9.385  0.7569  0.3305 -1.1459
   26CHL1    C9 1887   5.017   1.147   9.419  0.7456 -0.3173 -0.4002
   26CHL1    H9 1888   5.107   1.199   9.381  0.0172  0.4932 -1.0876
   26CHL1   C10 1889   5.017   1.146   9.574 -0.0150 -0.9056 -0.1900
   26CHL1   C19 1890   4.908   1.046   9.632 -0.8248 -0.2524  0.7946
   26CHL1  H19A 1891   4.807   1.082   9.603 -0.9086  0.7685  2.2370
   26CHL1  H19B 1892   4.918   0.941   9.598  0.8466  1.1967 -4.0425
   26CHL1  H19C 1893   4.893   1.047   9.742 -1.0136  0.2685  0.7673
   26CHL1    C1 1894   5.158   1.111   9.634  0.6428  0.4083 -0.5950
   26CHL1   H1A 1895   5.193   1.015   9.592 -0.8618  0.1452 -1.3417
   26CHL1   H1B 1896   5.229   1.188   9.597  2.7813 -1.4771 -0.5714
   26CHL1    C2 1897   5.163   1.114   9.781  0.1528 -0.6088 -0.8282
   26CHL1   H2A 1898   5.265   1.093   9.821 -0.5931 -2.7221  0.1276
   26CHL1   H2B 1899   5.095   1.042   9.832 -2.4007  1.6384 -0.8237
   26CHL1   C20 1900   4.821   0.976   8.917 -0.3005 -0.6162  0.7112
   26CHL1   H20 1901   4.713   0.964   8.940 -1.3613  2.6308 -1.8109
   26CHL1   C21 1902   4.899   0.846   8.938 -0.2937  0.4249  0.0849
   26CHL1  H21A 1903   4.882   0.767   8.862  0.1960 -0.4246  0.8422
   26CHL1  H21B 1904   4.883   0.800   9.038 -0.0166 -0.4336 -0.2575
   26CHL1  H21C 1905   5.009   0.861   8.932 -0.0194 -1.7866 -2.6100
   26CHL1   C22 1906   4.824   1.005   8.765  0.3174  0.8688  0.1116
   26CHL1  H22A 1907   4.785   0.913   8.718 -0.6309  1.5552 -0.4724
   26CHL1  H22B 1908   4.750   1.086   8.747  0.4336  0.8824 -0.3197
   26CHL1   C23 1909   4.960   1.051   8.706  0.6376  0.3548  0.1401
   26CHL1  H23A 1910   5.007   1.125   8.774  1.7440  1.2498 -1.5210
   26CHL1  H23B 1911   5.032   0.967   8.711 -1.0777 -1.1714  0.4438
   26CHL1   C24 1912   4.937   1.107   8.561  0.2640 -0.3151 -0.6407
   26CHL1  H24A 1913   4.930   1.018   8.495 -1.0375 -0.3783 -0.4291
   26CHL1  H24B 1914   4.843   1.164   8.549 -0.6851 -2.2124 -2.9626
   26CHL1   C25 1915   5.053   1.190   8.510 -0.6338 -0.8564  0.7124
   26CHL1   H25 1916   5.032   1.207   8.402  0.0330 -1.5916  0.4594
   26CHL1   C26 1917   5.075   1.322   8.576  0.0547  0.1545  0.1278
   26CHL1  H26A 1918   5.168   1.366   8.533 -0.5582  1.0380 -0.3159
   26CHL1  H26B 1919   4.993   1.394   8.554  1.0388  0.7075 -2.0542
   26CHL1  H26C 1920   5.111   1.318   8.681  0.5341  1.8340  0.0542
   26CHL1   C27 1921   5.193   1.117   8.514  0.4393  0.2712 -0.4216
   26CHL1  H27A 1922   5.245   1.125   8.612 -0.6911 -0.1422  0.2319
   26CHL1  H27B 1923   5.180   1.020   8.462 -0.6945 -0.3693  0.9940
   26CHL1  H27C 1924   5.251   1.169   8.435  0.1235 -2.8941 -2.9116
   27CHL1    C3 1925   3.235   5.749  10.242 -0.0711 -0.2952 -1.2461
   27CHL1    H3 1926   3.132   5.774  10.207  0.7658  1.9699 -2.2840
   27CHL1    O3 1927   3.249   5.770  10.383  0.2640  0.4795 -0.5784
   27CHL1   H3' 1928   3.341   5.754  10.404 -0.1172  1.3124  2.0909
   27CHL1    C4 1929   3.274   5.607  10.204 -0.0317 -0.2790  0.5721
   27CHL1   H4A 1930   3.379   5.592  10.237 -0.4169  0.8350  2.4219
   27CHL1   H4B 1931   3.214   5.534  10.261  2.7003 -1.6347  1.9190
   27CHL1    C5 1932   3.275   5.592  10.046  0.3258  0.6120 -0.5887
   27CHL1    C6 1933   3.200   5.495   9.995 -0.2474  0.0496 -0.2874
   27CHL1    H6 1934   3.143   5.425  10.058  0.7669 -0.7469 -0.2341
   27CHL1    C7 1935   3.203   5.456   9.845  0.0614  0.2475  0.0656
   27CHL1   H7A 1936   3.212   5.346   9.838  0.2467  0.2281  0.5361
   27CHL1   H7B 1937   3.105   5.492   9.808  0.2706  1.0602  0.2707
   27CHL1    C8 1938   3.312   5.530   9.772 -0.6833  0.3213 -0.4955
   27CHL1    H8 1939   3.415   5.499   9.801 -1.0666 -0.6430 -0.1208
   27CHL1   C14 1940   3.296   5.518   9.627  0.3001 -0.5502 -0.0496
   27CHL1   H14 1941   3.203   5.574   9.605 -0.1893 -1.6130 -0.7955
   27CHL1   C15 1942   3.276   5.376   9.573 -0.8587  0.8133  0.8045
   27CHL1  H15A 1943   3.354   5.306   9.608 -2.6882 -1.5401  0.4395
   27CHL1  H15B 1944   3.173   5.339   9.592 -0.1480 -1.8485 -0.2157
   27CHL1   C16 1945   3.295   5.390   9.422 -0.3218  0.4692  0.5005
   27CHL1  H16A 1946   3.370   5.316   9.386 -2.1052 -2.2983  2.2346
   27CHL1  H16B 1947   3.201   5.367   9.368 -0.2577  0.8759  0.2074
   27CHL1   C17 1948   3.328   5.545   9.395 -0.7990  0.4514  0.1745
   27CHL1   H17 1949   3.232   5.595   9.372 -0.8983  0.0127 -0.3736
   27CHL1   C13 1950   3.391   5.587   9.533 -0.3772 -0.2205  0.4576
   27CHL1   C18 1951   3.536   5.533   9.543  0.1683 -0.4189  0.0709
   27CHL1  H18A 1952   3.576   5.566   9.641 -0.7956 -0.9101  0.6458
   27CHL1  H18B 1953   3.549   5.423   9.541 -1.2469 -0.6935  2.2929
   27CHL1  H18C 1954   3.604   5.575   9.466 -0.9144 -1.0973 -1.3156
   27CHL1   C12 1955   3.396   5.739   9.563  1.3092 -0.4691 -0.4637
   27CHL1  H12A 1956   3.473   5.798   9.509 -0.4378  0.5019 -2.0287
   27CHL1  H12B 1957   3.297   5.778   9.531 -0.2052  1.1475  5.0035
   27CHL1   C11 1958   3.404   5.773   9.718 -0.9445 -0.8959  0.4914
   27CHL1  H11A 1959   3.513   5.762   9.734 -0.1921  0.9495 -2.5515
   27CHL1  H11B 1960   3.372   5.879   9.725  3.0273  0.5048 -0.0778
   27CHL1    C9 1961   3.322   5.682   9.815  0.5437 -0.0021  0.4746
   27CHL1    H9 1962   3.216   5.715   9.817  0.7609  0.7740 -0.3822
   27CHL1   C10 1963   3.361   5.694   9.965 -0.5214  0.4114 -0.3431
   27CHL1   C19 1964   3.511   5.654   9.996  0.1916 -0.1399  0.4394
   27CHL1  H19A 1965   3.581   5.729   9.953 -0.3213  0.8325  1.2405
   27CHL1  H19B 1966   3.537   5.662  10.104 -1.3503  0.7304  0.7760
   27CHL1  H19C 1967   3.521   5.554   9.951  1.3253  0.1365  0.0383
   27CHL1    C1 1968   3.327   5.834  10.018 -0.0040 -0.3790  0.5638
   27CHL1   H1A 1969   3.394   5.905   9.964 -0.7861  0.5867  0.8391
   27CHL1   H1B 1970   3.223   5.860   9.991 -0.1878 -2.3012 -0.7978
   27CHL1    C2 1971   3.330   5.847  10.172 -0.4301 -0.0251 -0.2513
   27CHL1   H2A 1972   3.313   5.952  10.205 -0.5672 -0.6668  1.8374
   27CHL1   H2B 1973   3.436   5.827  10.200 -0.0712 -0.0136 -1.5422
   27CHL1   C20 1974   3.406   5.549   9.264 -0.6286  0.7857 -0.4217
   27CHL1   H20 1975   3.504   5.499   9.274 -0.8181  0.2085 -1.3015
   27CHL1   C21 1976   3.435   5.694   9.239 -0.9073 -0.6859  0.6414
   27CHL1  H21A 1977   3.496   5.711   9.148 -1.7491 -1.7214 -0.1453
   27CHL1  H21B 1978   3.486   5.754   9.318 -2.2111  0.4340  0.6759
   27CHL1  H21C 1979   3.333   5.730   9.212 -1.7872 -2.3668  1.5946
   27CHL1   C22 1980   3.323   5.489   9.144  0.3355  0.7352 -0.5656
   27CHL1  H22A 1981   3.297   5.383   9.166 -0.5933  1.3926  1.7415
   27CHL1  H22B 1982   3.225   5.541   9.136 -1.6420 -2.6928 -0.5206
   27CHL1   C23 1983   3.384   5.505   9.009  0.1120  0.3063  1.5260
   27CHL1  H23A 1984   3.369   5.609   8.972 -1.4215  0.3838  2.2743
   27CHL1  H23B 1985   3.491   5.476   9.004  0.1656  0.5873 -2.2701
   27CHL1   C24 1986   3.318   5.399   8.904 -0.2473 -0.6414 -0.2410
   27CHL1  H24A 1987   3.313   5.295   8.945  2.6317 -0.9670 -0.5309
   27CHL1  H24B 1988   3.211   5.427   8.891  0.1631  0.3445 -1.6829
   27CHL1   C25 1989   3.386   5.391   8.766 -0.0442 -0.2402 -0.9308
   27CHL1   H25 1990   3.491   5.361   8.787 -0.2973 -0.6546 -0.2289
   27CHL1   C26 1991   3.317   5.287   8.676 -0.5022  0.1313 -0.1637
   27CHL1  H26A 1992   3.349   5.307   8.572  0.9866  1.1047  0.4543
   27CHL1  H26B 1993   3.342   5.182   8.703  1.1345 -0.2168 -2.6962
   27CHL1  H26C 1994   3.209   5.311   8.676 -0.6813 -0.4578 -2.2569
   27CHL1   C27 1995   3.391   5.529   8.693  0.2927  0.0398 -0.3703
   27CHL1  H27A 1996   3.454   5.607   8.739 -0.9061  2.1271 -2.0752
   27CHL1  H27B 1997   3.442   5.506   8.597  1.1500  0.0573  0.0700
   27CHL1  H27C 1998   3.288   5.568   8.680  0.8029  2.0715  1.1389
   28CHL1    C3 1999   3.810   2.397  10.453 -0.4939 -0.2467  0.1362
   28CHL1    H3 2000   3.705   2.378  10.484  0.4879 -2.9152  2.3209
   28CHL1    O3 2001   3.871   2.431  10.576  0.2989 -0.0447  0.5094
   28CHL1   H3' 2002   3.960   2.397  10.569  0.1949 -0.6396  1.8093
   28CHL1    C4 2003   3.869   2.272  10.395 -0.2112  0.6659 -0.7770
   28CHL1   H4A 2004   3.980   2.272  10.388 -0.2206 -0.4665 -1.1782
   28CHL1   H4B 2005   3.842   2.191  10.467  0.2547 -0.6441 -2.0251
   28CHL1    C5 2006   3.815   2.241  10.256 -0.6886 -0.4731 -0.4026
   28CHL1    C6 2007   3.766   2.120  10.226 -0.7238 -0.6668  0.1957
   28CHL1    H6 2008   3.757   2.040  10.301 -1.2231 -0.7796  0.0172
   28CHL1    C7 2009   3.734   2.089  10.090  0.2259  0.1007  0.2876
   28CHL1   H7A 2010   3.769   1.985  10.078 -0.1117  0.1927 -1.9971
   28CHL1   H7B 2011   3.625   2.080  10.072 -0.2391  1.4037  2.1011
   28CHL1    C8 2012   3.786   2.183   9.978  0.1106  0.1620 -0.8796
   28CHL1    H8 2013   3.894   2.161   9.962  0.0100 -1.5003  0.4306
   28CHL1   C14 2014   3.713   2.161   9.855  0.5271  0.0722  0.9739
   28CHL1   H14 2015   3.605   2.176   9.875 -0.3706 -1.4343 -2.0218
   28CHL1   C15 2016   3.723   2.017   9.800 -0.3355  0.0368  0.4187
   28CHL1  H15A 2017   3.827   1.979   9.805 -0.6503 -1.8185 -3.3765
   28CHL1  H15B 2018   3.663   1.946   9.860 -0.6072  0.2883  0.4481
   28CHL1   C16 2019   3.679   2.039   9.654  0.9425  0.1238 -0.0997
   28CHL1  H16A 2020   3.749   1.989   9.584  0.7202  1.3939 -1.2740
   28CHL1  H16B 2021   3.584   1.993   9.620  1.2205  0.6241 -1.6588
   28CHL1   C17 2022   3.663   2.189   9.624 -0.1288 -0.5527 -0.5255
   28CHL1   H17 2023   3.558   2.219   9.646 -0.1555 -0.7705 -0.3474
   28CHL1   C13 2024   3.746   2.251   9.739  0.0131  0.7731  0.3844
   28CHL1   C18 2025   3.894   2.240   9.702  0.4312  0.8517 -0.2010
   28CHL1  H18A 2026   3.961   2.291   9.776 -1.5209  2.2262  0.7094
   28CHL1  H18B 2027   3.924   2.133   9.697 -1.1377  0.3651  0.2371
   28CHL1  H18C 2028   3.913   2.299   9.610 -0.1006 -0.8600 -1.4519
   28CHL1   C12 2029   3.702   2.394   9.786  0.4485  0.0770  0.6418
   28CHL1  H12A 2030   3.732   2.477   9.717  0.9916 -0.8942 -0.3176
   28CHL1  H12B 2031   3.591   2.401   9.784  0.4825  1.2601 -1.9843
   28CHL1   C11 2032   3.771   2.435   9.917  0.6290 -0.0556 -0.0810
   28CHL1  H11A 2033   3.875   2.470   9.901  1.6308 -1.9951  1.6102
   28CHL1  H11B 2034   3.702   2.512   9.958 -1.1931 -0.7730 -1.6392
   28CHL1    C9 2035   3.762   2.325  10.025  0.5000  0.4155 -0.0481
   28CHL1    H9 2036   3.653   2.319  10.045 -0.0391 -0.9538 -2.9321
   28CHL1   C10 2037   3.833   2.354  10.154 -0.1468 -0.4079 -0.2323
   28CHL1   C19 2038   3.988   2.364  10.119 -0.2615 -0.2183 -0.4651
   28CHL1  H19A 2039   3.999   2.429  10.029 -1.2386  2.1019  0.9781
   28CHL1  H19B 2040   4.045   2.420  10.197 -1.1164 -2.5223  1.9524
   28CHL1  H19C 2041   4.040   2.267  10.103  2.9801  1.5737 -1.9386
   28CHL1    C1 2042   3.787   2.486  10.211  0.8392  0.1606  0.0805
   28CHL1   H1A 2043   3.833   2.572  10.157  0.7225  0.0063 -0.2668
   28CHL1   H1B 2044   3.677   2.498  10.211  0.7771 -0.4053  0.2261
   28CHL1    C2 2045   3.837   2.515  10.354 -0.0532  0.0080 -0.8048
   28CHL1   H2A 2046   3.788   2.612  10.376 -3.6487 -1.6996 -0.4012
   28CHL1   H2B 2047   3.945   2.531  10.368  0.0665 -1.4489  0.0914
   28CHL1   C20 2048   3.692   2.229   9.475 -1.2526  0.0287  0.6085
   28CHL1   H20 2049   3.787   2.180   9.447 -2.0499 -1.3217  0.1760
   28CHL1   C21 2050   3.692   2.385   9.450 -0.0233  0.2398 -0.1794
   28CHL1  H21A 2051   3.741   2.398   9.351  1.1415  2.2893  0.5981
   28CHL1  H21B 2052   3.750   2.443   9.524  0.2677  1.0416 -1.0148
   28CHL1  H21C 2053   3.587   2.423   9.443 -0.7860 -1.6228  0.5415
   28CHL1   C22 2054   3.583   2.163   9.372 -0.8212 -0.1033 -0.5300
   28CHL1  H22A 2055   3.575   2.055   9.398  3.1298 -0.0927  1.5037
   28CHL1  H22B 2056   3.491   2.222   9.388 -1.2220 -1.3011  2.3339
   28CHL1   C23 2057   3.622   2.166   9.226 -0.0993 -0.6152 -0.5248
   28CHL1  H23A 2058   3.633   2.271   9.190 -1.5046  0.2080  1.2944
   28CHL1  H23B 2059   3.726   2.130   9.207  0.5822  0.9534  0.0605
   28CHL1   C24 2060   3.516   2.088   9.145  0.1162 -0.0140  0.5672
   28CHL1  H24A 2061   3.528   2.121   9.040 -1.3456  2.0239  0.9774
   28CHL1  H24B 2062   3.544   1.981   9.147 -1.2359 -0.4271 -1.0333
   28CHL1   C25 2063   3.364   2.110   9.177 -0.5978  0.4105  0.3364
   28CHL1   H25 2064   3.350   2.097   9.287  2.5168 -1.1434  0.6712
   28CHL1   C26 2065   3.325   2.252   9.131  0.1714 -0.3729  0.0399
   28CHL1  H26A 2066   3.223   2.273   9.169  0.0802  0.5214 -0.6598
   28CHL1  H26B 2067   3.377   2.335   9.183 -2.8228  2.3173 -0.9072
   28CHL1  H26C 2068   3.319   2.258   9.020  1.0655 -1.4762 -0.0892
   28CHL1   C27 2069   3.298   1.999   9.095  0.8327 -0.0345 -0.4154
   28CHL1  H27A 2070   3.192   2.011   9.128  1.6224  4.4427  1.1884
   28CHL1  H27B 2071   3.307   2.026   8.988  2.8702  1.2364  0.0228
   28CHL1  H27C 2072   3.331   1.896   9.119 -2.1268 -1.6049 -2.5248
   29CHL1    C3 2073   0.261   2.349   6.889  0.2010  0.0836 -0.0281
   29CHL1    H3 2074   0.226   2.250   6.926 -0.2038  0.2306 -0.0160
   29CHL1    O3 2075   0.278   2.340   6.747  0.0834  0.2513  0.1173
   29CHL1   H3' 2076   0.293   2.430   6.719 -1.8082  0.6469  0.2374
   29CHL1    C4 2077   0.155   2.445   6.936  0.0217  0.9302 -0.2290
   29CHL1   H4A 2078   0.205   2.540   6.908  3.6314 -0.2722  1.5138
   29CHL1   H4B 2079   0.059   2.435   6.881  0.3442  2.1957 -1.0800
   29CHL1    C5 2080   0.141   2.460   7.089  0.2164 -0.2306  0.2706
   29CHL1    C6 2081   0.028   2.456   7.153  0.6384  0.1049 -0.9968
   29CHL1    H6 2082  -0.062   2.441   7.091  1.2358 -1.2818 -1.5720
   29CHL1    C7 2083   0.007   2.467   7.304  0.3825 -0.0482 -0.4859
   29CHL1   H7A 2084  -0.087   2.521   7.327 -2.1196 -3.1923 -2.5449
   29CHL1   H7B 2085  -0.019   2.367   7.346  0.8547 -0.4962 -1.2494
   29CHL1    C8 2086   0.135   2.506   7.378  0.5389  0.0668 -0.4946
   29CHL1    H8 2087   0.142   2.617   7.373  1.9769  0.1031  1.3789
   29CHL1   C14 2088   0.125   2.476   7.529  0.3250  1.0907 -0.6516
   29CHL1   H14 2089   0.132   2.365   7.525  1.6965  1.0766  1.0723
   29CHL1   C15 2090  -0.008   2.513   7.601  0.0113  0.0255  0.5920
   29CHL1  H15A 2091  -0.041   2.616   7.576  0.7549  0.2877  0.6400
   29CHL1  H15B 2092  -0.092   2.448   7.568  1.1489 -1.3177  0.2495
   29CHL1   C16 2093   0.035   2.513   7.746  0.5030 -0.5730  0.5200
   29CHL1  H16A 2094   0.008   2.612   7.788  0.9186  0.0783 -0.6921
   29CHL1  H16B 2095  -0.016   2.430   7.799  0.4290 -0.3372  0.8218
   29CHL1   C17 2096   0.198   2.494   7.752  0.2455 -0.1374 -0.4596
   29CHL1   H17 2097   0.210   2.385   7.771  1.2220 -0.1177 -0.9215
   29CHL1   C13 2098   0.243   2.531   7.608  0.1287  0.5619  0.6501
   29CHL1   C18 2099   0.253   2.687   7.598 -0.8635 -0.4667 -0.0341
   29CHL1  H18A 2100   0.336   2.713   7.667 -1.8549 -0.6895  1.2748
   29CHL1  H18B 2101   0.280   2.720   7.496 -2.4941  3.0527  0.5260
   29CHL1  H18C 2102   0.161   2.739   7.630  0.6826  2.2422  0.2631
   29CHL1   C12 2103   0.371   2.465   7.551 -0.0382  0.1436  0.5105
   29CHL1  H12A 2104   0.455   2.526   7.590 -0.4136  1.1862 -0.2817
   29CHL1  H12B 2105   0.391   2.362   7.589 -0.9143 -0.3979 -0.4533
   29CHL1   C11 2106   0.384   2.465   7.395  0.7161 -0.7646 -0.4719
   29CHL1  H11A 2107   0.422   2.568   7.377  0.0793 -0.2423  1.0144
   29CHL1  H11B 2108   0.464   2.390   7.375  0.4604 -1.4074  0.7917
   29CHL1    C9 2109   0.257   2.442   7.315 -0.3027  0.2905  0.1400
   29CHL1    H9 2110   0.234   2.335   7.331  0.3050  0.3063  1.2242
   29CHL1   C10 2111   0.276   2.481   7.168  0.0155 -0.2940  0.0896
   29CHL1   C19 2112   0.323   2.628   7.153  0.0810 -0.2020  0.0172
   29CHL1  H19A 2113   0.235   2.692   7.173  0.9740  0.5884  1.5802
   29CHL1  H19B 2114   0.392   2.672   7.227 -1.9826 -0.0677  1.9592
   29CHL1  H19C 2115   0.360   2.650   7.050 -0.5704 -0.5865 -0.3112
   29CHL1    C1 2116   0.382   2.380   7.113 -0.1294 -0.3224 -0.4131
   29CHL1   H1A 2117   0.478   2.408   7.162 -1.3808  1.4583  1.1985
   29CHL1   H1B 2118   0.351   2.275   7.130  0.6162 -0.4134  0.4649
   29CHL1    C2 2119   0.394   2.381   6.959  0.1140  0.3313 -0.0799
   29CHL1   H2A 2120   0.469   2.308   6.923  0.1283 -0.3589  1.2873
   29CHL1   H2B 2121   0.438   2.478   6.927  0.6767  0.2276  0.3764
   29CHL1   C20 2122   0.259   2.562   7.876  0.2593 -0.0798  0.0166
   29CHL1   H20 2123   0.230   2.669   7.868 -1.5514 -0.2789  2.7192
   29CHL1   C21 2124   0.412   2.540   7.874  0.4573  0.0427  0.2420
   29CHL1  H21A 2125   0.459   2.589   7.786 -1.4257 -0.2840 -1.0072
   29CHL1  H21B 2126   0.439   2.433   7.866  0.1212 -0.0902  0.8168
   29CHL1  H21C 2127   0.463   2.584   7.962  0.0266 -0.7189  0.8887
   29CHL1   C22 2128   0.194   2.503   8.011 -0.2068 -0.0962 -0.3355
   29CHL1  H22A 2129   0.083   2.494   8.015 -0.3199  1.0945 -0.3918
   29CHL1  H22B 2130   0.233   2.400   8.026  0.8145  0.3564  0.2423
   29CHL1   C23 2131   0.239   2.579   8.137  0.5828  0.0802 -0.0761
   29CHL1  H23A 2132   0.186   2.528   8.220 -1.2088  2.1232  0.1312
   29CHL1  H23B 2133   0.349   2.571   8.150  0.6710  0.1783 -0.6940
   29CHL1   C24 2134   0.205   2.725   8.136  0.2032 -0.6849 -0.7939
   29CHL1  H24A 2135   0.266   2.785   8.065  0.0776 -0.1995 -0.4928
   29CHL1  H24B 2136   0.102   2.737   8.095  0.6504 -0.4192 -1.8924
   29CHL1   C25 2137   0.211   2.780   8.279  0.4763 -0.1349 -0.1607
   29CHL1   H25 2138   0.313   2.749   8.311  1.6671  3.8430  0.4432
   29CHL1   C26 2139   0.220   2.935   8.292 -0.1548  0.6904  0.0832
   29CHL1  H26A 2140   0.318   2.966   8.248  0.0807 -1.5166 -1.0845
   29CHL1  H26B 2141   0.135   2.983   8.240  0.3447 -0.6763 -2.1296
   29CHL1  H26C 2142   0.226   2.960   8.400  2.6943 -3.4334  1.1070
   29CHL1   C27 2143   0.089   2.733   8.363 -0.6764  0.3028 -0.8153
   29CHL1  H27A 2144   0.102   2.786   8.460  0.7640 -0.1082 -0.7746
   29CHL1  H27B 2145  -0.010   2.766   8.324 -1.8994 -0.4213  1.4605
   29CHL1  H27C 2146   0.085   2.624   8.383  0.0608  0.2700 -0.8249
   30CHL1    C3 2147   3.340   1.937   6.870  0.0185  0.3029  0.2890
   30CHL1    H3 2148   3.388   1.845   6.830 -0.1838  0.4612 -0.3330
   30CHL1    O3 2149   3.291   2.004   6.756  0.3957  0.6752  0.0833
   30CHL1   H3' 2150   3.198   2.026   6.772  0.4128  1.7017 -1.0549
   30CHL1    C4 2151   3.220   1.891   6.951 -0.1052 -0.2671 -0.0610
   30CHL1   H4A 2152   3.170   1.984   6.986  1.3994 -0.2597  2.3267
   30CHL1   H4B 2153   3.156   1.830   6.884  2.1926 -1.6049 -1.1604
   30CHL1    C5 2154   3.275   1.820   7.073  0.7188 -0.6929 -0.6120
   30CHL1    C6 2155   3.230   1.698   7.103  0.0921  0.4991  0.3869
   30CHL1    H6 2156   3.146   1.657   7.045  0.1757  0.8822 -0.0078
   30CHL1    C7 2157   3.266   1.620   7.229  0.1046 -0.9029  0.0857
   30CHL1   H7A 2158   3.173   1.574   7.269  1.4730 -2.1710  1.9714
   30CHL1   H7B 2159   3.323   1.531   7.196 -0.8283 -1.6473  0.4223
   30CHL1    C8 2160   3.335   1.704   7.342 -0.1433  0.6955  0.2369
   30CHL1    H8 2161   3.257   1.755   7.402 -1.1143  0.0952 -0.4782
   30CHL1   C14 2162   3.406   1.611   7.432 -0.1086  0.0023 -0.7359
   30CHL1   H14 2163   3.492   1.560   7.383  2.7925  3.1865  0.6977
   30CHL1   C15 2164   3.316   1.492   7.492  0.1301 -0.8868 -0.5384
   30CHL1  H15A 2165   3.207   1.513   7.486  0.1937 -0.5896 -0.7193
   30CHL1  H15B 2166   3.342   1.410   7.422  1.0364 -0.3274 -0.8780
   30CHL1   C16 2167   3.378   1.476   7.626 -0.0858  0.4922  0.7418
   30CHL1  H16A 2168   3.305   1.517   7.699  0.0835 -0.0585  1.2269
   30CHL1  H16B 2169   3.408   1.373   7.653  0.1417  0.1843 -0.5814
   30CHL1   C17 2170   3.510   1.559   7.631 -0.3842  0.0195  0.6773
   30CHL1   H17 2171   3.594   1.503   7.585 -0.1286 -2.3219  3.6410
   30CHL1   C13 2172   3.476   1.682   7.548 -0.0312  0.4299  1.0031
   30CHL1   C18 2173   3.377   1.783   7.623 -0.7166  0.4404  0.7378
   30CHL1  H18A 2174   3.341   1.864   7.555  2.7136  0.5270 -1.2213
   30CHL1  H18B 2175   3.292   1.724   7.662 -0.3209 -1.1909 -0.7254
   30CHL1  H18C 2176   3.438   1.839   7.697 -0.5219  1.8721 -0.4522
   30CHL1   C12 2177   3.590   1.767   7.486  0.3809  0.3072 -0.0781
   30CHL1  H12A 2178   3.646   1.835   7.553  0.2392 -0.0703  0.4269
   30CHL1  H12B 2179   3.677   1.708   7.453  1.6224  2.2238 -0.3784
   30CHL1   C11 2180   3.538   1.863   7.368 -0.2681 -0.9758 -0.4550
   30CHL1  H11A 2181   3.481   1.941   7.423 -1.0120 -1.7468 -0.1058
   30CHL1  H11B 2182   3.629   1.916   7.333  0.8434 -1.1211  1.9477
   30CHL1    C9 2183   3.439   1.794   7.272  0.2706  0.5499 -0.7160
   30CHL1    H9 2184   3.500   1.722   7.212 -1.4550 -1.6870  0.0498
   30CHL1   C10 2185   3.376   1.889   7.165  0.1359 -1.0759  1.1445
   30CHL1   C19 2186   3.314   2.010   7.242 -0.7788 -0.2314 -0.3308
   30CHL1  H19A 2187   3.257   2.079   7.176 -0.2548  1.3280  0.7719
   30CHL1  H19B 2188   3.253   1.963   7.323  1.8380 -1.0561  1.2941
   30CHL1  H19C 2189   3.391   2.064   7.302  0.5043 -2.6803  0.3363
   30CHL1    C1 2190   3.489   1.932   7.066 -0.0020 -0.0100 -0.1427
   30CHL1   H1A 2191   3.566   1.994   7.118 -0.2529 -0.3867  0.7070
   30CHL1   H1B 2192   3.549   1.847   7.029  1.3078  0.8089 -0.0014
   30CHL1    C2 2193   3.443   2.016   6.947  0.1373 -0.3695 -0.0390
   30CHL1   H2A 2194   3.526   2.054   6.884  0.9201  0.2630  1.3386
   30CHL1   H2B 2195   3.390   2.111   6.969  0.8403  0.3415 -1.2971
   30CHL1   C20 2196   3.549   1.574   7.774 -0.2571 -0.1340 -0.4318
   30CHL1   H20 2197   3.465   1.621   7.829 -0.2069 -1.4373  0.7985
   30CHL1   C21 2198   3.668   1.671   7.783 -0.6563  0.4640  0.1916
   30CHL1  H21A 2199   3.753   1.646   7.717 -0.8414  2.0340 -0.6973
   30CHL1  H21B 2200   3.709   1.682   7.885  0.3718  1.6367 -0.3279
   30CHL1  H21C 2201   3.626   1.770   7.753 -1.6480  0.2015  0.6518
   30CHL1   C22 2202   3.585   1.437   7.853  0.3990 -0.3786  0.0954
   30CHL1  H22A 2203   3.621   1.465   7.954 -2.8165 -0.3534  1.3564
   30CHL1  H22B 2204   3.484   1.391   7.861 -0.5263  1.1746 -1.7574
   30CHL1   C23 2205   3.693   1.344   7.799 -0.1851  0.6433 -0.5547
   30CHL1  H23A 2206   3.653   1.285   7.714 -0.3776  1.8135 -1.2976
   30CHL1  H23B 2207   3.786   1.397   7.770 -0.5795  0.5854 -1.9926
   30CHL1   C24 2208   3.733   1.242   7.915 -0.0660 -0.9850  0.0278
   30CHL1  H24A 2209   3.788   1.310   7.984  4.3656 -0.3855 -3.6149
   30CHL1  H24B 2210   3.640   1.198   7.957 -0.0745 -1.3715 -0.3928
   30CHL1   C25 2211   3.830   1.121   7.889 -0.3800  0.1018  0.6596
   30CHL1   H25 2212   3.902   1.159   7.814 -2.8978 -0.6060 -2.3479
   30CHL1   C26 2213   3.902   1.071   8.013  0.3542  0.2555 -0.1417
   30CHL1  H26A 2214   3.949   1.158   8.064  3.5965 -1.4221 -0.0436
   30CHL1  H26B 2215   3.843   1.003   8.078  2.9971 -0.6837  1.4096
   30CHL1  H26C 2216   3.988   1.008   7.982 -0.2273 -1.0450  0.8096
   30CHL1   C27 2217   3.748   1.008   7.826  0.0005 -0.3880  0.2411
   30CHL1  H27A 2218   3.676   0.963   7.898 -0.3609  2.2693  1.6667
   30CHL1  H27B 2219   3.693   1.041   7.735  1.7961 -0.8256 -1.0545
   30CHL1  H27C 2220   3.814   0.928   7.788 -2.3042 -3.5230  2.3502
   31CHL1    C3 2221   4.564   2.551   6.615 -0.7707 -0.3800 -0.4132
   31CHL1    H3 2222   4.528   2.650   6.649 -0.2625 -0.2136 -0.3477
   31CHL1    O3 2223   4.550   2.520   6.478 -0.0379 -0.2059 -0.1611
   31CHL1   H3' 2224   4.554   2.424   6.478 -1.6348 -0.2954  0.9469
   31CHL1    C4 2225   4.712   2.531   6.657 -0.8231 -0.0117 -0.2437
   31CHL1   H4A 2226   4.746   2.433   6.617 -1.2267 -0.7599  1.1742
   31CHL1   H4B 2227   4.767   2.607   6.597  0.1502  1.0770  1.9316
   31CHL1    C5 2228   4.739   2.532   6.805  0.1529  0.1929 -0.2533
   31CHL1    C6 2229   4.820   2.619   6.854 -0.7013 -0.1678  0.4003
   31CHL1    H6 2230   4.878   2.689   6.792 -0.5902  0.4329  1.1681
   31CHL1    C7 2231   4.833   2.655   6.998 -0.2074 -0.1742 -0.1126
   31CHL1   H7A 2232   4.940   2.686   7.007  0.5904 -2.7405  0.1291
   31CHL1   H7B 2233   4.778   2.746   7.031  2.5007  1.2413  0.8527
   31CHL1    C8 2234   4.807   2.528   7.084 -0.6294 -0.1302 -0.7094
   31CHL1    H8 2235   4.890   2.455   7.075  0.7887  1.4463 -0.7919
   31CHL1   C14 2236   4.788   2.572   7.235 -1.0244  0.2379 -0.5972
   31CHL1   H14 2237   4.697   2.635   7.238 -1.3842 -0.3027  0.3311
   31CHL1   C15 2238   4.896   2.656   7.305 -1.0610  0.5358 -0.5931
   31CHL1  H15A 2239   4.999   2.620   7.285 -0.5160  0.6931  1.6796
   31CHL1  H15B 2240   4.895   2.765   7.281  0.3642  0.7510  0.2569
   31CHL1   C16 2241   4.872   2.639   7.451 -0.5282  0.5796  0.1227
   31CHL1  H16A 2242   4.965   2.605   7.503 -0.6708 -2.8749 -1.5563
   31CHL1  H16B 2243   4.835   2.735   7.493 -0.8238  0.3499  0.3930
   31CHL1   C17 2244   4.756   2.527   7.470 -0.2895 -0.2154 -0.4569
   31CHL1   H17 2245   4.659   2.581   7.468 -1.4708 -2.2263  0.3766
   31CHL1   C13 2246   4.764   2.459   7.331  0.4440  0.8256 -0.3561
   31CHL1   C18 2247   4.885   2.360   7.340 -0.0467  0.0640  0.7854
   31CHL1  H18A 2248   4.849   2.272   7.397  1.4558 -0.6923  0.6125
   31CHL1  H18B 2249   4.914   2.309   7.246 -0.3572 -2.8506  2.1647
   31CHL1  H18C 2250   4.981   2.389   7.388  1.2077 -1.8563 -0.4409
   31CHL1   C12 2251   4.635   2.391   7.285 -0.7963 -0.0597 -0.4654
   31CHL1  H12A 2252   4.621   2.298   7.345 -0.4176  0.6532  0.7600
   31CHL1  H12B 2253   4.543   2.450   7.303 -0.8658 -0.5001  0.7208
   31CHL1   C11 2254   4.634   2.353   7.142  0.8438 -0.2239  0.0974
   31CHL1  H11A 2255   4.704   2.269   7.125  1.1930  0.2259 -0.7516
   31CHL1  H11B 2256   4.531   2.319   7.115  2.0599 -2.0643 -2.7718
   31CHL1    C9 2257   4.673   2.467   7.041  0.1167 -0.2474  0.2064
   31CHL1    H9 2258   4.598   2.546   7.062 -0.9087 -1.8500  3.1381
   31CHL1   C10 2259   4.660   2.435   6.894  0.0436 -0.6614  0.4354
   31CHL1   C19 2260   4.700   2.289   6.870 -0.9637  1.0969 -0.1243
   31CHL1  H19A 2261   4.805   2.286   6.906 -0.8903 -1.9054 -0.3575
   31CHL1  H19B 2262   4.645   2.207   6.921 -0.5837  1.2440  0.5368
   31CHL1  H19C 2263   4.715   2.265   6.763  0.7427  0.6283  0.1952
   31CHL1    C1 2264   4.516   2.455   6.853  0.8824 -0.7328  0.2779
   31CHL1   H1A 2265   4.464   2.380   6.916  2.0858 -0.4710  1.6511
   31CHL1   H1B 2266   4.473   2.551   6.887  1.4368 -0.9858  1.7618
   31CHL1    C2 2267   4.489   2.448   6.701 -0.7071  0.6356  1.0080
   31CHL1   H2A 2268   4.382   2.445   6.671 -0.8415 -0.2032  1.5520
   31CHL1   H2B 2269   4.517   2.344   6.674 -1.9381  0.2874  0.9932
   31CHL1   C20 2270   4.768   2.447   7.593 -0.8238  0.1899  0.0564
   31CHL1   H20 2271   4.856   2.380   7.589 -0.7681  0.1608  1.3770
   31CHL1   C21 2272   4.636   2.365   7.606 -0.0302 -0.1145  0.2279
   31CHL1  H21A 2273   4.542   2.421   7.591  1.2593  2.1170  0.0995
   31CHL1  H21B 2274   4.634   2.329   7.711  1.3363  1.8606  0.9941
   31CHL1  H21C 2275   4.645   2.274   7.543  0.1630  0.0964 -0.0528
   31CHL1   C22 2276   4.795   2.537   7.722 -0.1118 -0.0500 -0.6191
   31CHL1  H22A 2277   4.859   2.627   7.710 -0.2361  0.5825  2.4931
   31CHL1  H22B 2278   4.693   2.575   7.745 -1.0272 -3.2975  1.4058
   31CHL1   C23 2279   4.863   2.462   7.841 -0.1023  0.6739  0.3933
   31CHL1  H23A 2280   4.831   2.356   7.837  1.3957  0.2051  0.4554
   31CHL1  H23B 2281   4.973   2.459   7.826 -0.1393 -4.8901 -0.9304
   31CHL1   C24 2282   4.843   2.523   7.989 -0.1699  0.3516 -0.4192
   31CHL1  H24A 2283   4.885   2.626   7.998  0.8852 -0.1854  1.3134
   31CHL1  H24B 2284   4.734   2.528   8.010 -0.0665 -1.5789  0.8096
   31CHL1   C25 2285   4.888   2.435   8.107  0.3155  0.7781 -0.3175
   31CHL1   H25 2286   4.866   2.331   8.074 -2.5737  0.8023  1.2318
   31CHL1   C26 2287   5.033   2.472   8.132  0.4625  0.7524 -0.1163
   31CHL1  H26A 2288   5.035   2.572   8.180 -1.1841  1.1713 -0.8376
   31CHL1  H26B 2289   5.065   2.396   8.207 -2.3160 -0.3800  0.0550
   31CHL1  H26C 2290   5.099   2.470   8.042  1.0732  2.0021  0.2839
   31CHL1   C27 2291   4.818   2.467   8.237  0.4099 -0.3570 -0.7372
   31CHL1  H27A 2292   4.710   2.441   8.241  0.3351 -0.0634 -0.8733
   31CHL1  H27B 2293   4.806   2.576   8.253  0.4881 -0.5792  1.0997
   31CHL1  H27C 2294   4.867   2.430   8.330 -0.2796 -0.2458 -0.3216
   32CHL1    C3 2295   3.670   2.507   6.808  0.2322  0.3000 -0.3989
   32CHL1    H3 2296   3.776   2.540   6.818 -0.3937  1.9931  1.2884
   32CHL1    O3 2297   3.634   2.533   6.676 -0.1267 -0.1298 -0.2124
   32CHL1   H3' 2298   3.539   2.522   6.688  0.1321 -0.9621  1.3833
   32CHL1    C4 2299   3.644   2.364   6.850 -0.4838 -0.3692  0.3880
   32CHL1   H4A 2300   3.538   2.345   6.822  0.1562 -1.4002 -1.4925
   32CHL1   H4B 2301   3.702   2.293   6.788 -2.6319 -0.9450 -1.0724
   32CHL1    C5 2302   3.666   2.344   7.004 -0.1171  0.0295  0.4760
   32CHL1    C6 2303   3.746   2.245   7.047  0.2450 -0.7997  0.3815
   32CHL1    H6 2304   3.786   2.171   6.976  3.0799  0.0834  0.9113
   32CHL1    C7 2305   3.772   2.208   7.193 -0.6243 -0.3263 -0.0696
   32CHL1   H7A 2306   3.735   2.107   7.221 -1.5947  0.3523  1.1839
   32CHL1   H7B 2307   3.878   2.205   7.223 -1.0880 -2.0362  1.5733
   32CHL1    C8 2308   3.689   2.300   7.293  0.0010  0.3000  0.4950
   32CHL1    H8 2309   3.592   2.248   7.305  0.0203  0.4333  1.2955
   32CHL1   C14 2310   3.743   2.300   7.436 -0.2181  0.6360  0.5417
   32CHL1   H14 2311   3.850   2.330   7.425 -0.2407  0.0570 -2.0475
   32CHL1   C15 2312   3.767   2.160   7.503 -0.5635 -0.0193  0.0320
   32CHL1  H15A 2313   3.673   2.102   7.496 -2.3072  2.0826  3.2457
   32CHL1  H15B 2314   3.851   2.107   7.453 -1.4300 -0.2246 -1.2434
   32CHL1   C16 2315   3.805   2.202   7.646  0.3596  0.1742 -0.4666
   32CHL1  H16A 2316   3.747   2.143   7.719  0.1879  2.4050  1.3035
   32CHL1  H16B 2317   3.913   2.188   7.669 -0.1668 -1.9838  0.9549
   32CHL1   C17 2318   3.752   2.352   7.669 -0.4216  0.4891  0.8882
   32CHL1   H17 2319   3.833   2.428   7.659  1.7658 -1.7553  0.5890
   32CHL1   C13 2320   3.666   2.383   7.536  0.0779  0.4530  0.2051
   32CHL1   C18 2321   3.520   2.330   7.549  0.4078 -0.0369  0.4770
   32CHL1  H18A 2322   3.454   2.389   7.617  0.3196  1.2144 -0.6442
   32CHL1  H18B 2323   3.468   2.326   7.451  0.6631 -3.7410  0.3529
   32CHL1  H18C 2324   3.518   2.226   7.589 -0.1871  0.8336  2.9232
   32CHL1   C12 2325   3.680   2.528   7.490 -0.4100 -0.7390 -0.3144
   32CHL1  H12A 2326   3.618   2.585   7.562 -0.6335 -1.2440 -0.1054
   32CHL1  H12B 2327   3.786   2.556   7.509 -0.3875 -0.8636 -0.2543
   32CHL1   C11 2328   3.629   2.542   7.350  0.6821 -0.1555  0.0643
   32CHL1  H11A 2329   3.519   2.539   7.359  0.6377  0.0355 -0.3883
   32CHL1  H11B 2330   3.647   2.648   7.320  0.6129  0.4826  2.1054
   32CHL1    C9 2331   3.682   2.447   7.241  0.9043  0.8821  0.2409
   32CHL1    H9 2332   3.787   2.483   7.229  1.2463  0.0105  0.5986
   32CHL1   C10 2333   3.617   2.454   7.102  0.1266 -1.0649  0.2664
   32CHL1   C19 2334   3.466   2.426   7.108  0.4892 -0.7405 -0.1637
   32CHL1  H19A 2335   3.442   2.331   7.160  1.6949 -1.0328 -0.1019
   32CHL1  H19B 2336   3.413   2.511   7.155  0.5210  0.5420 -2.3487
   32CHL1  H19C 2337   3.418   2.417   7.009 -1.4399  1.9537  0.4196
   32CHL1    C1 2338   3.635   2.596   7.038 -0.2917 -0.4311 -0.2634
   32CHL1   H1A 2339   3.577   2.679   7.083 -0.1344 -1.1638  1.3804
   32CHL1   H1B 2340   3.741   2.626   7.051 -1.0068  1.8618  0.8023
   32CHL1    C2 2341   3.592   2.606   6.892 -0.0319 -0.5248 -0.0324
   32CHL1   H2A 2342   3.589   2.711   6.854  0.1808 -0.3377  0.4542
   32CHL1   H2B 2343   3.490   2.562   6.888 -0.5421  0.6688 -0.6656
   32CHL1   C20 2344   3.684   2.381   7.805  0.0171  0.2368  1.2968
   32CHL1   H20 2345   3.591   2.320   7.809 -1.2215  1.7367 -1.6108
   32CHL1   C21 2346   3.641   2.531   7.817 -0.3347  0.4316 -0.2030
   32CHL1  H21A 2347   3.604   2.547   7.921 -2.8035 -2.7354 -0.4270
   32CHL1  H21B 2348   3.560   2.558   7.746 -0.1554  0.2708 -0.4700
   32CHL1  H21C 2349   3.732   2.588   7.789  0.9023 -1.3504  0.0715
   32CHL1   C22 2350   3.778   2.329   7.917  0.6824 -0.4363  0.1064
   32CHL1  H22A 2351   3.776   2.218   7.915  3.6224 -0.5744 -1.1984
   32CHL1  H22B 2352   3.879   2.375   7.905 -0.1742  1.2924 -0.9832
   32CHL1   C23 2353   3.741   2.377   8.061  0.5904  0.2837 -0.4665
   32CHL1  H23A 2354   3.750   2.487   8.075 -0.8087  0.1316  2.3470
   32CHL1  H23B 2355   3.641   2.341   8.093  0.1281  1.6194 -0.3465
   32CHL1   C24 2356   3.836   2.327   8.175  0.2659 -0.9738 -0.1518
   32CHL1  H24A 2357   3.862   2.222   8.153  0.7278 -0.6310 -1.3499
   32CHL1  H24B 2358   3.930   2.385   8.166 -0.8100  0.8522 -0.2970
   32CHL1   C25 2359   3.765   2.339   8.319  0.2883  0.3793  0.8112
   32CHL1   H25 2360   3.729   2.442   8.336  0.1084  0.7377 -1.3637
   32CHL1   C26 2361   3.640   2.254   8.342  0.0921  0.1515 -1.0207
   32CHL1  H26A 2362   3.554   2.264   8.272 -1.1972  0.5128  0.5471
   32CHL1  H26B 2363   3.666   2.146   8.337 -1.6652 -0.3719  0.2311
   32CHL1  H26C 2364   3.598   2.277   8.442  1.0085  1.9540 -1.0220
   32CHL1   C27 2365   3.880   2.292   8.414 -0.0264  0.2096  1.5540
   32CHL1  H27A 2366   3.856   2.286   8.522  0.6102 -1.6923  1.6229
   32CHL1  H27B 2367   3.915   2.190   8.387 -2.5931 -1.2021  3.1171
   32CHL1  H27C 2368   3.974   2.350   8.403  0.0668 -0.0868  0.7050
   33CHL1    C3 2369   5.666   1.080   6.563 -0.1247  0.4223 -0.1769
   33CHL1    H3 2370   5.564   1.037   6.556 -0.0228  0.1501 -0.0480
   33CHL1    O3 2371   5.716   1.104   6.431  0.0525  0.5346  0.4480
   33CHL1   H3' 2372   5.765   1.029   6.396  0.3681  1.3706 -0.9475
   33CHL1    C4 2373   5.664   1.210   6.641  0.3656 -0.3931 -0.5845
   33CHL1   H4A 2374   5.753   1.277   6.633 -1.2896  2.6653  3.3405
   33CHL1   H4B 2375   5.582   1.272   6.598 -0.9274 -0.1775  1.9955
   33CHL1    C5 2376   5.636   1.191   6.791 -0.3302 -0.3031 -0.6956
   33CHL1    C6 2377   5.537   1.260   6.852 -0.0556  0.4622  0.2531
   33CHL1    H6 2378   5.481   1.330   6.789  3.5712  2.6860 -0.8200
   33CHL1    C7 2379   5.518   1.261   7.000 -0.4072 -0.7001 -0.2325
   33CHL1   H7A 2380   5.488   1.361   7.038  0.1831 -0.6830  0.1912
   33CHL1   H7B 2381   5.432   1.195   7.025 -1.7075  0.8819 -0.3364
   33CHL1    C8 2382   5.646   1.207   7.071  0.1522  0.5794  0.4735
   33CHL1    H8 2383   5.720   1.289   7.078  0.6083  0.0128  4.6075
   33CHL1   C14 2384   5.617   1.184   7.218  0.3890  0.4414 -0.2413
   33CHL1   H14 2385   5.539   1.105   7.224  1.5192 -0.6167  1.0909
   33CHL1   C15 2386   5.546   1.296   7.297 -0.4106 -0.0081 -0.5733
   33CHL1  H15A 2387   5.596   1.392   7.275 -0.5697 -0.0800 -1.2787
   33CHL1  H15B 2388   5.439   1.305   7.271 -0.3164  1.4944 -0.5014
   33CHL1   C16 2389   5.577   1.248   7.442  0.1446  0.4951 -0.1329
   33CHL1  H16A 2390   5.629   1.334   7.490 -0.1476  0.6988 -0.1738
   33CHL1  H16B 2391   5.485   1.227   7.502  1.1810 -3.8108  0.2888
   33CHL1   C17 2392   5.668   1.128   7.437 -0.0788 -0.2873 -0.9951
   33CHL1   H17 2393   5.606   1.036   7.429 -0.0840 -0.5157  1.0205
   33CHL1   C13 2394   5.736   1.140   7.299  0.4712  0.9405 -0.1117
   33CHL1   C18 2395   5.849   1.246   7.307 -0.2369 -1.3686 -1.3805
   33CHL1  H18A 2396   5.897   1.265   7.209 -0.5471  1.4396 -1.0762
   33CHL1  H18B 2397   5.811   1.346   7.340  1.9854 -1.0634  0.5429
   33CHL1  H18C 2398   5.924   1.201   7.376 -0.6108  1.4573  1.1117
   33CHL1   C12 2399   5.807   1.009   7.248 -1.2727 -0.5489  0.2574
   33CHL1  H12A 2400   5.902   1.005   7.304 -1.6827 -0.2295  0.9871
   33CHL1  H12B 2401   5.740   0.923   7.272 -0.6309 -0.9469  0.6525
   33CHL1   C11 2402   5.830   1.026   7.096 -0.5135  0.2163  0.6411
   33CHL1  H11A 2403   5.926   1.083   7.092  1.4146 -2.6797  1.7363
   33CHL1  H11B 2404   5.859   0.927   7.054  0.3036  0.9274 -0.5263
   33CHL1    C9 2405   5.710   1.082   7.008  0.1459 -0.1536  0.1951
   33CHL1    H9 2406   5.632   1.004   7.023  0.3553  0.1422  3.6102
   33CHL1   C10 2407   5.743   1.104   6.858  0.0646  0.1695 -0.2706
   33CHL1   C19 2408   5.879   1.170   6.845 -1.2239 -0.3119  0.0689
   33CHL1  H19A 2409   5.890   1.250   6.921 -0.7164 -1.2463  1.0085
   33CHL1  H19B 2410   5.961   1.101   6.873 -1.1176 -0.8016 -1.3864
   33CHL1  H19C 2411   5.901   1.214   6.746  0.1682 -0.9376  0.0790
   33CHL1    C1 2412   5.743   0.966   6.787 -0.1985 -0.3302 -0.2560
   33CHL1   H1A 2413   5.820   0.901   6.834  0.5582  0.4360 -0.3976
   33CHL1   H1B 2414   5.645   0.922   6.813 -0.9365  0.5465 -1.4553
   33CHL1    C2 2415   5.760   0.979   6.634 -0.3044 -0.3282 -0.2044
   33CHL1   H2A 2416   5.750   0.883   6.581 -0.4638 -1.4475  1.7512
   33CHL1   H2B 2417   5.864   1.017   6.622 -0.2817 -0.6139 -0.9347
   33CHL1   C20 2418   5.756   1.110   7.565  0.3086 -0.3795  0.8865
   33CHL1   H20 2419   5.853   1.164   7.555  1.6142 -2.5834  0.9160
   33CHL1   C21 2420   5.787   0.955   7.583 -0.1970  0.1011  0.3310
   33CHL1  H21A 2421   5.832   0.910   7.492  1.5194 -0.7257  1.5391
   33CHL1  H21B 2422   5.686   0.913   7.603 -0.8342  0.1617 -2.3976
   33CHL1  H21C 2423   5.858   0.938   7.666 -0.8814 -1.7941  0.5804
   33CHL1   C22 2424   5.677   1.167   7.687  0.9070 -0.3804 -0.5558
   33CHL1  H22A 2425   5.677   1.278   7.687  0.3371 -0.3616  0.9795
   33CHL1  H22B 2426   5.570   1.138   7.674  0.2611  2.0228 -0.9797
   33CHL1   C23 2427   5.730   1.106   7.817 -0.0638  0.0406 -0.3348
   33CHL1  H23A 2428   5.709   0.997   7.830 -0.0087 -0.1054 -1.3510
   33CHL1  H23B 2429   5.841   1.110   7.809  0.2854 -1.6584  2.3274
   33CHL1   C24 2430   5.675   1.178   7.940 -0.7075  0.5259  0.7027
   33CHL1  H24A 2431   5.694   1.287   7.935 -0.6633  0.5147  0.6070
   33CHL1  H24B 2432   5.565   1.186   7.932 -0.6917  0.3320  0.2371
   33CHL1   C25 2433   5.700   1.118   8.080  0.6780 -0.3542  0.3607
   33CHL1   H25 2434   5.810   1.103   8.085  0.9197  1.4936  1.3618
   33CHL1   C26 2435   5.661   1.215   8.195  0.7333  0.2446  0.5740
   33CHL1  H26A 2436   5.717   1.310   8.177 -1.5760  1.5219 -0.2977
   33CHL1  H26B 2437   5.555   1.248   8.195  0.9695  1.0482  1.2719
   33CHL1  H26C 2438   5.678   1.176   8.298  4.6143  0.6022  0.2144
   33CHL1   C27 2439   5.618   0.984   8.097 -0.8726 -0.5809  0.1036
   33CHL1  H27A 2440   5.649   0.908   8.021  0.1882 -0.0426 -0.0263
   33CHL1  H27B 2441   5.639   0.950   8.200 -0.0164  1.7502  0.7708
   33CHL1  H27C 2442   5.509   0.998   8.111 -0.7959 -0.5657  0.7021
   34CHL1    C3 2443   6.704   6.446   7.116 -0.0895  0.1703 -0.4250
   34CHL1    H3 2444   6.639   6.532   7.145 -0.5496  0.2034 -1.5129
   34CHL1    O3 2445   6.720   6.446   6.976  0.3593 -0.0289  0.0731
   34CHL1   H3' 2446   6.759   6.359   6.963 -0.9443 -0.6319  0.0817
   34CHL1    C4 2447   6.847   6.465   7.182 -0.0743  0.0942  0.1000
   34CHL1   H4A 2448   6.919   6.400   7.128  0.7018  1.5315 -0.6402
   34CHL1   H4B 2449   6.882   6.565   7.149  0.0396 -0.3668 -1.2647
   34CHL1    C5 2450   6.849   6.445   7.330 -0.1138  0.0268  0.1011
   34CHL1    C6 2451   6.895   6.537   7.415 -0.3002  0.8658  0.2429
   34CHL1    H6 2452   6.930   6.635   7.378 -0.2049  0.9471  0.5521
   34CHL1    C7 2453   6.908   6.521   7.566  0.2233 -0.7440 -0.0495
   34CHL1   H7A 2454   7.006   6.565   7.596 -1.0009  3.1497 -1.2551
   34CHL1   H7B 2455   6.824   6.560   7.627  1.7807  0.1055  1.6807
   34CHL1    C8 2456   6.911   6.371   7.599 -0.1474 -0.0375  0.3024
   34CHL1    H8 2457   7.002   6.327   7.554 -1.1132  0.8786 -2.8660
   34CHL1   C14 2458   6.919   6.348   7.746  0.3173 -0.2223 -0.6363
   34CHL1   H14 2459   6.833   6.408   7.783 -2.1099 -1.9583 -3.0623
   34CHL1   C15 2460   7.046   6.404   7.816  0.3432  0.0959 -0.0837
   34CHL1  H15A 2461   7.138   6.392   7.754  0.1694  2.8627 -1.0009
   34CHL1  H15B 2462   7.037   6.512   7.841 -1.6380  0.1873 -1.0273
   34CHL1   C16 2463   7.061   6.332   7.948 -0.1897  0.7023 -0.2940
   34CHL1  H16A 2464   7.159   6.280   7.952 -0.8928 -0.8910 -2.1402
   34CHL1  H16B 2465   7.065   6.401   8.035 -0.1594  0.9848 -0.5172
   34CHL1   C17 2466   6.936   6.224   7.940 -0.5253 -0.3818  0.1299
   34CHL1   H17 2467   6.853   6.284   7.983 -3.0904 -2.5326 -1.4888
   34CHL1   C13 2468   6.901   6.207   7.792 -0.0718 -0.3231 -0.5465
   34CHL1   C18 2469   7.013   6.118   7.727 -0.2185  0.7237  0.2743
   34CHL1  H18A 2470   7.010   6.015   7.769 -0.8058  0.8458  0.5446
   34CHL1  H18B 2471   6.998   6.109   7.617 -1.5301 -0.3599  0.5138
   34CHL1  H18C 2472   7.113   6.160   7.751  0.1450 -0.1775  0.3631
   34CHL1   C12 2473   6.753   6.167   7.747  0.5858  0.2248  0.2883
   34CHL1  H12A 2474   6.734   6.062   7.779 -1.9771  0.2687 -0.8928
   34CHL1  H12B 2475   6.687   6.238   7.800  0.9379 -0.3802  1.5900
   34CHL1   C11 2476   6.737   6.182   7.596  0.4753  0.5704 -0.1908
   34CHL1  H11A 2477   6.791   6.095   7.553 -1.3995 -1.4124  1.1558
   34CHL1  H11B 2478   6.628   6.167   7.581  0.8657 -2.0639 -0.9796
   34CHL1    C9 2479   6.785   6.317   7.538 -0.5765 -0.2760  0.8761
   34CHL1    H9 2480   6.701   6.386   7.559 -1.3678 -0.4994 -1.2907
   34CHL1   C10 2481   6.795   6.317   7.378  0.2967 -0.1506 -0.3303
   34CHL1   C19 2482   6.881   6.198   7.330 -0.0011  0.4771 -0.2574
   34CHL1  H19A 2483   6.915   6.210   7.225  0.9647  2.2413  0.2078
   34CHL1  H19B 2484   6.970   6.188   7.396  0.6451  3.5216 -0.5108
   34CHL1  H19C 2485   6.821   6.105   7.330  3.6077 -2.0698  0.4983
   34CHL1    C1 2486   6.646   6.315   7.323 -0.7514 -0.0986 -0.2580
   34CHL1   H1A 2487   6.593   6.222   7.350  1.1757 -1.3291 -0.4835
   34CHL1   H1B 2488   6.598   6.405   7.367  1.1558  1.4934 -1.2559
   34CHL1    C2 2489   6.638   6.319   7.171 -0.5924 -0.1608  0.2149
   34CHL1   H2A 2490   6.537   6.333   7.127 -0.2266 -0.1942 -0.6674
   34CHL1   H2B 2491   6.684   6.229   7.123  3.6733  0.8082  2.0074
   34CHL1   C20 2492   6.969   6.105   8.024 -0.5674  0.2809 -0.6713
   34CHL1   H20 2493   7.059   6.056   7.980 -0.2222 -0.0424  0.3678
   34CHL1   C21 2494   6.850   6.015   8.027  0.6255 -0.0041  0.1171
   34CHL1  H21A 2495   6.844   5.937   7.948 -0.7441 -1.1813  1.3291
   34CHL1  H21B 2496   6.756   6.070   8.006  0.5474 -0.0274  0.4081
   34CHL1  H21C 2497   6.844   5.949   8.116 -2.1126  0.1366  0.1209
   34CHL1   C22 2498   7.002   6.143   8.177 -0.5209  0.7105 -0.1835
   34CHL1  H22A 2499   7.043   6.053   8.227 -1.4305 -0.7564 -1.9804
   34CHL1  H22B 2500   7.073   6.228   8.182 -0.3869  0.5494  2.7784
   34CHL1   C23 2501   6.880   6.194   8.259  0.1948 -0.2752 -0.2259
   34CHL1  H23A 2502   6.841   6.281   8.203  2.2401  0.8055 -0.0905
   34CHL1  H23B 2503   6.810   6.109   8.275 -0.1909  0.5482  3.6354
   34CHL1   C24 2504   6.918   6.247   8.400 -0.4179  1.0216 -0.7378
   34CHL1  H24A 2505   7.014   6.303   8.388 -0.1741  0.6047 -0.7696
   34CHL1  H24B 2506   6.850   6.316   8.453  1.4754  1.4162  1.3006
   34CHL1   C25 2507   6.949   6.132   8.506  0.5863  0.2786  0.3771
   34CHL1   H25 2508   7.002   6.053   8.449  0.0807  1.0654 -1.2308
   34CHL1   C26 2509   7.036   6.181   8.621  0.1346  0.4823 -0.3792
   34CHL1  H26A 2510   7.142   6.195   8.591  0.1294  2.3014  0.2911
   34CHL1  H26B 2511   6.990   6.276   8.658  1.9529  2.6250 -3.2140
   34CHL1  H26C 2512   7.039   6.106   8.703  3.3383  2.3179  1.4044
   34CHL1   C27 2513   6.827   6.069   8.571  0.7296  0.6289 -0.4504
   34CHL1  H27A 2514   6.776   6.135   8.645  0.6324 -0.3863  0.4102
   34CHL1  H27B 2515   6.751   6.047   8.493 -0.2385 -1.3713  0.9579
   34CHL1  H27C 2516   6.858   5.970   8.612 -0.1439  0.9754  1.1589
   35CHL1    C3 2517   3.235   0.382   6.844  0.2997  0.2814 -0.0234
   35CHL1    H3 2518   3.132   0.344   6.858  0.6788 -0.6453  0.4048
   35CHL1    O3 2519   3.273   0.366   6.707  0.0902  0.1175  0.0484
   35CHL1   H3' 2520   3.361   0.401   6.691  0.7965 -2.4604 -2.5066
   35CHL1    C4 2521   3.243   0.530   6.886  0.7588 -0.3365  0.1774
   35CHL1   H4A 2522   3.344   0.565   6.857  0.6405 -1.2875 -1.5073
   35CHL1   H4B 2523   3.166   0.589   6.831  1.0030 -0.3554 -0.1862
   35CHL1    C5 2524   3.210   0.552   7.038 -0.1993 -0.6452  0.1261
   35CHL1    C6 2525   3.121   0.639   7.082  0.2760 -0.3714 -0.6273
   35CHL1    H6 2526   3.061   0.707   7.019 -1.1778  0.0140  1.0802
   35CHL1    C7 2527   3.099   0.664   7.229  0.4033  0.2592 -0.1360
   35CHL1   H7A 2528   3.094   0.773   7.252  0.7046  0.6575 -1.8304
   35CHL1   H7B 2529   3.005   0.614   7.262  0.1821  0.6587 -0.1414
   35CHL1    C8 2530   3.211   0.599   7.321  0.3114  0.2349  0.1940
   35CHL1    H8 2531   3.293   0.674   7.321  1.3018 -0.8229 -0.7108
   35CHL1   C14 2532   3.161   0.600   7.468  0.0084 -0.6972  0.3327
   35CHL1   H14 2533   3.075   0.529   7.474  0.1446 -0.7742  1.5765
   35CHL1   C15 2534   3.100   0.731   7.525  0.0246 -0.0064 -0.3775
   35CHL1  H15A 2535   3.159   0.822   7.503 -1.1601  0.9643  0.3445
   35CHL1  H15B 2536   2.994   0.746   7.496 -0.1569  0.9848  0.7325
   35CHL1   C16 2537   3.112   0.719   7.687  0.2160  0.9396  0.3171
   35CHL1  H16A 2538   3.173   0.801   7.731  0.9422 -0.8306  2.8587
   35CHL1  H16B 2539   3.005   0.718   7.719  0.4842 -1.2364  1.3395
   35CHL1   C17 2540   3.180   0.575   7.699  0.4023 -0.6537 -0.6962
   35CHL1   H17 2541   3.099   0.501   7.685 -0.4476 -0.3275  1.9215
   35CHL1   C13 2542   3.260   0.560   7.564 -0.5375  0.0014  0.6762
   35CHL1   C18 2543   3.375   0.659   7.559  0.2143  0.7223  0.4856
   35CHL1  H18A 2544   3.430   0.632   7.467 -0.0697  3.1705 -0.4653
   35CHL1  H18B 2545   3.345   0.766   7.557 -2.5821  0.0261  0.0778
   35CHL1  H18C 2546   3.439   0.653   7.650 -0.4407  0.7086  0.9613
   35CHL1   C12 2547   3.312   0.414   7.524  0.1035  0.7348  0.0800
   35CHL1  H12A 2548   3.386   0.382   7.601 -0.1291 -0.6277 -0.2380
   35CHL1  H12B 2549   3.223   0.350   7.539 -0.3123  0.9000 -1.5419
   35CHL1   C11 2550   3.364   0.402   7.380  0.4936  0.0639  0.4468
   35CHL1  H11A 2551   3.465   0.448   7.376  1.5099 -1.9566  1.4417
   35CHL1  H11B 2552   3.391   0.298   7.353  1.4237  0.5645 -0.6456
   35CHL1    C9 2553   3.258   0.469   7.275 -0.4898 -0.0533 -0.5900
   35CHL1    H9 2554   3.176   0.395   7.288 -0.2291  0.1028  3.1484
   35CHL1   C10 2555   3.297   0.458   7.129  0.1324 -0.4390 -0.4983
   35CHL1   C19 2556   3.446   0.510   7.125 -0.4073 -0.3153  0.4681
   35CHL1  H19A 2557   3.452   0.609   7.175 -0.2147 -1.2093  2.2938
   35CHL1  H19B 2558   3.521   0.440   7.169  0.4854  0.5575  0.3529
   35CHL1  H19C 2559   3.486   0.540   7.026 -2.5260  3.1189  0.4887
   35CHL1    C1 2560   3.291   0.310   7.083  0.5814  0.4550  1.0749
   35CHL1   H1A 2561   3.358   0.249   7.147 -0.3466 -0.1067  1.5386
   35CHL1   H1B 2562   3.194   0.258   7.094  0.4219  0.7114  0.9110
   35CHL1    C2 2563   3.327   0.294   6.934 -0.8003  0.4416 -0.0530
   35CHL1   H2A 2564   3.307   0.192   6.895  1.6436 -0.4537  0.8661
   35CHL1   H2B 2565   3.434   0.309   6.910 -0.4412 -4.2979 -2.6024
   35CHL1   C20 2566   3.254   0.540   7.832  0.5673  0.1975  0.3634
   35CHL1   H20 2567   3.331   0.465   7.802  1.2773  0.3282  1.7904
   35CHL1   C21 2568   3.158   0.471   7.929 -0.2700  0.7675 -0.6294
   35CHL1  H21A 2569   3.118   0.375   7.891 -1.2303  1.4957 -1.5259
   35CHL1  H21B 2570   3.077   0.533   7.972 -0.8270  0.7102 -1.5863
   35CHL1  H21C 2571   3.210   0.442   8.023 -1.2479 -0.5575 -0.4750
   35CHL1   C22 2572   3.321   0.656   7.899 -0.5861  0.0856 -0.9265
   35CHL1  H22A 2573   3.382   0.711   7.823 -1.8761  1.9464 -0.6826
   35CHL1  H22B 2574   3.245   0.732   7.926 -1.0234 -0.2830 -1.1158
   35CHL1   C23 2575   3.415   0.619   8.029 -0.2724 -0.3332 -0.1418
   35CHL1  H23A 2576   3.339   0.620   8.110  0.0402 -2.1569  0.2072
   35CHL1  H23B 2577   3.462   0.518   8.028 -1.0478 -0.9435  4.1569
   35CHL1   C24 2578   3.521   0.729   8.063 -0.4228  0.1043  0.3119
   35CHL1  H24A 2579   3.605   0.728   7.991  1.5888  0.0059  2.5298
   35CHL1  H24B 2580   3.466   0.824   8.046 -2.2224 -1.0937 -0.9145
   35CHL1   C25 2581   3.569   0.730   8.208  0.6743  0.1113 -0.1178
   35CHL1   H25 2582   3.480   0.733   8.275 -0.3817 -1.3338 -1.3985
   35CHL1   C26 2583   3.640   0.597   8.244 -0.2309  0.0852  0.2004
   35CHL1  H26A 2584   3.709   0.561   8.164  0.8769 -1.1612  1.6643
   35CHL1  H26B 2585   3.699   0.593   8.338 -1.4963 -2.7367  0.9598
   35CHL1  H26C 2586   3.562   0.523   8.273 -0.0940  0.9170  3.0111
   35CHL1   C27 2587   3.653   0.859   8.246 -0.7975  0.2863 -0.4967
   35CHL1  H27A 2588   3.679   0.860   8.354 -1.6855  4.0814 -0.1668
   35CHL1  H27B 2589   3.606   0.956   8.220  0.0669  1.0416  0.6534
   35CHL1  H27C 2590   3.750   0.845   8.193 -1.2106 -2.4868 -0.6256
   36CHL1    C3 2591   2.604   5.890   7.039 -0.0157  0.1211  0.0429
   36CHL1    H3 2592   2.571   5.789   7.008  3.4681 -1.6425  1.5001
   36CHL1    O3 2593   2.605   5.984   6.938  0.4645 -0.5112 -0.1462
   36CHL1   H3' 2594   2.687   6.028   6.963 -0.0268  1.0383 -1.1201
   36CHL1    C4 2595   2.503   5.935   7.146 -0.0361 -0.6044 -0.3915
   36CHL1   H4A 2596   2.536   6.040   7.164  0.2841 -0.6691 -0.5787
   36CHL1   H4B 2597   2.400   5.952   7.108  0.0134 -0.1016 -0.3088
   36CHL1    C5 2598   2.512   5.848   7.273  0.0846 -0.7244 -0.9051
   36CHL1    C6 2599   2.399   5.780   7.317 -0.4951 -1.0097 -0.0759
   36CHL1    H6 2600   2.303   5.800   7.267 -0.2579 -0.3764 -0.2801
   36CHL1    C7 2601   2.387   5.705   7.441  0.5611  0.9419 -0.3779
   36CHL1   H7A 2602   2.304   5.732   7.509  0.9365 -3.3450  2.1932
   36CHL1   H7B 2603   2.396   5.595   7.429 -0.1160  0.7568  0.7087
   36CHL1    C8 2604   2.517   5.727   7.529 -0.2004 -0.0407 -0.1024
   36CHL1    H8 2605   2.499   5.828   7.573 -0.6734  0.0330 -0.4497
   36CHL1   C14 2606   2.527   5.612   7.631 -0.1525  0.4205  0.0829
   36CHL1   H14 2607   2.549   5.514   7.583  0.6705 -0.9680  3.0495
   36CHL1   C15 2608   2.398   5.582   7.717 -0.0234  0.5561 -0.3517
   36CHL1  H15A 2609   2.349   5.673   7.758 -0.3072  1.4234 -2.4813
   36CHL1  H15B 2610   2.325   5.520   7.662  0.6474 -2.1832  1.6351
   36CHL1   C16 2611   2.453   5.493   7.830  0.5138 -0.5442 -0.4740
   36CHL1  H16A 2612   2.417   5.545   7.922 -0.7449  0.3365 -1.4327
   36CHL1  H16B 2613   2.412   5.391   7.815 -0.1894 -0.3925  0.3298
   36CHL1   C17 2614   2.607   5.504   7.823 -0.6196  0.0795 -0.4115
   36CHL1   H17 2615   2.641   5.410   7.775  0.1421 -0.6453  1.4540
   36CHL1   C13 2616   2.645   5.621   7.726  0.3979 -0.5517 -0.4074
   36CHL1   C18 2617   2.631   5.755   7.811 -0.0030  0.2806 -1.0242
   36CHL1  H18A 2618   2.623   5.844   7.745 -2.3781  0.7713 -0.1695
   36CHL1  H18B 2619   2.540   5.760   7.874  1.5011  3.3512  1.2031
   36CHL1  H18C 2620   2.713   5.767   7.885 -0.7386  0.8010 -0.2685
   36CHL1   C12 2621   2.772   5.607   7.647  0.2319 -0.5026  0.1676
   36CHL1  H12A 2622   2.852   5.623   7.723  0.6744 -0.9551 -0.1974
   36CHL1  H12B 2623   2.788   5.505   7.605 -0.1365 -1.1785  1.5876
   36CHL1   C11 2624   2.778   5.714   7.536  0.2910  0.1061  0.2291
   36CHL1  H11A 2625   2.810   5.805   7.591 -1.2270 -0.2974  1.8625
   36CHL1  H11B 2626   2.861   5.698   7.464 -0.9072 -0.8080 -0.9847
   36CHL1    C9 2627   2.645   5.722   7.448  0.5810  0.8973 -0.3640
   36CHL1    H9 2628   2.634   5.633   7.384 -2.0199  0.4411  0.5641
   36CHL1   C10 2629   2.650   5.833   7.336 -0.0860 -0.0245 -0.0958
   36CHL1   C19 2630   2.700   5.973   7.395 -0.1865  0.7360  0.5577
   36CHL1  H19A 2631   2.804   5.950   7.426 -0.6944 -2.8794  0.0696
   36CHL1  H19B 2632   2.702   6.057   7.323  3.6089  0.0845 -0.2972
   36CHL1  H19C 2633   2.642   6.005   7.484 -1.8227 -0.4898 -0.0081
   36CHL1    C1 2634   2.744   5.783   7.219 -0.1666  0.4367  0.6005
   36CHL1   H1A 2635   2.848   5.780   7.257 -0.2583 -1.3441  0.8177
   36CHL1   H1B 2636   2.722   5.682   7.177  3.3994 -1.0483  1.9640
   36CHL1    C2 2637   2.745   5.882   7.095  0.7029  0.0385 -0.5799
   36CHL1   H2A 2638   2.826   5.859   7.023  0.5114  3.9631 -2.3027
   36CHL1   H2B 2639   2.766   5.983   7.134 -1.6399  0.3339  0.0918
   36CHL1   C20 2640   2.670   5.492   7.967 -0.5774 -0.7953  0.1087
   36CHL1   H20 2641   2.665   5.589   8.021  0.6556  0.9436 -2.6774
   36CHL1   C21 2642   2.819   5.449   7.955  0.3719  0.6802  0.1061
   36CHL1  H21A 2643   2.828   5.362   7.887  1.3790  0.4072  0.5607
   36CHL1  H21B 2644   2.870   5.423   8.051  0.4196  2.6306  0.6341
   36CHL1  H21C 2645   2.873   5.535   7.912 -1.2051  2.4286  1.4685
   36CHL1   C22 2646   2.597   5.386   8.048  0.4852  0.5224 -0.0672
   36CHL1  H22A 2647   2.496   5.422   8.075 -0.0024 -0.9063  0.1234
   36CHL1  H22B 2648   2.601   5.294   7.985 -1.0032  0.8850 -0.7332
   36CHL1   C23 2649   2.656   5.352   8.188  0.4544 -0.3700 -0.5567
   36CHL1  H23A 2650   2.585   5.273   8.220 -0.7484  1.3909  1.3787
   36CHL1  H23B 2651   2.762   5.321   8.183  0.0638 -1.7653 -0.6232
   36CHL1   C24 2652   2.647   5.471   8.289 -0.1123 -0.0222  0.2124
   36CHL1  H24A 2653   2.724   5.548   8.269  1.7187 -1.2842  2.0269
   36CHL1  H24B 2654   2.542   5.507   8.289 -0.0956  0.0951  1.7120
   36CHL1   C25 2655   2.677   5.432   8.439  0.0105 -0.2565 -0.4551
   36CHL1   H25 2656   2.612   5.349   8.474  1.6547 -0.8648  1.3027
   36CHL1   C26 2657   2.821   5.396   8.472 -0.1317  0.2147  0.1438
   36CHL1  H26A 2658   2.899   5.460   8.426  0.7174  1.4815  3.1296
   36CHL1  H26B 2659   2.848   5.391   8.580 -0.2007 -0.2491  0.1433
   36CHL1  H26C 2660   2.833   5.293   8.430 -1.2545  0.2092 -0.2063
   36CHL1   C27 2661   2.645   5.557   8.516  0.1438 -0.0498 -0.9201
   36CHL1  H27A 2662   2.658   5.545   8.625 -1.6330  1.0954 -0.5250
   36CHL1  H27B 2663   2.704   5.647   8.488  2.1999 -1.7941 -2.5447
   36CHL1  H27C 2664   2.538   5.588   8.507 -0.3815 -1.4327  0.2296
   37CHL1    C3 2665   0.607   2.024   7.107  0.1545  1.2417 -0.5940
   37CHL1    H3 2666   0.571   2.124   7.074  2.3976  1.9824 -0.9741
   37CHL1    O3 2667   0.638   1.950   6.985 -0.2871 -0.1713 -0.1890
   37CHL1   H3' 2668   0.556   1.927   6.940  0.1561 -1.1423 -0.5272
   37CHL1    C4 2669   0.730   2.054   7.199  0.3175 -0.4127  0.6322
   37CHL1   H4A 2670   0.800   1.968   7.203 -0.4496 -1.0360  1.1180
   37CHL1   H4B 2671   0.782   2.133   7.140 -2.7108  0.1610 -1.5136
   37CHL1    C5 2672   0.697   2.087   7.346 -0.1785 -0.2339  0.1866
   37CHL1    C6 2673   0.763   2.181   7.416 -0.0804 -0.2302 -0.3722
   37CHL1    H6 2674   0.832   2.249   7.365  0.0217 -0.8250 -1.0569
   37CHL1    C7 2675   0.736   2.209   7.563  0.3376  0.7955  0.5851
   37CHL1   H7A 2676   0.832   2.226   7.615 -0.4873  3.0008  1.4798
   37CHL1   H7B 2677   0.681   2.305   7.569 -1.1230 -0.0624  1.8644
   37CHL1    C8 2678   0.643   2.099   7.636 -0.0819  0.2010 -0.1368
   37CHL1    H8 2679   0.706   2.011   7.660  1.4649  1.0549 -0.9021
   37CHL1   C14 2680   0.590   2.158   7.758 -0.3710 -0.1082  0.1072
   37CHL1   H14 2681   0.523   2.245   7.740 -0.1490 -0.4801 -3.0510
   37CHL1   C15 2682   0.703   2.216   7.849  0.4138 -0.5145 -0.3270
   37CHL1  H15A 2683   0.780   2.136   7.852  1.5869  0.5886  1.5154
   37CHL1  H15B 2684   0.756   2.303   7.804  0.2263 -0.7242 -0.9573
   37CHL1   C16 2685   0.634   2.225   7.984 -0.4784  0.1257  0.2200
   37CHL1  H16A 2686   0.702   2.186   8.062  0.8760 -0.7719 -1.3682
   37CHL1  H16B 2687   0.618   2.329   8.021 -0.5675  0.2552 -0.1736
   37CHL1   C17 2688   0.497   2.145   7.975  0.1400  0.3231  0.6201
   37CHL1   H17 2689   0.413   2.216   7.957 -1.3394 -0.9823  2.0369
   37CHL1   C13 2690   0.508   2.060   7.847  0.5611  0.3901  0.8451
   37CHL1   C18 2691   0.584   1.937   7.883 -0.3123 -0.0439  0.0162
   37CHL1  H18A 2692   0.637   1.885   7.800  1.9779  1.5831  0.3800
   37CHL1  H18B 2693   0.656   1.941   7.968 -1.1728  0.6828  0.7387
   37CHL1  H18C 2694   0.508   1.863   7.916 -2.1642  1.5075 -0.6150
   37CHL1   C12 2695   0.391   2.028   7.761  0.9638  0.3229 -0.5753
   37CHL1  H12A 2696   0.318   1.956   7.804  0.6243  0.1182 -1.4867
   37CHL1  H12B 2697   0.327   2.116   7.741  0.1384 -0.1245  0.0122
   37CHL1   C11 2698   0.426   1.961   7.631 -0.1872  0.9924  0.3391
   37CHL1  H11A 2699   0.471   1.860   7.645  1.7828  1.7662 -0.1417
   37CHL1  H11B 2700   0.341   1.959   7.560  0.6513 -2.7412 -0.7929
   37CHL1    C9 2701   0.521   2.057   7.546 -0.0874  0.0348  0.5129
   37CHL1    H9 2702   0.469   2.151   7.518  1.2021  0.8017  0.6002
   37CHL1   C10 2703   0.573   2.005   7.409  0.2757  1.1598  0.1103
   37CHL1   C19 2704   0.632   1.861   7.424 -0.5894 -0.1103  0.2169
   37CHL1  H19A 2705   0.546   1.796   7.449 -0.1074 -1.1378 -0.6791
   37CHL1  H19B 2706   0.668   1.826   7.324 -0.0657  1.2985 -0.1092
   37CHL1  H19C 2707   0.710   1.850   7.502 -2.3381  0.5308  2.1346
   37CHL1    C1 2708   0.453   2.003   7.304 -0.3013  0.0393  0.2699
   37CHL1   H1A 2709   0.362   1.944   7.331  0.7029 -2.0686 -0.6740
   37CHL1   H1B 2710   0.434   2.112   7.294  0.1353 -0.0312 -1.6800
   37CHL1    C2 2711   0.493   1.942   7.171 -0.0057  0.3869  0.2103
   37CHL1   H2A 2712   0.402   1.941   7.107  0.9649  0.2665 -1.2236
   37CHL1   H2B 2713   0.521   1.835   7.179  1.5612  0.8142  0.8181
   37CHL1   C20 2714   0.467   2.078   8.112 -0.3908 -0.3194  0.3466
   37CHL1   H20 2715   0.541   1.998   8.133 -0.5019  0.1057  2.5592
   37CHL1   C21 2716   0.335   1.998   8.118 -0.0791 -0.9348 -0.1251
   37CHL1  H21A 2717   0.325   1.923   8.037 -1.4114 -0.4613 -0.4359
   37CHL1  H21B 2718   0.242   2.059   8.106 -0.1180 -1.0050 -0.1827
   37CHL1  H21C 2719   0.330   1.942   8.213 -1.2884 -0.7166 -0.0477
   37CHL1   C22 2720   0.487   2.169   8.242 -0.2131 -0.2142 -0.2792
   37CHL1  H22A 2721   0.460   2.120   8.338 -0.1497  0.0854 -0.1055
   37CHL1  H22B 2722   0.594   2.200   8.247 -0.9690  2.4963  1.9714
   37CHL1   C23 2723   0.407   2.299   8.251 -0.4943 -0.4511  0.6135
   37CHL1  H23A 2724   0.429   2.366   8.165 -1.4616  0.2921  0.9311
   37CHL1  H23B 2725   0.296   2.295   8.247 -0.4701 -0.1339 -1.2716
   37CHL1   C24 2726   0.423   2.381   8.385 -0.3292  0.0471  0.0612
   37CHL1  H24A 2727   0.374   2.478   8.363  1.3578  0.9898  0.2792
   37CHL1  H24B 2728   0.365   2.338   8.469 -2.8203  3.0626  0.0431
   37CHL1   C25 2729   0.561   2.411   8.442 -0.5721 -0.1038  0.0920
   37CHL1   H25 2730   0.604   2.312   8.469 -0.8371 -0.7663 -1.7394
   37CHL1   C26 2731   0.666   2.479   8.352 -0.6756  0.6666  0.3108
   37CHL1  H26A 2732   0.640   2.577   8.305  0.3247  0.3910 -0.8961
   37CHL1  H26B 2733   0.758   2.491   8.414 -0.7975 -2.3915  1.2357
   37CHL1  H26C 2734   0.693   2.406   8.272  0.7906  1.0551  0.4254
   37CHL1   C27 2735   0.536   2.495   8.563  0.2484  0.2265  0.1993
   37CHL1  H27A 2736   0.467   2.444   8.634 -1.1400  2.5750  0.6202
   37CHL1  H27B 2737   0.635   2.510   8.611  0.6855  0.4183 -0.7455
   37CHL1  H27C 2738   0.496   2.598   8.549  0.0767  0.1704  0.2723
   38CHL1    C3 2739   3.695   4.008   6.787 -0.0216  0.2268 -0.3821
   38CHL1    H3 2740   3.682   4.118   6.782  1.2689  0.3262 -2.8557
   38CHL1    O3 2741   3.676   3.972   6.647  0.2649 -0.6634  0.0263
   38CHL1   H3' 2742   3.679   3.876   6.654  0.9806 -0.5786  1.0258
   38CHL1    C4 2743   3.840   3.981   6.832  0.8086  0.1731  0.0476
   38CHL1   H4A 2744   3.863   3.875   6.808 -1.5598 -0.1798 -0.9383
   38CHL1   H4B 2745   3.906   4.036   6.761  0.5477  1.8082  0.9985
   38CHL1    C5 2746   3.880   4.014   6.972 -0.2531  0.0091  0.2042
   38CHL1    C6 2747   3.987   4.094   7.000  0.1302 -0.3399 -0.7662
   38CHL1    H6 2748   4.052   4.136   6.922  2.0071 -0.5786  0.5911
   38CHL1    C7 2749   4.025   4.119   7.150  0.6766  0.0217  0.7752
   38CHL1   H7A 2750   4.134   4.106   7.165  0.5218  0.2260  2.2449
   38CHL1   H7B 2751   3.992   4.221   7.177  0.1971  0.7069 -2.0984
   38CHL1    C8 2752   3.956   4.023   7.252 -0.5650 -0.4344 -0.2348
   38CHL1    H8 2753   4.010   3.927   7.238 -0.8483 -0.8141  1.0697
   38CHL1   C14 2754   3.987   4.065   7.396  0.8893 -0.2044 -0.2924
   38CHL1   H14 2755   3.930   4.158   7.416  2.3205  0.2394  2.1460
   38CHL1   C15 2756   4.123   4.107   7.453  0.5623 -0.1309 -0.0866
   38CHL1  H15A 2757   4.200   4.039   7.411  0.0035 -1.0663  0.3816
   38CHL1  H15B 2758   4.133   4.209   7.409 -0.6246 -0.3572 -0.9128
   38CHL1   C16 2759   4.106   4.098   7.605  0.1087  0.4016  0.0921
   38CHL1  H16A 2760   4.161   4.008   7.640 -2.0032 -0.3039  1.8273
   38CHL1  H16B 2761   4.129   4.189   7.666 -1.8895  0.3802  0.9586
   38CHL1   C17 2762   3.957   4.062   7.634  0.0746  0.5208 -0.1862
   38CHL1   H17 2763   3.911   4.162   7.618  1.3492  1.1376 -0.0733
   38CHL1   C13 2764   3.920   3.977   7.502 -0.2958  0.3202 -0.1823
   38CHL1   C18 2765   3.977   3.836   7.508  0.6185  1.1082  0.0061
   38CHL1  H18A 2766   3.946   3.774   7.595  0.8584  0.8425 -0.0956
   38CHL1  H18B 2767   3.957   3.772   7.419  0.5812 -1.4500  1.7329
   38CHL1  H18C 2768   4.088   3.843   7.513  0.7386  1.7711 -2.3780
   38CHL1   C12 2769   3.772   3.968   7.471 -0.2491  0.2200 -0.2123
   38CHL1  H12A 2770   3.732   3.908   7.555  1.9192 -0.9607  0.0434
   38CHL1  H12B 2771   3.722   4.065   7.491 -1.1103 -0.4851  1.2110
   38CHL1   C11 2772   3.738   3.919   7.336 -0.2347  0.4496  0.5565
   38CHL1  H11A 2773   3.770   3.813   7.326 -2.1234 -0.1264  0.2823
   38CHL1  H11B 2774   3.628   3.927   7.327 -0.2364 -0.0436  0.0476
   38CHL1    C9 2775   3.813   3.999   7.219 -0.0842 -0.9126  0.3817
   38CHL1    H9 2776   3.764   4.098   7.215  0.4161 -0.7193 -1.7672
   38CHL1   C10 2777   3.784   3.943   7.076  0.7299  0.4776 -0.4301
   38CHL1   C19 2778   3.807   3.791   7.071 -0.1725 -0.0841 -0.5713
   38CHL1  H19A 2779   3.768   3.738   6.981  0.1410 -3.5247  1.1379
   38CHL1  H19B 2780   3.916   3.771   7.059  0.4830  1.1077  2.5264
   38CHL1  H19C 2781   3.780   3.723   7.154 -1.8358  2.1255  0.8056
   38CHL1    C1 2782   3.635   3.975   7.042 -0.1011  0.3519 -0.4086
   38CHL1   H1A 2783   3.566   3.909   7.098 -0.6194  0.9715 -0.3075
   38CHL1   H1B 2784   3.613   4.081   7.066  0.1240  0.6109 -1.2774
   38CHL1    C2 2785   3.603   3.944   6.894  0.2102 -0.0553 -0.0119
   38CHL1   H2A 2786   3.494   3.965   6.885  0.0575 -0.4052  0.8974
   38CHL1   H2B 2787   3.603   3.834   6.887 -1.7302 -0.2247  1.7545
   38CHL1   C20 2788   3.925   4.002   7.773  0.6859 -0.1080  0.3612
   38CHL1   H20 2789   3.919   3.892   7.761 -1.8008  0.2617 -3.2006
   38CHL1   C21 2790   3.784   4.047   7.807  0.0387  0.7976  0.3929
   38CHL1  H21A 2791   3.711   4.010   7.732 -0.4023  1.0927  0.6690
   38CHL1  H21B 2792   3.782   4.158   7.802  0.2037  0.7417 -1.1894
   38CHL1  H21C 2793   3.747   4.021   7.909  0.5031  2.3704  0.9868
   38CHL1   C22 2794   4.036   4.028   7.878  0.1306 -0.3400 -0.5882
   38CHL1  H22A 2795   4.119   3.959   7.852 -1.8212 -1.6658 -3.8497
   38CHL1  H22B 2796   4.063   4.136   7.871 -2.0351  0.4636  1.7146
   38CHL1   C23 2797   3.980   4.014   8.018 -0.2540 -0.2533 -0.4036
   38CHL1  H23A 2798   3.897   4.086   8.030  1.6956  1.8171  1.5314
   38CHL1  H23B 2799   3.953   3.907   8.030  1.2269 -1.0974 -3.6058
   38CHL1   C24 2800   4.085   4.036   8.132  0.5807  0.4390  0.3941
   38CHL1  H24A 2801   4.179   3.990   8.096 -0.3673  0.1955 -1.9287
   38CHL1  H24B 2802   4.107   4.144   8.148 -0.6281  0.8233 -0.4174
   38CHL1   C25 2803   4.031   3.994   8.277  0.3193 -0.6451  0.1854
   38CHL1   H25 2804   3.999   3.888   8.266 -1.5269 -0.1732  0.7593
   38CHL1   C26 2805   4.151   3.993   8.373 -0.1675  0.9118 -0.0371
   38CHL1  H26A 2806   4.222   3.909   8.359  0.1578  1.5826 -3.2156
   38CHL1  H26B 2807   4.216   4.083   8.366  1.3227 -0.1492 -0.2743
   38CHL1  H26C 2808   4.124   3.990   8.481  2.4593 -1.4519  0.6697
   38CHL1   C27 2809   3.909   4.074   8.327  0.8046 -0.0651 -0.3371
   38CHL1  H27A 2810   3.816   4.037   8.280 -0.6658 -1.0098  3.0043
   38CHL1  H27B 2811   3.886   4.046   8.432 -1.4470  1.0313 -0.4815
   38CHL1  H27C 2812   3.913   4.184   8.315 -2.1374  0.1239 -0.3242
   39CHL1    C3 2813   4.635   3.015   6.918 -0.6075  1.3094 -0.3296
   39CHL1    H3 2814   4.725   2.963   6.957 -0.7247  0.6629 -0.9071
   39CHL1    O3 2815   4.636   3.012   6.773  0.1611 -0.3286  0.2391
   39CHL1   H3' 2816   4.705   3.074   6.748 -1.2812  1.4603  0.4709
   39CHL1    C4 2817   4.507   2.947   6.967 -0.0417 -0.2274 -0.4202
   39CHL1   H4A 2818   4.411   2.992   6.933 -0.1318 -0.0614  0.0529
   39CHL1   H4B 2819   4.503   2.843   6.929 -1.6020  0.3912 -2.1296
   39CHL1    C5 2820   4.505   2.943   7.119 -0.2680 -0.6179  0.1455
   39CHL1    C6 2821   4.500   2.824   7.185  0.2660 -0.3193 -0.2450
   39CHL1    H6 2822   4.497   2.724   7.138 -0.5037  0.4336 -1.9007
   39CHL1    C7 2823   4.479   2.813   7.330 -0.2062 -0.2046 -0.3536
   39CHL1   H7A 2824   4.396   2.745   7.357 -0.2870 -0.3932 -1.0537
   39CHL1   H7B 2825   4.576   2.782   7.373  0.8078  0.1016 -2.3128
   39CHL1    C8 2826   4.445   2.947   7.396  0.1462 -1.6729  0.4166
   39CHL1    H8 2827   4.336   2.961   7.384  0.5044 -0.8116 -2.6115
   39CHL1   C14 2828   4.480   2.939   7.547 -0.1396  0.1732  0.0364
   39CHL1   H14 2829   4.590   2.923   7.552  0.0974  1.2067 -1.3465
   39CHL1   C15 2830   4.429   2.824   7.635  0.1557 -0.4035 -0.1558
   39CHL1  H15A 2831   4.321   2.811   7.610  0.0123  0.7526 -0.1860
   39CHL1  H15B 2832   4.490   2.732   7.621  1.3825  0.2533  0.6307
   39CHL1   C16 2833   4.432   2.875   7.779  0.2079  0.0045  0.3559
   39CHL1  H16A 2834   4.339   2.835   7.824  1.8061 -2.2685  1.8408
   39CHL1  H16B 2835   4.511   2.814   7.828  0.1646 -0.8324 -0.6101
   39CHL1   C17 2836   4.466   3.029   7.765  0.3096  0.4215  0.6848
   39CHL1   H17 2837   4.576   3.040   7.779  0.4431 -0.1245  0.1188
   39CHL1   C13 2838   4.447   3.068   7.620  0.4321 -0.0455 -0.9303
   39CHL1   C18 2839   4.294   3.103   7.600  0.6298  0.0643  0.5141
   39CHL1  H18A 2840   4.273   3.198   7.652 -0.7642  0.4147 -0.6181
   39CHL1  H18B 2841   4.256   3.124   7.498  0.2874 -4.1856 -0.4528
   39CHL1  H18C 2842   4.225   3.027   7.643 -1.2609  2.1188  1.2385
   39CHL1   C12 2843   4.538   3.175   7.557 -0.9257 -0.2082 -0.6297
   39CHL1  H12A 2844   4.539   3.272   7.612 -0.2271  0.7866 -2.3013
   39CHL1  H12B 2845   4.638   3.128   7.572 -1.4415 -0.3544  3.1490
   39CHL1   C11 2846   4.509   3.194   7.415  0.1317 -0.3609  0.0261
   39CHL1  H11A 2847   4.408   3.239   7.402  0.4411  0.4103  0.2268
   39CHL1  H11B 2848   4.576   3.269   7.367 -0.3761 -1.4787 -2.5999
   39CHL1    C9 2849   4.515   3.064   7.340 -0.0469  0.4938  0.3002
   39CHL1    H9 2850   4.622   3.036   7.344 -0.5767 -1.8092 -0.2261
   39CHL1   C10 2851   4.497   3.080   7.190 -0.2680  0.9484  0.0846
   39CHL1   C19 2852   4.369   3.148   7.146  0.6035  0.0903 -0.0697
   39CHL1  H19A 2853   4.354   3.170   7.039 -0.1918 -2.0086 -0.4280
   39CHL1  H19B 2854   4.281   3.097   7.190 -0.7173  2.7068  0.5455
   39CHL1  H19C 2855   4.371   3.248   7.195 -0.8068  0.5063 -0.8181
   39CHL1    C1 2856   4.619   3.162   7.128 -0.4311  0.1914 -0.0940
   39CHL1   H1A 2857   4.602   3.265   7.165 -2.7858 -0.7991  1.9396
   39CHL1   H1B 2858   4.713   3.131   7.178 -2.1446 -0.6766  2.8302
   39CHL1    C2 2859   4.635   3.163   6.977 -0.3815  0.3439 -0.4703
   39CHL1   H2A 2860   4.733   3.208   6.955 -0.2548  1.0461  1.3449
   39CHL1   H2B 2861   4.558   3.228   6.930 -0.5655 -0.4189 -1.2596
   39CHL1   C20 2862   4.405   3.111   7.879 -0.3222 -0.5468 -0.1668
   39CHL1   H20 2863   4.295   3.127   7.871  0.0646  1.8131 -2.1483
   39CHL1   C21 2864   4.462   3.259   7.870  0.1322 -0.4351 -0.5076
   39CHL1  H21A 2865   4.572   3.274   7.865  0.2883 -1.8632 -2.3517
   39CHL1  H21B 2866   4.419   3.310   7.959  1.3730  0.6946 -0.5278
   39CHL1  H21C 2867   4.423   3.303   7.776 -1.7675 -0.8536  0.0493
   39CHL1   C22 2868   4.439   3.050   8.025 -0.0108  0.1174 -0.3509
   39CHL1  H22A 2869   4.407   2.943   8.023  2.0523 -0.5805  0.5442
   39CHL1  H22B 2870   4.550   3.047   8.031 -0.0355  0.7430  0.6861
   39CHL1   C23 2871   4.391   3.120   8.147 -1.0251 -0.1476  0.0215
   39CHL1  H23A 2872   4.436   3.079   8.240 -2.4085 -0.7162  0.4772
   39CHL1  H23B 2873   4.418   3.227   8.140  0.2801 -0.4087  0.7202
   39CHL1   C24 2874   4.238   3.116   8.157 -0.5460  0.4500  0.4428
   39CHL1  H24A 2875   4.186   3.143   8.063 -3.6984 -0.7338  1.7011
   39CHL1  H24B 2876   4.216   3.008   8.172  0.1949  0.0982 -0.8407
   39CHL1   C25 2877   4.176   3.195   8.275  1.0201  0.1110 -0.7149
   39CHL1   H25 2878   4.178   3.305   8.257 -3.5970  0.8065  1.4683
   39CHL1   C26 2879   4.029   3.155   8.291  0.2076 -0.1405 -0.4216
   39CHL1  H26A 2880   4.028   3.047   8.318  0.6226  0.2110  1.0980
   39CHL1  H26B 2881   3.984   3.223   8.366 -1.4562  0.3691 -1.8251
   39CHL1  H26C 2882   3.972   3.176   8.198 -0.5521  0.6941  0.2204
   39CHL1   C27 2883   4.247   3.178   8.410 -0.6085 -0.4599  0.7373
   39CHL1  H27A 2884   4.262   3.071   8.434  1.4307 -0.7281 -1.4192
   39CHL1  H27B 2885   4.352   3.213   8.420  0.1342 -1.7835 -1.7394
   39CHL1  H27C 2886   4.194   3.231   8.493  0.0133  1.5189 -0.0947
   40CHL1    C3 2887   6.167   0.909   6.739  0.3891  0.5291  0.0730
   40CHL1    H3 2888   6.066   0.947   6.768 -0.6558 -1.4797 -0.6720
   40CHL1    O3 2889   6.173   0.903   6.604  0.1997 -0.4034 -0.1029
   40CHL1   H3' 2890   6.267   0.890   6.594  0.1599 -1.2707  0.5764
   40CHL1    C4 2891   6.282   1.002   6.781 -0.1811  0.0429 -0.1470
   40CHL1   H4A 2892   6.378   0.953   6.756  0.2860  1.3828 -1.1186
   40CHL1   H4B 2893   6.290   1.098   6.726  0.3782  0.4955  0.6915
   40CHL1    C5 2894   6.264   1.023   6.932  0.1251 -0.1985  0.7893
   40CHL1    C6 2895   6.245   1.138   6.986 -0.1238  0.6334  0.0637
   40CHL1    H6 2896   6.263   1.222   6.917  0.1683  0.7034  0.2242
   40CHL1    C7 2897   6.235   1.178   7.135 -0.4063 -0.0470  0.4365
   40CHL1   H7A 2898   6.309   1.255   7.164 -0.8321  0.7537 -0.5598
   40CHL1   H7B 2899   6.134   1.218   7.156  0.0648  1.3327  0.1927
   40CHL1    C8 2900   6.268   1.054   7.223 -0.2101 -0.5359  0.1451
   40CHL1    H8 2901   6.378   1.043   7.225 -0.3664 -2.5345 -0.1997
   40CHL1   C14 2902   6.204   1.078   7.364  0.4935  0.2699  0.0463
   40CHL1   H14 2903   6.094   1.076   7.351  0.2576 -0.4703  1.7889
   40CHL1   C15 2904   6.240   1.204   7.445  0.4754 -0.0583 -0.7573
   40CHL1  H15A 2905   6.349   1.225   7.450  0.5924 -0.9180  1.7240
   40CHL1  H15B 2906   6.199   1.301   7.408  1.8424 -0.1156 -2.5190
   40CHL1   C16 2907   6.192   1.171   7.586  0.3413  1.0451 -0.2539
   40CHL1  H16A 2908   6.263   1.214   7.660  0.6966 -0.5719  0.3919
   40CHL1  H16B 2909   6.093   1.221   7.597 -0.3707 -0.3909  0.2437
   40CHL1   C17 2910   6.169   1.014   7.596  0.7260  0.4680 -1.1052
   40CHL1   H17 2911   6.059   1.006   7.587  0.1731  1.1056  2.9827
   40CHL1   C13 2912   6.229   0.967   7.462 -0.4926  0.9032 -0.6771
   40CHL1   C18 2913   6.383   0.948   7.485 -0.4236  0.1337 -0.7802
   40CHL1  H18A 2914   6.431   0.931   7.386 -1.7870 -0.2354 -1.4036
   40CHL1  H18B 2915   6.423   1.040   7.531  1.4171 -0.7016 -0.6438
   40CHL1  H18C 2916   6.408   0.865   7.554  1.3169  0.3537 -1.1167
   40CHL1   C12 2917   6.179   0.841   7.397  0.5535  0.6754 -0.8218
   40CHL1  H12A 2918   6.200   0.756   7.465  0.1146  2.4837  1.7296
   40CHL1  H12B 2919   6.069   0.855   7.393  0.2091 -1.5943 -0.8244
   40CHL1   C11 2920   6.236   0.808   7.261 -0.0503  0.5895 -0.1972
   40CHL1  H11A 2921   6.341   0.771   7.266 -0.2944 -0.3943 -1.7628
   40CHL1  H11B 2922   6.181   0.720   7.220 -0.1882  1.4493 -1.9309
   40CHL1    C9 2923   6.220   0.924   7.162  0.7892  0.3097 -0.1440
   40CHL1    H9 2924   6.110   0.938   7.152  0.6304 -1.0537 -0.4680
   40CHL1   C10 2925   6.267   0.889   7.015  0.1035 -0.4370 -0.0965
   40CHL1   C19 2926   6.416   0.853   7.017  1.0532 -0.3199  0.3013
   40CHL1  H19A 2927   6.427   0.751   7.060 -0.6890 -1.0867 -0.9791
   40CHL1  H19B 2928   6.458   0.848   6.914 -1.2973 -0.7424 -0.6844
   40CHL1  H19C 2929   6.480   0.927   7.070  0.9298  1.4261 -1.8611
   40CHL1    C1 2930   6.179   0.781   6.948  0.8065 -0.1041  0.4683
   40CHL1   H1A 2931   6.206   0.679   6.982 -1.8167 -1.4059 -1.0679
   40CHL1   H1B 2932   6.074   0.780   6.985  0.5215  0.5174 -0.2987
   40CHL1    C2 2933   6.174   0.769   6.799 -0.2379  0.5734  0.2065
   40CHL1   H2A 2934   6.103   0.704   6.744  0.4944  0.6789 -0.8976
   40CHL1   H2B 2935   6.278   0.735   6.780 -0.2009 -0.5594  2.1320
   40CHL1   C20 2936   6.207   0.945   7.722 -0.0054  0.4474 -0.4453
   40CHL1   H20 2937   6.317   0.954   7.737 -0.0320  0.7550 -0.4245
   40CHL1   C21 2938   6.179   0.791   7.724 -0.0618  0.0420  0.2662
   40CHL1  H21A 2939   6.131   0.757   7.819  1.4446  0.8566  1.3502
   40CHL1  H21B 2940   6.273   0.743   7.691  1.4784  2.2037  1.3057
   40CHL1  H21C 2941   6.096   0.783   7.650  1.6978  2.4511 -2.1842
   40CHL1   C22 2942   6.138   1.013   7.844  0.4618 -0.1096  0.0449
   40CHL1  H22A 2943   6.121   1.122   7.833  0.1582 -0.0551  1.0077
   40CHL1  H22B 2944   6.038   0.967   7.841  0.1343  0.6063 -0.3174
   40CHL1   C23 2945   6.213   0.991   7.979  0.4814  1.1441  0.4612
   40CHL1  H23A 2946   6.190   0.884   7.996  0.0133  1.3326  1.0391
   40CHL1  H23B 2947   6.324   0.998   7.979  0.7732 -1.9129 -1.0496
   40CHL1   C24 2948   6.164   1.057   8.106 -0.0744 -0.2983  0.1731
   40CHL1  H24A 2949   6.055   1.042   8.119 -0.2839 -1.2038 -2.0595
   40CHL1  H24B 2950   6.226   1.021   8.190  1.7760  1.3975 -0.3857
   40CHL1   C25 2951   6.187   1.208   8.100  0.4115  0.0290  0.0263
   40CHL1   H25 2952   6.162   1.254   8.002  1.4255  0.7086  0.0698
   40CHL1   C26 2953   6.105   1.287   8.204  0.0615 -0.3550  0.4156
   40CHL1  H26A 2954   5.997   1.262   8.198  0.6129 -2.8052 -0.3748
   40CHL1  H26B 2955   6.142   1.260   8.305  0.7577 -0.4138  0.1505
   40CHL1  H26C 2956   6.122   1.397   8.195 -2.2178 -0.0183 -0.5991
   40CHL1   C27 2957   6.337   1.238   8.117  0.1080 -0.9468 -0.0492
   40CHL1  H27A 2958   6.349   1.349   8.109 -2.4183 -0.4445  1.9622
   40CHL1  H27B 2959   6.358   1.207   8.221 -2.1947 -1.1774  0.4032
   40CHL1  H27C 2960   6.412   1.205   8.042  2.7664  0.9680  1.5901
   41CHL1    C3 2961   6.386   1.687   6.853 -0.6509  0.1683 -0.1434
   41CHL1    H3 2962   6.276   1.696   6.867 -0.4287  3.7409  0.2608
   41CHL1    O3 2963   6.404   1.695   6.711  0.8355 -0.2267  0.2131
   41CHL1   H3' 2964   6.477   1.753   6.685 -0.4587  1.1480 -0.5015
   41CHL1    C4 2965   6.465   1.796   6.927  0.3670  0.8663  0.3119
   41CHL1   H4A 2966   6.574   1.778   6.915  0.2243 -1.0322  1.4782
   41CHL1   H4B 2967   6.461   1.897   6.882 -0.8980 -0.0922 -1.9127
   41CHL1    C5 2968   6.417   1.782   7.072  0.2935 -0.2521  0.1868
   41CHL1    C6 2969   6.362   1.893   7.127 -0.8410  0.9627  0.0608
   41CHL1    H6 2970   6.352   1.980   7.061 -0.0999 -0.6007 -2.2488
   41CHL1    C7 2971   6.327   1.898   7.275  0.1829 -0.5591 -0.1147
   41CHL1   H7A 2972   6.366   1.987   7.328 -1.2919  0.6466 -0.9760
   41CHL1   H7B 2973   6.218   1.891   7.296 -0.1210 -3.3782 -2.0547
   41CHL1    C8 2974   6.390   1.772   7.354 -0.1074 -1.0789  0.4397
   41CHL1    H8 2975   6.498   1.794   7.358  0.3232 -2.7455 -0.7941
   41CHL1   C14 2976   6.335   1.777   7.489 -0.4308  0.8497 -0.6055
   41CHL1   H14 2977   6.224   1.769   7.489 -0.6642  3.4592 -0.6279
   41CHL1   C15 2978   6.353   1.899   7.572 -0.0224  0.3193  0.5270
   41CHL1  H15A 2979   6.454   1.940   7.553 -0.5872  1.0235 -1.1194
   41CHL1  H15B 2980   6.292   1.987   7.541 -1.9643  0.4073  4.0138
   41CHL1   C16 2981   6.335   1.860   7.715  0.4793  0.4564 -0.1593
   41CHL1  H16A 2982   6.427   1.886   7.772  0.7134 -0.6568 -0.0226
   41CHL1  H16B 2983   6.248   1.916   7.756  0.1741  0.0212 -0.2081
   41CHL1   C17 2984   6.317   1.706   7.714  0.6551  0.1528  0.5975
   41CHL1   H17 2985   6.210   1.678   7.702  0.5698  1.3440 -2.4226
   41CHL1   C13 2986   6.389   1.665   7.579 -0.3092  0.0533 -0.1084
   41CHL1   C18 2987   6.542   1.684   7.610  0.0371  0.1588  0.3790
   41CHL1  H18A 2988   6.581   1.592   7.658  3.1125  1.4381  0.5789
   41CHL1  H18B 2989   6.607   1.695   7.520  0.0309  0.0835  0.3645
   41CHL1  H18C 2990   6.575   1.768   7.673 -0.4685 -0.4318  1.4547
   41CHL1   C12 2991   6.366   1.533   7.515 -0.2063  0.6030 -0.1822
   41CHL1  H12A 2992   6.430   1.459   7.566  0.1848 -1.6309 -3.5771
   41CHL1  H12B 2993   6.257   1.512   7.521 -0.2780  0.6702 -1.1060
   41CHL1   C11 2994   6.428   1.533   7.373  0.2816  0.4838  0.5450
   41CHL1  H11A 2995   6.539   1.531   7.385  0.6685  0.2702 -2.2775
   41CHL1  H11B 2996   6.397   1.437   7.326 -2.7120  1.8184 -0.4555
   41CHL1    C9 2997   6.381   1.646   7.278 -0.4677 -0.2650  0.3778
   41CHL1    H9 2998   6.273   1.623   7.265 -0.6171  0.2972  0.6081
   41CHL1   C10 2999   6.440   1.646   7.137 -0.0557  0.2830 -0.2860
   41CHL1   C19 3000   6.593   1.616   7.146  0.1615 -0.2663  0.3361
   41CHL1  H19A 3001   6.651   1.697   7.196  1.2459 -0.3523 -0.7202
   41CHL1  H19B 3002   6.613   1.518   7.194  0.4381  0.0681  0.9251
   41CHL1  H19C 3003   6.637   1.604   7.044 -2.2698  1.3533 -1.0012
   41CHL1    C1 3004   6.373   1.536   7.051  0.1565  0.3433 -0.7810
   41CHL1   H1A 3005   6.397   1.432   7.083  1.8070  0.8175 -0.3790
   41CHL1   H1B 3006   6.264   1.552   7.051 -0.2281 -1.8399  0.6093
   41CHL1    C2 3007   6.419   1.544   6.905  0.2034  0.1231  0.0552
   41CHL1   H2A 3008   6.356   1.468   6.854  0.0308  0.7505 -0.6800
   41CHL1   H2B 3009   6.525   1.511   6.898  0.6681  1.1418  1.7450
   41CHL1   C20 3010   6.368   1.643   7.847  0.0788 -0.5467  1.0125
   41CHL1   H20 3011   6.476   1.669   7.847 -0.3671  1.5234  0.7947
   41CHL1   C21 3012   6.346   1.498   7.844 -0.7814  0.2376 -0.1544
   41CHL1  H21A 3013   6.394   1.451   7.755 -3.3652 -1.4749 -0.7439
   41CHL1  H21B 3014   6.237   1.476   7.837 -1.2067  1.9632  0.6734
   41CHL1  H21C 3015   6.392   1.445   7.930  0.6794  0.5223 -0.7360
   41CHL1   C22 3016   6.321   1.722   7.971 -0.1313 -0.0651  0.3905
   41CHL1  H22A 3017   6.334   1.832   7.969 -1.5859  0.1052 -0.6326
   41CHL1  H22B 3018   6.217   1.689   7.989  0.7354 -1.9809  2.4023
   41CHL1   C23 3019   6.417   1.683   8.087 -0.4951 -0.3219  0.4386
   41CHL1  H23A 3020   6.416   1.573   8.099  0.6959 -0.7249 -2.3420
   41CHL1  H23B 3021   6.524   1.703   8.065 -0.3642  0.0586  1.4016
   41CHL1   C24 3022   6.360   1.745   8.217  0.1280 -0.0166  0.3243
   41CHL1  H24A 3023   6.389   1.851   8.227 -2.9724  1.1267 -1.3007
   41CHL1  H24B 3024   6.249   1.740   8.231  0.1750  0.0256  0.7125
   41CHL1   C25 3025   6.417   1.675   8.342 -0.5050  0.4216 -0.5471
   41CHL1   H25 3026   6.373   1.728   8.429  0.9044 -1.4578  1.3905
   41CHL1   C26 3027   6.378   1.533   8.367  0.5316  0.5550 -0.3345
   41CHL1  H26A 3028   6.280   1.501   8.326  0.8365 -0.9519  0.0531
   41CHL1  H26B 3029   6.444   1.456   8.321 -1.6117 -0.5799 -1.6675
   41CHL1  H26C 3030   6.377   1.515   8.476 -0.0517 -2.6665 -0.7965
   41CHL1   C27 3031   6.568   1.693   8.351 -0.6200 -0.9387  0.1865
   41CHL1  H27A 3032   6.608   1.629   8.269 -0.0686  1.6214 -1.6626
   41CHL1  H27B 3033   6.599   1.796   8.323  1.0582 -0.9133  1.9178
   41CHL1  H27C 3034   6.611   1.665   8.450  0.0675 -1.0596 -0.1343
   42CHL1    C3 3035   0.272   5.567   6.769  0.1716 -0.1652  0.1044
   42CHL1    H3 3036   0.189   5.638   6.788  0.4482 -0.2222  1.6380
   42CHL1    O3 3037   0.299   5.556   6.631  0.2674  0.0028 -0.9041
   42CHL1   H3' 3038   0.375   5.496   6.626 -0.3302 -0.8077 -0.4180
   42CHL1    C4 3039   0.399   5.625   6.828 -0.8037 -0.4680 -0.0062
   42CHL1   H4A 3040   0.474   5.545   6.809 -1.0317 -0.7874  0.4209
   42CHL1   H4B 3041   0.431   5.720   6.780 -1.2312 -0.7215 -0.8094
   42CHL1    C5 3042   0.396   5.629   6.980  0.2589  0.5468  0.6969
   42CHL1    C6 3043   0.416   5.744   7.043  0.5772  0.2556 -0.4553
   42CHL1    H6 3044   0.425   5.830   6.975 -2.9322 -0.4635 -2.0645
   42CHL1    C7 3045   0.406   5.762   7.189 -0.7273  0.1396  0.0417
   42CHL1   H7A 3046   0.488   5.826   7.226 -1.3910  0.0605  1.7396
   42CHL1   H7B 3047   0.309   5.815   7.207 -1.0423 -0.2748 -0.4014
   42CHL1    C8 3048   0.402   5.625   7.263 -0.2564  0.0447 -0.5749
   42CHL1    H8 3049   0.509   5.597   7.272 -0.0103  1.1541  0.2176
   42CHL1   C14 3050   0.340   5.647   7.402  0.6463 -0.0723  0.8887
   42CHL1   H14 3051   0.230   5.656   7.391  0.0560 -1.6587  4.1700
   42CHL1   C15 3052   0.374   5.772   7.481  0.5267  0.5902  0.9077
   42CHL1  H15A 3053   0.485   5.773   7.487  0.5313  1.3086  0.7300
   42CHL1  H15B 3054   0.342   5.873   7.449  0.0065  0.1501 -0.0002
   42CHL1   C16 3055   0.320   5.741   7.620 -0.2581  0.2563 -0.1890
   42CHL1  H16A 3056   0.386   5.749   7.708  0.3299 -1.5986 -0.4047
   42CHL1  H16B 3057   0.227   5.798   7.643 -0.0780 -0.3746  2.3607
   42CHL1   C17 3058   0.280   5.585   7.617 -0.3167 -0.6996  0.0145
   42CHL1   H17 3059   0.170   5.589   7.611 -0.3697  2.7434  1.4431
   42CHL1   C13 3060   0.344   5.523   7.492 -0.7404  0.2717 -0.1841
   42CHL1   C18 3061   0.482   5.488   7.502 -0.3769  0.2704  0.4267
   42CHL1  H18A 3062   0.500   5.448   7.604 -2.3569 -0.0978  0.6715
   42CHL1  H18B 3063   0.514   5.406   7.435 -2.2108  1.0016 -1.4341
   42CHL1  H18C 3064   0.554   5.573   7.506 -0.0864  0.1415 -1.2567
   42CHL1   C12 3065   0.257   5.418   7.420 -0.0460  0.0097 -0.5608
   42CHL1  H12A 3066   0.232   5.325   7.476 -0.2868 -1.0412 -2.3212
   42CHL1  H12B 3067   0.157   5.463   7.408 -0.1271 -0.1467 -0.4781
   42CHL1   C11 3068   0.304   5.380   7.286 -0.1148  0.0727 -0.3316
   42CHL1  H11A 3069   0.390   5.311   7.299 -1.5032 -1.4558  1.3130
   42CHL1  H11B 3070   0.227   5.318   7.234  0.5978 -1.0626 -0.0645
   42CHL1    C9 3071   0.318   5.513   7.203  0.6797  0.6333  0.0976
   42CHL1    H9 3072   0.213   5.549   7.201  0.3054 -0.4382 -0.4050
   42CHL1   C10 3073   0.354   5.493   7.050 -0.1882  1.3704  0.7708
   42CHL1   C19 3074   0.472   5.393   7.047  0.0895  0.3512 -0.9250
   42CHL1  H19A 3075   0.443   5.294   7.089  3.6794  0.9462  3.9253
   42CHL1  H19B 3076   0.517   5.387   6.946 -2.5203 -2.2702 -2.0738
   42CHL1  H19C 3077   0.548   5.430   7.120 -0.1222 -1.6274  0.3802
   42CHL1    C1 3078   0.234   5.429   6.976 -0.5809 -0.8447 -0.0816
   42CHL1   H1A 3079   0.234   5.320   6.997  0.6429 -0.5553  1.6784
   42CHL1   H1B 3080   0.137   5.475   7.008 -0.4550  0.0152 -0.8953
   42CHL1    C2 3081   0.245   5.429   6.826  0.5502 -0.1050  0.3127
   42CHL1   H2A 3082   0.153   5.393   6.775 -0.2934  2.1436  0.1724
   42CHL1   H2B 3083   0.331   5.364   6.796  1.9521  1.3341  1.0756
   42CHL1   C20 3084   0.312   5.521   7.762  0.3486  0.4113 -0.7625
   42CHL1   H20 3085   0.415   5.553   7.788 -0.4041  1.1110  1.6445
   42CHL1   C21 3086   0.286   5.368   7.755  0.6925  0.5502 -0.0087
   42CHL1  H21A 3087   0.302   5.334   7.860  1.1671  0.8296  0.0104
   42CHL1  H21B 3088   0.365   5.321   7.693  1.6902  1.1427  0.7878
   42CHL1  H21C 3089   0.184   5.345   7.716  1.1137 -0.3612 -0.6118
   42CHL1   C22 3090   0.229   5.590   7.875 -0.2331  0.2685  0.1162
   42CHL1  H22A 3091   0.200   5.692   7.843  0.2366  0.5037  0.4254
   42CHL1  H22B 3092   0.136   5.533   7.896  0.9914 -2.2108 -0.7516
   42CHL1   C23 3093   0.305   5.618   8.000 -0.3392 -0.4559  0.7240
   42CHL1  H23A 3094   0.358   5.531   8.045 -2.1843 -1.9761  0.1048
   42CHL1  H23B 3095   0.378   5.695   7.967  0.1862 -1.1489  0.2596
   42CHL1   C24 3096   0.217   5.667   8.118 -0.3310  0.1211 -0.4125
   42CHL1  H24A 3097   0.154   5.751   8.083  0.1918  0.3414 -0.8501
   42CHL1  H24B 3098   0.149   5.586   8.149 -1.4448  1.0939 -0.2544
   42CHL1   C25 3099   0.293   5.726   8.243  0.8701 -0.3266  0.4543
   42CHL1   H25 3100   0.328   5.828   8.220  2.0415 -0.6228  0.8648
   42CHL1   C26 3101   0.188   5.739   8.360  0.1653 -0.4996 -0.3729
   42CHL1  H26A 3102   0.241   5.783   8.447  0.5256  1.3839 -1.4968
   42CHL1  H26B 3103   0.111   5.810   8.324 -1.1764 -1.0341  1.2769
   42CHL1  H26C 3104   0.146   5.640   8.390 -0.9342 -0.4761 -1.7425
   42CHL1   C27 3105   0.415   5.645   8.290  0.7328 -0.1683 -0.3320
   42CHL1  H27A 3106   0.494   5.642   8.212 -0.5953 -0.7259 -1.6736
   42CHL1  H27B 3107   0.387   5.542   8.321 -0.0076  0.2553  0.4502
   42CHL1  H27C 3108   0.457   5.699   8.378 -1.7763 -0.5275  1.1729
   43CHL1    C3 3109   1.229   2.416   6.774 -0.1719  0.5827  0.2385
   43CHL1    H3 3110   1.134   2.474   6.781  0.3088  1.3759  0.2749
   43CHL1    O3 3111   1.268   2.403   6.639 -0.1637 -0.0353 -0.3949
   43CHL1   H3' 3112   1.288   2.309   6.632 -1.4414 -0.3384 -0.2806
   43CHL1    C4 3113   1.323   2.494   6.864  0.2141  0.2464 -0.2944
   43CHL1   H4A 3114   1.427   2.463   6.841  0.2614 -0.5645  0.9417
   43CHL1   H4B 3115   1.325   2.593   6.812 -0.3129 -1.3381 -3.5762
   43CHL1    C5 3116   1.291   2.500   7.006 -0.4263 -0.0958  0.3931
   43CHL1    C6 3117   1.272   2.617   7.068  0.0266  0.1953 -0.3080
   43CHL1    H6 3118   1.276   2.713   7.015  1.2968  2.0879  2.9153
   43CHL1    C7 3119   1.234   2.625   7.218 -1.2569  0.0228 -0.9570
   43CHL1   H7A 3120   1.293   2.698   7.277 -0.3459 -1.7277  0.3764
   43CHL1   H7B 3121   1.129   2.647   7.246 -0.0673  2.2285  2.3363
   43CHL1    C8 3122   1.266   2.486   7.286 -0.1829 -1.2790 -0.0122
   43CHL1    H8 3123   1.377   2.485   7.293 -0.0718  0.7063 -0.8130
   43CHL1   C14 3124   1.188   2.481   7.423  0.1760  0.9377 -0.7265
   43CHL1   H14 3125   1.081   2.459   7.406  0.2366 -0.1586  0.1464
   43CHL1   C15 3126   1.194   2.607   7.514  0.5667 -0.4874 -0.1556
   43CHL1  H15A 3127   1.299   2.642   7.521  0.1237  1.8325 -2.9723
   43CHL1  H15B 3128   1.118   2.677   7.471 -0.2727 -0.8366  0.7303
   43CHL1   C16 3129   1.150   2.554   7.647 -0.4767 -0.4334  1.2622
   43CHL1  H16A 3130   1.208   2.602   7.729 -3.1939 -0.0200  3.0930
   43CHL1  H16B 3131   1.048   2.594   7.669 -0.9564  1.1601 -2.8876
   43CHL1   C17 3132   1.157   2.399   7.644  0.8030  0.1661  0.2592
   43CHL1   H17 3133   1.053   2.365   7.626  1.0765 -0.8111  0.4827
   43CHL1   C13 3134   1.231   2.369   7.510 -0.1982 -0.1429 -0.5775
   43CHL1   C18 3135   1.380   2.373   7.536 -0.7370  0.2355 -0.1320
   43CHL1  H18A 3136   1.409   2.478   7.557 -1.6087  0.6991 -1.1362
   43CHL1  H18B 3137   1.406   2.311   7.624 -2.1133  0.6337  0.5754
   43CHL1  H18C 3138   1.442   2.344   7.448 -0.8022 -1.0505  0.2291
   43CHL1   C12 3139   1.178   2.239   7.436 -0.7717 -0.1273  0.0391
   43CHL1  H12A 3140   1.212   2.146   7.487 -1.2253 -0.3767 -0.1038
   43CHL1  H12B 3141   1.067   2.241   7.438 -0.8349 -2.0341  0.5735
   43CHL1   C11 3142   1.237   2.234   7.297  0.1085  0.1060  0.5633
   43CHL1  H11A 3143   1.346   2.216   7.312 -0.3378 -4.4828 -0.3657
   43CHL1  H11B 3144   1.204   2.144   7.241 -0.3735  0.7548 -0.2203
   43CHL1    C9 3145   1.223   2.364   7.210  0.4219 -0.4020 -0.0600
   43CHL1    H9 3146   1.114   2.380   7.195  0.4244 -0.0669  0.2807
   43CHL1   C10 3147   1.282   2.357   7.070  0.0987 -0.2037 -0.2044
   43CHL1   C19 3148   1.421   2.304   7.076  0.1094  0.2957  0.7640
   43CHL1  H19A 3149   1.490   2.358   7.144 -0.4320 -0.6266  2.0961
   43CHL1  H19B 3150   1.416   2.199   7.111 -0.7127 -0.6091 -1.8816
   43CHL1  H19C 3151   1.458   2.298   6.971 -0.2380  1.3320  0.5687
   43CHL1    C1 3152   1.195   2.262   6.982  0.0669 -0.3789  0.7541
   43CHL1   H1A 3153   1.195   2.154   7.009 -4.2467 -0.1585  2.4810
   43CHL1   H1B 3154   1.086   2.286   6.985  0.3155  0.7570  0.8328
   43CHL1    C2 3155   1.234   2.273   6.828 -0.4711  1.2999 -0.0576
   43CHL1   H2A 3156   1.161   2.213   6.770 -1.3632  0.6765  1.6625
   43CHL1   H2B 3157   1.325   2.214   6.803 -0.6124  1.1525 -0.2299
   43CHL1   C20 3158   1.212   2.342   7.776 -0.7398  0.1319 -0.1351
   43CHL1   H20 3159   1.317   2.378   7.786 -1.1540  1.5981 -0.8039
   43CHL1   C21 3160   1.214   2.185   7.757  0.8197 -0.6903 -0.3636
   43CHL1  H21A 3161   1.112   2.143   7.747  0.2847 -0.7153  3.5849
   43CHL1  H21B 3162   1.253   2.124   7.842 -2.7810 -1.0127  1.2245
   43CHL1  H21C 3163   1.282   2.149   7.677  0.2623 -3.5235  0.2951
   43CHL1   C22 3164   1.122   2.381   7.900  0.5823 -0.2462  0.2196
   43CHL1  H22A 3165   1.079   2.483   7.897  0.3653 -0.3457 -0.1199
   43CHL1  H22B 3166   1.031   2.317   7.894 -0.4133  1.2368 -1.5601
   43CHL1   C23 3167   1.180   2.353   8.036 -0.3561 -0.1620  0.5747
   43CHL1  H23A 3168   1.222   2.250   8.034 -1.1767 -0.5150 -1.5986
   43CHL1  H23B 3169   1.255   2.424   8.079 -1.3332  0.9787  0.4446
   43CHL1   C24 3170   1.070   2.349   8.145  0.1432  0.0544  1.0839
   43CHL1  H24A 3171   1.005   2.440   8.140 -0.6444 -0.5537 -0.1635
   43CHL1  H24B 3172   1.010   2.258   8.126  0.2279  0.6545 -2.8327
   43CHL1   C25 3173   1.133   2.346   8.288 -0.0933  0.2537  0.2956
   43CHL1   H25 3174   1.208   2.428   8.294  1.6740 -1.2292 -0.5690
   43CHL1   C26 3175   1.027   2.368   8.395 -0.0755 -0.2638  0.8088
   43CHL1  H26A 3176   0.963   2.277   8.399  1.4811 -1.5453 -0.9872
   43CHL1  H26B 3177   1.073   2.384   8.495 -2.0529  0.4927  1.6313
   43CHL1  H26C 3178   0.967   2.457   8.370  0.5077 -0.3263 -0.9827
   43CHL1   C27 3179   1.198   2.213   8.322  0.3517  0.1926  0.1466
   43CHL1  H27A 3180   1.124   2.133   8.342  0.7446 -0.3188 -0.3841
   43CHL1  H27B 3181   1.272   2.177   8.246  2.8431 -1.1497  2.9861
   43CHL1  H27C 3182   1.241   2.223   8.424 -2.0309  2.7512  1.0131
   44CHL1    C3 3183   1.015   6.757   6.871  0.2878 -0.4250 -0.4998
   44CHL1    H3 3184   1.065   6.855   6.886 -1.8169  0.7705 -0.8185
   44CHL1    O3 3185   0.977   6.746   6.738  0.1108  0.7457  0.1760
   44CHL1   H3' 3186   1.050   6.689   6.713  0.9050  1.1220  1.5588
   44CHL1    C4 3187   1.104   6.641   6.910 -0.8308  0.1775 -0.4077
   44CHL1   H4A 3188   1.048   6.547   6.895  0.9673 -0.6289 -2.6465
   44CHL1   H4B 3189   1.189   6.640   6.838 -1.7081  1.3083 -1.5007
   44CHL1    C5 3190   1.148   6.672   7.055  0.1853  0.1848  0.6435
   44CHL1    C6 3191   1.276   6.693   7.083 -0.7822  0.2801 -0.1182
   44CHL1    H6 3192   1.346   6.693   6.998 -0.6094  1.6712  0.0122
   44CHL1    C7 3193   1.319   6.720   7.220  0.3453 -0.5364 -0.2303
   44CHL1   H7A 3194   1.413   6.671   7.257  1.0589 -0.7369 -2.2045
   44CHL1   H7B 3195   1.343   6.828   7.221 -3.0215  0.3360 -1.9152
   44CHL1    C8 3196   1.222   6.689   7.334 -0.0847 -0.4322  0.1512
   44CHL1    H8 3197   1.225   6.578   7.346  2.3377 -0.2726  1.9008
   44CHL1   C14 3198   1.259   6.744   7.474  0.0027 -0.2594 -0.0566
   44CHL1   H14 3199   1.248   6.854   7.458 -1.6006 -0.3235  0.3519
   44CHL1   C15 3200   1.394   6.707   7.531  0.2218  0.0053 -0.1834
   44CHL1  H15A 3201   1.419   6.601   7.511  1.8053  0.3335 -0.0421
   44CHL1  H15B 3202   1.481   6.761   7.490  0.3273 -1.0215 -1.3685
   44CHL1   C16 3203   1.385   6.724   7.680  0.0151 -0.0983  0.5374
   44CHL1  H16A 3204   1.409   6.629   7.733  1.0939  0.3268  0.8403
   44CHL1  H16B 3205   1.447   6.803   7.727  2.2466 -1.3009 -0.2334
   44CHL1   C17 3206   1.233   6.753   7.707 -0.2177  0.4947  0.0506
   44CHL1   H17 3207   1.221   6.863   7.703  1.7947  0.7121 -1.4124
   44CHL1   C13 3208   1.155   6.702   7.583 -0.5277  0.6036  0.2285
   44CHL1   C18 3209   1.137   6.543   7.594 -0.4699 -0.1851  0.3516
   44CHL1  H18A 3210   1.116   6.493   7.496 -1.0147  0.2197  0.2594
   44CHL1  H18B 3211   1.225   6.494   7.641  0.3436  0.5271 -0.3918
   44CHL1  H18C 3212   1.062   6.520   7.672  1.4648 -1.5753  1.8821
   44CHL1   C12 3213   1.020   6.761   7.542 -0.0149  0.3343  0.5176
   44CHL1  H12A 3214   0.939   6.735   7.613 -0.3300 -1.3892 -0.4030
   44CHL1  H12B 3215   1.025   6.872   7.546  2.8422  0.2804  0.7284
   44CHL1   C11 3216   0.979   6.713   7.406 -0.5796 -0.9102 -0.0684
   44CHL1  H11A 3217   0.954   6.605   7.419 -1.0698 -1.0553 -1.9165
   44CHL1  H11B 3218   0.884   6.766   7.381  0.2182  0.5036 -0.1813
   44CHL1    C9 3219   1.084   6.738   7.296 -0.0400  0.3880  0.3679
   44CHL1    H9 3220   1.095   6.848   7.288  1.3689  0.3258  1.2461
   44CHL1   C10 3221   1.031   6.681   7.156 -0.0074  0.1031  0.1502
   44CHL1   C19 3222   0.978   6.541   7.175 -0.2728  0.3654 -0.1209
   44CHL1  H19A 3223   0.967   6.482   7.082  0.8483  1.8196 -1.2330
   44CHL1  H19B 3224   1.058   6.491   7.234 -0.2984  1.0724  0.5299
   44CHL1  H19C 3225   0.883   6.528   7.231  0.0623 -1.4685  0.0676
   44CHL1    C1 3226   0.923   6.771   7.102  0.2280  0.5810 -0.3461
   44CHL1   H1A 3227   0.830   6.776   7.162 -0.5884  0.1801 -1.5416
   44CHL1   H1B 3228   0.969   6.873   7.104  2.3764 -0.3073 -1.2008
   44CHL1    C2 3229   0.887   6.746   6.960 -0.5670  0.7656  1.2374
   44CHL1   H2A 3230   0.816   6.830   6.939 -0.3019  0.8423  0.6290
   44CHL1   H2B 3231   0.837   6.649   6.942  1.7540 -0.0814 -1.2396
   44CHL1   C20 3232   1.190   6.719   7.854  0.2498  1.1680 -0.1750
   44CHL1   H20 3233   1.165   6.611   7.849  1.9770  0.8031 -3.2813
   44CHL1   C21 3234   1.056   6.798   7.888 -0.6300  0.9283 -0.1735
   44CHL1  H21A 3235   0.986   6.759   7.965 -0.9338 -1.6738 -1.6317
   44CHL1  H21B 3236   1.001   6.826   7.796  0.6242  1.9225 -0.6442
   44CHL1  H21C 3237   1.089   6.889   7.943 -0.0827 -0.5219  2.0428
   44CHL1   C22 3238   1.303   6.746   7.953  0.1577 -0.4393  0.4341
   44CHL1  H22A 3239   1.398   6.698   7.923 -0.2110 -0.3017 -1.0123
   44CHL1  H22B 3240   1.319   6.856   7.947 -1.6672 -0.2249 -1.7019
   44CHL1   C23 3241   1.265   6.712   8.098 -0.5494 -0.0294  0.3680
   44CHL1  H23A 3242   1.188   6.786   8.126  0.2742  1.5068 -1.2244
   44CHL1  H23B 3243   1.223   6.610   8.112 -0.3681 -0.2084 -0.3532
   44CHL1   C24 3244   1.364   6.737   8.204  0.7812 -0.2246  0.2663
   44CHL1  H24A 3245   1.463   6.712   8.163  2.0826  1.1391  2.3742
   44CHL1  H24B 3246   1.364   6.845   8.231  0.8914  0.0648 -0.8739
   44CHL1   C25 3247   1.327   6.662   8.332  0.1294 -1.0127 -0.2633
   44CHL1   H25 3248   1.337   6.553   8.317  2.0837 -1.0251  0.7770
   44CHL1   C26 3249   1.431   6.683   8.448  0.0824  0.6149 -0.4109
   44CHL1  H26A 3250   1.538   6.689   8.418  0.4907  0.5202  0.9619
   44CHL1  H26B 3251   1.412   6.782   8.496 -1.6559  0.2134 -0.1818
   44CHL1  H26C 3252   1.422   6.609   8.531  1.8075  2.9487  2.0409
   44CHL1   C27 3253   1.185   6.688   8.389  0.3961 -0.4200 -0.5550
   44CHL1  H27A 3254   1.110   6.634   8.327  1.9285 -1.8354 -1.2568
   44CHL1  H27B 3255   1.175   6.656   8.495 -1.0595  1.1677 -0.1667
   44CHL1  H27C 3256   1.165   6.797   8.395  1.0385 -0.3776  1.6025
   45CHL1    C3 3257   0.786   1.069   6.743 -0.8318  0.2169 -0.7595
   45CHL1    H3 3258   0.744   1.171   6.756 -3.1368 -0.6286 -0.9243
   45CHL1    O3 3259   0.818   1.051   6.604  0.5607 -0.8636 -0.2163
   45CHL1   H3' 3260   0.850   0.961   6.600 -0.3754 -1.1924 -0.4661
   45CHL1    C4 3261   0.917   1.058   6.829 -0.3935 -0.7835 -0.6453
   45CHL1   H4A 3262   0.970   0.970   6.788  0.1759  0.0813 -1.8305
   45CHL1   H4B 3263   0.985   1.145   6.819  0.7082 -1.5752 -0.2048
   45CHL1    C5 3264   0.904   1.035   6.977  0.2006  0.1902  0.1344
   45CHL1    C6 3265   0.967   1.112   7.066  0.2499 -0.5786  0.1354
   45CHL1    H6 3266   1.025   1.197   7.026 -1.9272 -0.1957 -2.4782
   45CHL1    C7 3267   0.963   1.095   7.214  0.8570  0.7040  0.2834
   45CHL1   H7A 3268   1.068   1.098   7.251  0.8982  0.3429  0.1927
   45CHL1   H7B 3269   0.919   1.182   7.268  1.8032  0.9619  0.6657
   45CHL1    C8 3270   0.896   0.961   7.255 -0.2984  0.3441 -0.2217
   45CHL1    H8 3271   0.974   0.882   7.248 -3.0972 -2.6210  0.2736
   45CHL1   C14 3272   0.845   0.977   7.398 -0.2116  0.2477  0.2404
   45CHL1   H14 3273   0.766   1.054   7.390 -0.7609 -0.3345 -0.0844
   45CHL1   C15 3274   0.947   1.026   7.505  0.6057 -0.1768  0.2256
   45CHL1  H15A 3275   1.035   0.960   7.517  0.2883 -0.4012  1.4275
   45CHL1  H15B 3276   0.978   1.131   7.482 -2.0044  1.0726  1.9345
   45CHL1   C16 3277   0.873   1.016   7.639 -0.1556 -0.1430  0.3177
   45CHL1  H16A 3278   0.934   0.953   7.707  1.4005  1.7792  0.7794
   45CHL1  H16B 3279   0.830   1.099   7.698 -4.2914 -2.0236  0.3001
   45CHL1   C17 3280   0.757   0.908   7.608 -0.4529  0.4142  0.4538
   45CHL1   H17 3281   0.661   0.963   7.616 -0.8763 -0.1810 -0.3386
   45CHL1   C13 3282   0.779   0.856   7.465 -0.3757  0.0229 -0.3549
   45CHL1   C18 3283   0.880   0.741   7.469  0.7932  0.4878  0.2901
   45CHL1  H18A 3284   0.906   0.698   7.370  1.2655 -2.0102  1.4217
   45CHL1  H18B 3285   0.971   0.775   7.523  0.4839  1.6356  0.1079
   45CHL1  H18C 3286   0.842   0.649   7.518  2.1730  0.3738  1.2191
   45CHL1   C12 3287   0.657   0.828   7.376 -0.0778 -0.1071 -0.2383
   45CHL1  H12A 3288   0.612   0.732   7.411 -0.6701  0.9142  1.9864
   45CHL1  H12B 3289   0.583   0.910   7.380 -1.3951 -1.3157  1.2753
   45CHL1   C11 3290   0.696   0.809   7.221  0.3103  0.1906  0.1595
   45CHL1  H11A 3291   0.759   0.718   7.216 -2.3501 -1.7156 -0.8908
   45CHL1  H11B 3292   0.599   0.792   7.170  0.5714 -2.4424  0.4022
   45CHL1    C9 3293   0.776   0.923   7.167 -0.6778  0.1099 -0.2030
   45CHL1    H9 3294   0.700   1.004   7.170  0.1722  0.9591 -0.8220
   45CHL1   C10 3295   0.799   0.925   7.020 -0.4662 -0.3533 -0.1212
   45CHL1   C19 3296   0.866   0.789   6.991  0.2353  0.2137  0.3802
   45CHL1  H19A 3297   0.933   0.796   6.902 -1.2365 -1.6313 -0.9473
   45CHL1  H19B 3298   0.943   0.770   7.069  2.2258  1.2777 -1.2082
   45CHL1  H19C 3299   0.797   0.703   6.985  0.9358 -0.4389  1.3447
   45CHL1    C1 3300   0.670   0.958   6.935  0.6540 -0.0127  0.4106
   45CHL1   H1A 3301   0.598   0.878   6.964 -0.1709  0.9874  1.1928
   45CHL1   H1B 3302   0.631   1.056   6.970  0.5937 -0.1658  0.7829
   45CHL1    C2 3303   0.687   0.966   6.785  0.3944  0.0923  0.3983
   45CHL1   H2A 3304   0.584   0.983   6.747  0.3429 -2.0474 -0.5871
   45CHL1   H2B 3305   0.714   0.866   6.743 -0.3626 -0.5617  1.4144
   45CHL1   C20 3306   0.743   0.805   7.721  0.2350  0.2139  0.2828
   45CHL1   H20 3307   0.838   0.748   7.715 -1.0877 -2.3172  1.7635
   45CHL1   C21 3308   0.621   0.713   7.704 -0.6595  0.0701 -0.9145
   45CHL1  H21A 3309   0.527   0.772   7.716 -1.5105 -1.7198  2.0749
   45CHL1  H21B 3310   0.617   0.641   7.788  1.5993  1.1334  0.1734
   45CHL1  H21C 3311   0.612   0.658   7.608 -1.9801 -2.4198  0.5258
   45CHL1   C22 3312   0.733   0.866   7.870  0.7084 -0.0717  0.2577
   45CHL1  H22A 3313   0.802   0.953   7.876 -1.3626  1.6671  0.0144
   45CHL1  H22B 3314   0.630   0.899   7.895  0.1261 -2.1085  0.7260
   45CHL1   C23 3315   0.781   0.773   7.981  1.2030 -0.0046 -0.0334
   45CHL1  H23A 3316   0.702   0.696   7.969 -0.2313  1.6023 -1.3840
   45CHL1  H23B 3317   0.885   0.743   7.953  1.9419  0.8017  1.7331
   45CHL1   C24 3318   0.779   0.837   8.124 -0.2468 -0.4015  0.9436
   45CHL1  H24A 3319   0.864   0.908   8.122 -1.9752  1.7789 -0.3924
   45CHL1  H24B 3320   0.686   0.897   8.133  0.9529  1.4263  1.8342
   45CHL1   C25 3321   0.793   0.739   8.229  0.1846  0.3933 -0.3415
   45CHL1   H25 3322   0.732   0.653   8.195 -0.5716  1.0032 -0.5439
   45CHL1   C26 3323   0.940   0.689   8.245  0.2056 -0.3535 -0.2712
   45CHL1  H26A 3324   0.945   0.611   8.323  1.7720 -1.9594 -1.8645
   45CHL1  H26B 3325   0.971   0.642   8.149  3.4470  1.9059 -0.5127
   45CHL1  H26C 3326   1.000   0.777   8.277 -1.2603  0.2726  0.8440
   45CHL1   C27 3327   0.738   0.788   8.365  0.5213  0.6458  0.0554
   45CHL1  H27A 3328   0.804   0.865   8.410  1.5813  0.1828 -0.6709
   45CHL1  H27B 3329   0.639   0.838   8.363  1.2446  2.1360  0.3139
   45CHL1  H27C 3330   0.737   0.702   8.436  2.7887 -2.7034 -3.5487
   46CHL1    C3 3331   2.118   6.225   7.357 -0.6567 -0.1116  0.3420
   46CHL1    H3 3332   2.011   6.223   7.385 -1.4980 -0.1247 -2.5704
   46CHL1    O3 3333   2.135   6.280   7.226  0.2340  0.1991 -0.0148
   46CHL1   H3' 3334   2.230   6.269   7.209 -0.0323 -2.9679 -0.1934
   46CHL1    C4 3335   2.172   6.320   7.466 -0.4972  0.1289  0.6340
   46CHL1   H4A 3336   2.279   6.347   7.455 -0.9118  1.7583  0.3397
   46CHL1   H4B 3337   2.117   6.415   7.455  0.5912  0.7374  0.3153
   46CHL1    C5 3338   2.151   6.258   7.600  0.1196  0.3742 -0.4787
   46CHL1    C6 3339   2.077   6.324   7.691 -0.1697 -0.1509  0.8017
   46CHL1    H6 3340   2.041   6.424   7.665  0.9490  0.5845  2.0184
   46CHL1    C7 3341   2.074   6.282   7.832  0.6111 -0.2442  0.6319
   46CHL1   H7A 3342   2.090   6.374   7.892 -1.4697  0.8864 -0.4343
   46CHL1   H7B 3343   1.976   6.239   7.861  0.5037  0.6963  1.7078
   46CHL1    C8 3344   2.171   6.164   7.862 -0.2310 -0.2497  0.5889
   46CHL1    H8 3345   2.273   6.206   7.875  0.0509 -0.0248 -1.8605
   46CHL1   C14 3346   2.137   6.102   7.994 -0.4458  0.4861  0.1981
   46CHL1   H14 3347   2.039   6.048   7.988 -1.1074  1.4828  1.4001
   46CHL1   C15 3348   2.121   6.193   8.119  0.1444  0.3168  0.7795
   46CHL1  H15A 3349   2.215   6.251   8.115  1.0492 -1.1661 -0.6390
   46CHL1  H15B 3350   2.027   6.252   8.116 -0.8446 -1.2098 -1.3695
   46CHL1   C16 3351   2.128   6.094   8.237  0.0249 -0.1475 -0.2416
   46CHL1  H16A 3352   2.172   6.145   8.326  0.0700 -0.9387  0.2044
   46CHL1  H16B 3353   2.022   6.073   8.263  0.4256 -0.5405  1.1503
   46CHL1   C17 3354   2.190   5.963   8.176 -0.3587 -0.1405 -0.1257
   46CHL1   H17 3355   2.105   5.893   8.163 -1.7509  1.7762 -2.0897
   46CHL1   C13 3356   2.238   5.993   8.027 -0.1893  0.4872 -1.0188
   46CHL1   C18 3357   2.382   6.038   8.031  0.5329  0.0908  0.2388
   46CHL1  H18A 3358   2.451   5.955   8.060 -0.2236 -1.1697 -1.4052
   46CHL1  H18B 3359   2.419   6.087   7.939 -1.4353  3.2128  0.9562
   46CHL1  H18C 3360   2.392   6.117   8.108  2.3037 -0.9968  1.1982
   46CHL1   C12 3361   2.221   5.874   7.926 -0.0098 -0.7014  0.3428
   46CHL1  H12A 3362   2.287   5.791   7.959  0.1712  0.5910  3.6209
   46CHL1  H12B 3363   2.116   5.838   7.934 -0.8475  1.5958  0.6873
   46CHL1   C11 3364   2.242   5.926   7.786 -0.9988  0.9529  0.2805
   46CHL1  H11A 3365   2.351   5.940   7.768 -1.3549  3.0159 -0.6627
   46CHL1  H11B 3366   2.208   5.861   7.702 -2.7274  3.3368 -1.0065
   46CHL1    C9 3367   2.171   6.064   7.746 -0.0558  0.8388  0.0349
   46CHL1    H9 3368   2.060   6.059   7.739 -0.1807  2.7992  0.0432
   46CHL1   C10 3369   2.212   6.124   7.616 -0.4450 -0.3161 -0.1747
   46CHL1   C19 3370   2.363   6.132   7.601  0.5800 -1.0381 -0.2284
   46CHL1  H19A 3371   2.402   6.182   7.510 -1.9795  2.6677  0.4549
   46CHL1  H19B 3372   2.405   6.181   7.691 -1.3763  1.7010 -0.6389
   46CHL1  H19C 3373   2.411   6.033   7.593  2.8952 -0.0364  0.6232
   46CHL1    C1 3374   2.150   6.041   7.505 -0.4835  0.4827  0.0126
   46CHL1   H1A 3375   2.202   5.942   7.504  1.3371  1.3902 -0.9978
   46CHL1   H1B 3376   2.042   6.020   7.521  0.4589 -3.1325  3.4019
   46CHL1    C2 3377   2.175   6.090   7.366  0.4030 -0.4454 -0.5613
   46CHL1   H2A 3378   2.124   6.022   7.294  0.4435  0.1280 -1.1396
   46CHL1   H2B 3379   2.283   6.080   7.342  0.3515 -0.6935 -0.6963
   46CHL1   C20 3380   2.294   5.887   8.271 -0.1771  0.4388  0.3005
   46CHL1   H20 3381   2.394   5.931   8.255  0.8048 -2.1575 -1.3059
   46CHL1   C21 3382   2.308   5.742   8.226 -0.2199 -0.1795  0.7315
   46CHL1  H21A 3383   2.345   5.672   8.304  1.9354 -1.9329 -1.7072
   46CHL1  H21B 3384   2.381   5.730   8.144  1.5511 -2.1306  2.4628
   46CHL1  H21C 3385   2.213   5.689   8.205  0.2376 -0.9263  0.5107
   46CHL1   C22 3386   2.240   5.878   8.422 -0.5724  0.6400  0.6599
   46CHL1  H22A 3387   2.203   5.980   8.447 -4.1615  1.0882 -4.7482
   46CHL1  H22B 3388   2.161   5.801   8.424  1.0633 -1.0967  2.1018
   46CHL1   C23 3389   2.352   5.846   8.525  0.0033 -0.2414 -0.2275
   46CHL1  H23A 3390   2.375   5.738   8.532  1.3692 -0.0357 -1.1481
   46CHL1  H23B 3391   2.445   5.897   8.492 -0.5502  1.7283  1.0847
   46CHL1   C24 3392   2.315   5.907   8.661  0.0701 -0.6257 -0.3788
   46CHL1  H24A 3393   2.405   5.886   8.722  0.1459  1.2534  0.2250
   46CHL1  H24B 3394   2.300   6.017   8.657 -0.8660 -0.7127  0.3389
   46CHL1   C25 3395   2.200   5.831   8.736 -0.6329  0.0740  0.0258
   46CHL1   H25 3396   2.114   5.853   8.669 -1.2078  1.0638  1.0388
   46CHL1   C26 3397   2.210   5.678   8.750 -0.2892  0.6477  0.4893
   46CHL1  H26A 3398   2.280   5.651   8.832  0.5823 -0.4708 -0.5761
   46CHL1  H26B 3399   2.107   5.637   8.748 -0.5828  1.1745 -3.6823
   46CHL1  H26C 3400   2.258   5.626   8.664 -1.8545  0.6375 -0.4247
   46CHL1   C27 3401   2.174   5.902   8.871 -0.4577 -0.1145  0.0352
   46CHL1  H27A 3402   2.177   6.009   8.840 -0.0945 -0.2453 -0.4039
   46CHL1  H27B 3403   2.074   5.886   8.915 -0.7367 -0.4542 -0.7010
   46CHL1  H27C 3404   2.248   5.864   8.945 -0.4367 -0.7305 -0.2963
   47CHL1    C3 3405   1.541   1.812   6.837 -0.4767 -0.5489  1.1718
   47CHL1    H3 3406   1.514   1.920   6.833  0.0565 -0.4570 -2.1465
   47CHL1    O3 3407   1.544   1.777   6.696 -0.3564 -0.3780 -0.4403
   47CHL1   H3' 3408   1.617   1.715   6.693  1.1479  1.3208 -0.9285
   47CHL1    C4 3409   1.678   1.792   6.903 -0.1810  0.4145  0.3882
   47CHL1   H4A 3410   1.710   1.688   6.885  0.1845  0.8009 -1.4254
   47CHL1   H4B 3411   1.760   1.849   6.855 -0.0630 -0.2263 -0.1829
   47CHL1    C5 3412   1.687   1.824   7.051  0.4052 -0.3227  0.2439
   47CHL1    C6 3413   1.772   1.908   7.110 -0.3590 -0.9432  0.0736
   47CHL1    H6 3414   1.846   1.959   7.047 -1.6280 -2.0399 -2.4470
   47CHL1    C7 3415   1.778   1.949   7.251 -0.5284 -0.2131 -0.8581
   47CHL1   H7A 3416   1.881   1.971   7.288 -0.8729  1.5669 -0.8845
   47CHL1   H7B 3417   1.718   2.040   7.273  0.9627  0.5427  0.3231
   47CHL1    C8 3418   1.709   1.845   7.342 -0.1180  0.1193 -0.4374
   47CHL1    H8 3419   1.779   1.759   7.338 -0.3818 -0.2166  1.5157
   47CHL1   C14 3420   1.688   1.896   7.482 -0.3470 -0.3915 -0.0243
   47CHL1   H14 3421   1.618   1.982   7.473 -0.3249 -0.2966  0.7201
   47CHL1   C15 3422   1.811   1.943   7.554 -0.1983 -0.3638  0.6405
   47CHL1  H15A 3423   1.895   1.874   7.530 -0.1278  0.1765 -0.7452
   47CHL1  H15B 3424   1.847   2.043   7.523 -0.3899 -0.2395  0.8232
   47CHL1   C16 3425   1.778   1.932   7.699 -0.9120  0.7299 -0.7257
   47CHL1  H16A 3426   1.851   1.856   7.738  0.1189  2.7692  1.5880
   47CHL1  H16B 3427   1.803   2.023   7.757 -1.9708 -0.0114  0.9869
   47CHL1   C17 3428   1.639   1.870   7.715 -0.2764 -1.3416  0.0892
   47CHL1   H17 3429   1.565   1.953   7.727 -0.8678 -1.7768 -0.4605
   47CHL1   C13 3430   1.615   1.804   7.582  0.0741 -0.2899 -0.1094
   47CHL1   C18 3431   1.685   1.666   7.587 -0.2162 -0.0741  0.4887
   47CHL1  H18A 3432   1.704   1.620   7.488  2.2612  2.5762 -0.4132
   47CHL1  H18B 3433   1.788   1.686   7.623 -0.0287  1.6596 -0.8462
   47CHL1  H18C 3434   1.654   1.588   7.660  0.2033  0.4873  1.2794
   47CHL1   C12 3435   1.468   1.776   7.520 -0.3459  0.1654 -0.9325
   47CHL1  H12A 3436   1.423   1.693   7.579 -0.5740  1.0436  0.1593
   47CHL1  H12B 3437   1.399   1.863   7.521  0.4561  0.8203 -1.5248
   47CHL1   C11 3438   1.488   1.724   7.378  0.4128 -0.0331  0.2135
   47CHL1  H11A 3439   1.531   1.622   7.383 -0.1694 -0.2239  1.9298
   47CHL1  H11B 3440   1.391   1.706   7.328  0.9189 -1.9640 -0.1437
   47CHL1    C9 3441   1.577   1.801   7.283  0.3128  0.3188 -0.0437
   47CHL1    H9 3442   1.530   1.900   7.265  1.1178  0.6289 -0.5201
   47CHL1   C10 3443   1.587   1.745   7.133 -0.7659  0.7503 -0.3924
   47CHL1   C19 3444   1.635   1.598   7.133 -0.3572 -0.3201  0.0022
   47CHL1  H19A 3445   1.727   1.588   7.194 -1.5113  1.1490  2.1203
   47CHL1  H19B 3446   1.556   1.535   7.181  0.6651 -3.1228 -1.7696
   47CHL1  H19C 3447   1.650   1.559   7.031  1.6265  1.2761 -0.3679
   47CHL1    C1 3448   1.442   1.761   7.067 -0.1435 -0.0351  0.0199
   47CHL1   H1A 3449   1.360   1.700   7.110 -1.6783  0.5975 -1.8906
   47CHL1   H1B 3450   1.414   1.868   7.081 -1.2166 -0.4285  1.0336
   47CHL1    C2 3451   1.443   1.725   6.914  0.0129 -0.4117 -0.5141
   47CHL1   H2A 3452   1.340   1.740   6.874 -0.7995 -1.9385  0.8862
   47CHL1   H2B 3453   1.478   1.620   6.907  1.6233  0.2270 -3.7921
   47CHL1   C20 3454   1.627   1.788   7.844 -0.2311 -0.2852 -0.2558
   47CHL1   H20 3455   1.666   1.685   7.823 -1.1875 -0.6757 -0.1500
   47CHL1   C21 3456   1.477   1.780   7.870 -0.5146 -0.0981  0.3287
   47CHL1  H21A 3457   1.428   1.880   7.876  1.4081  0.8369  2.1086
   47CHL1  H21B 3458   1.460   1.720   7.962  2.4690  1.5421  2.0892
   47CHL1  H21C 3459   1.420   1.721   7.795  0.5199  1.8651 -2.1487
   47CHL1   C22 3460   1.705   1.847   7.966 -0.1744  0.1605  0.3064
   47CHL1  H22A 3461   1.706   1.772   8.048  2.6722  1.2092  1.3269
   47CHL1  H22B 3462   1.815   1.853   7.949  0.5190 -0.4681  3.8215
   47CHL1   C23 3463   1.667   1.985   8.011  0.1399 -0.5254 -0.3756
   47CHL1  H23A 3464   1.662   2.055   7.925 -2.4678 -1.7016 -1.2794
   47CHL1  H23B 3465   1.562   1.981   8.047  0.2944  0.4194  0.2179
   47CHL1   C24 3466   1.762   2.038   8.121  0.3243  0.4528  0.0628
   47CHL1  H24A 3467   1.752   1.968   8.207  0.4440 -1.3437 -1.3187
   47CHL1  H24B 3468   1.865   2.043   8.079  0.5954 -0.3372  0.6066
   47CHL1   C25 3469   1.723   2.181   8.173 -0.1901  0.2739  0.3369
   47CHL1   H25 3470   1.802   2.214   8.244  0.4321  0.9529 -0.6467
   47CHL1   C26 3471   1.723   2.289   8.061  0.4014  0.0944  0.0382
   47CHL1  H26A 3472   1.787   2.266   7.974  0.2561 -0.8418  0.1644
   47CHL1  H26B 3473   1.622   2.313   8.021  1.0642  0.5721 -1.3795
   47CHL1  H26C 3474   1.766   2.380   8.110 -0.7641  1.4728 -1.3985
   47CHL1   C27 3475   1.599   2.187   8.256  0.1709  0.1992 -0.2878
   47CHL1  H27A 3476   1.603   2.137   8.355 -1.4057  0.9588  0.1829
   47CHL1  H27B 3477   1.579   2.290   8.293  0.4725  1.2015 -2.6957
   47CHL1  H27C 3478   1.510   2.165   8.193  0.3401  0.5066 -0.6404
   48CHL1    C3 3479   4.846   3.563   7.077 -0.0156 -0.0695 -0.2133
   48CHL1    H3 3480   4.895   3.464   7.085 -2.0188 -0.9635  1.8294
   48CHL1    O3 3481   4.772   3.557   6.954  0.4825 -0.0600 -0.6709
   48CHL1   H3' 3482   4.727   3.641   6.937 -0.8811 -0.8071 -0.8700
   48CHL1    C4 3483   4.745   3.570   7.192 -0.8291  0.2217 -0.6521
   48CHL1   H4A 3484   4.673   3.649   7.162  1.4227  4.1575  3.1961
   48CHL1   H4B 3485   4.681   3.479   7.187 -1.8075  0.7568  1.0531
   48CHL1    C5 3486   4.792   3.607   7.328 -0.3218  0.4054 -0.0945
   48CHL1    C6 3487   4.760   3.542   7.437 -0.8121  0.5053 -0.3239
   48CHL1    H6 3488   4.701   3.450   7.438  0.3836 -0.2917 -0.4050
   48CHL1    C7 3489   4.799   3.581   7.579  0.1561  0.7238  0.1303
   48CHL1   H7A 3490   4.715   3.587   7.653 -0.8126  1.4395 -0.9858
   48CHL1   H7B 3491   4.868   3.510   7.628 -1.8606 -0.5753  1.2673
   48CHL1    C8 3492   4.869   3.718   7.594 -0.3207  0.0510  0.7782
   48CHL1    H8 3493   4.783   3.789   7.586 -0.6968 -0.5894 -2.0035
   48CHL1   C14 3494   4.947   3.729   7.719  0.5711  0.3169 -0.1399
   48CHL1   H14 3495   5.028   3.653   7.711 -0.7351 -1.2966  1.1871
   48CHL1   C15 3496   4.875   3.708   7.853  0.8652  0.1178 -0.4373
   48CHL1  H15A 3497   4.766   3.728   7.842  1.0690  0.4070 -2.2887
   48CHL1  H15B 3498   4.887   3.598   7.859 -1.3585 -0.2122 -0.9676
   48CHL1   C16 3499   4.944   3.799   7.955 -0.3068 -0.0870 -0.1981
   48CHL1  H16A 3500   4.878   3.881   7.989  1.3638  0.8186  1.0404
   48CHL1  H16B 3501   4.967   3.739   8.045  1.1810  0.2211 -0.3417
   48CHL1   C17 3502   5.065   3.865   7.887 -0.8021  0.2512  0.6678
   48CHL1   H17 3503   5.147   3.791   7.903 -2.0321 -0.9123  1.7839
   48CHL1   C13 3504   5.013   3.867   7.732 -0.2732 -0.3590  0.3545
   48CHL1   C18 3505   4.910   3.980   7.707 -0.5484  0.4636 -0.2365
   48CHL1  H18A 3506   4.862   3.971   7.607  0.0333  1.3900 -0.6159
   48CHL1  H18B 3507   4.826   4.001   7.778 -0.9242  0.3304 -0.6331
   48CHL1  H18C 3508   4.966   4.076   7.703  0.1538  0.2182  2.1467
   48CHL1   C12 3509   5.122   3.882   7.627  0.3391 -0.3594  0.5204
   48CHL1  H12A 3510   5.173   3.981   7.630 -1.2340  0.6620 -2.2022
   48CHL1  H12B 3511   5.197   3.801   7.645 -0.1576 -0.7061  1.0401
   48CHL1   C11 3512   5.067   3.862   7.481  0.0903 -0.7836  0.2353
   48CHL1  H11A 3513   5.017   3.957   7.455  0.8983 -0.1246  1.0177
   48CHL1  H11B 3514   5.144   3.843   7.404  0.7788 -3.1238  1.4099
   48CHL1    C9 3515   4.964   3.740   7.470  0.0169 -0.4979  0.3637
   48CHL1    H9 3516   5.027   3.649   7.461  0.2877 -0.1577 -1.7319
   48CHL1   C10 3517   4.891   3.729   7.328  0.6126  0.3211  0.5397
   48CHL1   C19 3518   4.814   3.865   7.305  0.4607 -0.3028 -0.2865
   48CHL1  H19A 3519   4.746   3.857   7.218 -2.2431  0.8910  1.5422
   48CHL1  H19B 3520   4.759   3.897   7.397  2.1955  1.3445  0.2450
   48CHL1  H19C 3521   4.887   3.943   7.274 -0.0704 -0.2026 -1.3318
   48CHL1    C1 3522   4.999   3.712   7.216 -0.5899 -0.1991  0.4096
   48CHL1   H1A 3523   5.068   3.795   7.189  1.5453 -1.6075  1.2871
   48CHL1   H1B 3524   5.077   3.638   7.246 -1.5386 -0.8487  1.3545
   48CHL1    C2 3525   4.938   3.688   7.078 -0.2616 -0.7446  0.7547
   48CHL1   H2A 3526   5.013   3.668   6.998  0.1194 -0.2735  0.9873
   48CHL1   H2B 3527   4.879   3.780   7.054 -0.9166 -1.5354 -0.8768
   48CHL1   C20 3528   5.123   3.999   7.942 -0.3683  0.1665 -0.4671
   48CHL1   H20 3529   5.057   4.081   7.905 -0.3050  0.4531  0.0455
   48CHL1   C21 3530   5.257   4.023   7.878 -0.5340  0.5827 -0.7968
   48CHL1  H21A 3531   5.320   4.063   7.960  1.0970  2.4593 -2.8498
   48CHL1  H21B 3532   5.249   4.107   7.805 -1.1553  0.6943 -0.5991
   48CHL1  H21C 3533   5.307   3.936   7.830 -0.1881  0.2084  0.2148
   48CHL1   C22 3534   5.119   4.021   8.099  0.0843  0.7021 -0.4403
   48CHL1  H22A 3535   5.019   3.978   8.123  0.5898  0.3923  1.2889
   48CHL1  H22B 3536   5.191   3.954   8.152 -1.6872 -0.0991  1.0536
   48CHL1   C23 3537   5.123   4.161   8.145  0.0204 -0.9349 -0.4985
   48CHL1  H23A 3538   5.155   4.165   8.251 -0.1489  1.6035 -0.4846
   48CHL1  H23B 3539   5.202   4.203   8.079 -1.5238  1.4602 -0.9395
   48CHL1   C24 3540   4.988   4.242   8.140  0.1218 -0.2285  0.2770
   48CHL1  H24A 3541   4.962   4.255   8.033  2.2581  1.3190 -0.1219
   48CHL1  H24B 3542   4.915   4.184   8.200  2.7604 -3.3055  0.7863
   48CHL1   C25 3543   4.999   4.380   8.204 -0.0537 -0.1178  0.9922
   48CHL1   H25 3544   5.035   4.369   8.309  1.2652  1.2851  0.7303
   48CHL1   C26 3545   5.110   4.473   8.138  0.7794  0.7254 -0.1852
   48CHL1  H26A 3546   5.143   4.548   8.213  0.4358 -0.0514  0.7554
   48CHL1  H26B 3547   5.189   4.417   8.084 -0.1576 -1.8327  0.9684
   48CHL1  H26C 3548   5.049   4.534   8.068 -0.9018 -1.7666 -1.0369
   48CHL1   C27 3549   4.859   4.453   8.211  0.7496 -0.3068 -0.1487
   48CHL1  H27A 3550   4.809   4.447   8.112  2.2053  1.6896 -1.0832
   48CHL1  H27B 3551   4.801   4.412   8.296 -0.2559 -0.1013 -0.7114
   48CHL1  H27C 3552   4.876   4.563   8.219  0.4950 -0.3179  0.5685
   49CHL1    C3 3553   3.192   3.656   6.994 -0.5504  0.0143  0.1880
   49CHL1    H3 3554   3.175   3.547   7.008 -1.8134  0.2493  0.5872
   49CHL1    O3 3555   3.174   3.690   6.856 -0.0423 -0.0530  0.0098
   49CHL1   H3' 3556   3.187   3.613   6.800  1.1013  1.3711 -1.8334
   49CHL1    C4 3557   3.103   3.742   7.083 -0.1395 -0.0713  0.4354
   49CHL1   H4A 3558   3.125   3.848   7.059 -0.9239 -0.1192 -0.5608
   49CHL1   H4B 3559   2.996   3.735   7.052 -0.1755 -0.2930  0.6050
   49CHL1    C5 3560   3.128   3.710   7.230  0.0883 -0.1537 -0.1091
   49CHL1    C6 3561   3.029   3.663   7.309 -0.4010  0.1981  0.5368
   49CHL1    H6 3562   2.939   3.640   7.250  2.5431 -0.6924 -4.2089
   49CHL1    C7 3563   3.046   3.639   7.455 -0.3036  0.0226 -0.2924
   49CHL1   H7A 3564   2.952   3.673   7.503  0.1458  3.6232 -1.6209
   49CHL1   H7B 3565   3.056   3.530   7.475 -2.4248 -0.3783 -1.1804
   49CHL1    C8 3566   3.158   3.725   7.517 -0.2875 -0.5789  0.1162
   49CHL1    H8 3567   3.126   3.831   7.520 -0.1433 -0.5650  2.0044
   49CHL1   C14 3568   3.183   3.689   7.659 -0.7328  0.0506  0.0744
   49CHL1   H14 3569   3.209   3.581   7.661  0.4784  0.3095 -0.6850
   49CHL1   C15 3570   3.071   3.710   7.750  0.3371  0.8251 -0.0796
   49CHL1  H15A 3571   3.041   3.817   7.752  0.0379  0.7504 -0.5724
   49CHL1  H15B 3572   2.980   3.651   7.726  0.7684  0.2014 -0.1958
   49CHL1   C16 3573   3.132   3.700   7.889  0.3201  0.3369 -0.2570
   49CHL1  H16A 3574   3.079   3.771   7.956  1.3493 -1.1420  2.3150
   49CHL1  H16B 3575   3.122   3.602   7.942  0.7500  0.2126 -0.4071
   49CHL1   C17 3576   3.289   3.712   7.871  0.2615 -0.3786  1.2472
   49CHL1   H17 3577   3.329   3.612   7.843 -0.3524  0.2765 -2.4311
   49CHL1   C13 3578   3.310   3.757   7.721  0.7749 -0.3928  0.8616
   49CHL1   C18 3579   3.302   3.914   7.718 -0.0990  0.3477  0.6616
   49CHL1  H18A 3580   3.268   3.960   7.623 -1.9608 -1.4745  0.3646
   49CHL1  H18B 3581   3.229   3.943   7.797  0.7768 -0.1497  1.6744
   49CHL1  H18C 3582   3.397   3.964   7.746 -1.2361  2.8712  0.3251
   49CHL1   C12 3583   3.426   3.694   7.638  0.4539  0.2297 -0.3608
   49CHL1  H12A 3584   3.523   3.716   7.687  0.2943  0.2760 -0.0651
   49CHL1  H12B 3585   3.430   3.583   7.628  2.0560  0.3810 -1.8076
   49CHL1   C11 3586   3.418   3.736   7.496 -0.4508 -0.3644 -0.3998
   49CHL1  H11A 3587   3.426   3.847   7.497  0.2984 -0.4190  0.8597
   49CHL1  H11B 3588   3.505   3.719   7.429  0.4619  0.3171  0.5889
   49CHL1    C9 3589   3.280   3.701   7.427 -0.7504  0.1084 -0.4706
   49CHL1    H9 3590   3.287   3.590   7.429 -0.6304  0.1116 -0.7106
   49CHL1   C10 3591   3.265   3.742   7.281  0.4590  0.3274 -0.1684
   49CHL1   C19 3592   3.291   3.898   7.279  0.1636 -0.3659 -0.4669
   49CHL1  H19A 3593   3.398   3.927   7.284  0.6867 -1.7119 -2.5472
   49CHL1  H19B 3594   3.267   3.942   7.180 -1.0940 -2.2142 -1.0218
   49CHL1  H19C 3595   3.223   3.941   7.356  0.5009 -1.0328  0.2146
   49CHL1    C1 3596   3.369   3.671   7.190  1.0099 -0.7361  0.4410
   49CHL1   H1A 3597   3.471   3.712   7.204 -0.6265  3.1649  2.2623
   49CHL1   H1B 3598   3.357   3.563   7.216 -0.0436 -0.6277  0.4323
   49CHL1    C2 3599   3.338   3.690   7.037  0.3181 -0.3467  0.3076
   49CHL1   H2A 3600   3.412   3.634   6.976 -0.4418 -1.5693  0.4893
   49CHL1   H2B 3601   3.349   3.799   7.014  1.9018  0.1370  2.8919
   49CHL1   C20 3602   3.379   3.774   7.979  0.0936 -0.1521  0.2586
   49CHL1   H20 3603   3.345   3.879   7.986  0.7465  0.0082  1.2776
   49CHL1   C21 3604   3.529   3.787   7.950  0.0969 -0.6471  0.2177
   49CHL1  H21A 3605   3.542   3.870   7.877 -0.9683  0.8962  1.7100
   49CHL1  H21B 3606   3.578   3.692   7.918  0.1576 -0.9703  1.2467
   49CHL1  H21C 3607   3.588   3.810   8.041  0.7526  0.2221 -0.4070
   49CHL1   C22 3608   3.360   3.701   8.116 -0.0091 -0.8712  0.4132
   49CHL1  H22A 3609   3.256   3.668   8.140 -0.0345  0.6557  2.7075
   49CHL1  H22B 3610   3.435   3.620   8.127  1.4239  0.2981 -0.3697
   49CHL1   C23 3611   3.355   3.799   8.236 -0.6557 -0.5320  0.1655
   49CHL1  H23A 3612   3.460   3.831   8.256 -0.5390 -1.4496  1.1076
   49CHL1  H23B 3613   3.305   3.892   8.202  1.6730 -0.0337 -2.1982
   49CHL1   C24 3614   3.285   3.737   8.362  0.4561 -0.6883 -0.3041
   49CHL1  H24A 3615   3.188   3.690   8.333  0.2582 -0.5977  0.2104
   49CHL1  H24B 3616   3.358   3.662   8.399 -0.2525 -0.4539  1.6474
   49CHL1   C25 3617   3.255   3.837   8.478  0.0314  0.2633 -0.8236
   49CHL1   H25 3618   3.353   3.878   8.511  0.0765  0.8006 -1.6011
   49CHL1   C26 3619   3.169   3.954   8.446  0.2861  0.2090  0.2074
   49CHL1  H26A 3620   3.214   4.019   8.369  0.9438  1.7543  1.8222
   49CHL1  H26B 3621   3.063   3.927   8.424 -0.4001  2.1306  0.9267
   49CHL1  H26C 3622   3.152   4.020   8.534  0.9581 -0.2247  0.6705
   49CHL1   C27 3623   3.194   3.753   8.596 -1.1452  0.0277  0.2815
   49CHL1  H27A 3624   3.089   3.722   8.578 -2.0816  2.1268  1.6524
   49CHL1  H27B 3625   3.267   3.676   8.628 -0.5623  0.6668  0.5284
   49CHL1  H27C 3626   3.193   3.816   8.688 -2.3547 -0.6416  0.7424
   50CHL1    C3 3627   4.331   6.263   6.869 -0.1805  0.7278  1.0803
   50CHL1    H3 3628   4.420   6.306   6.921 -0.4665  2.3306  0.2825
   50CHL1    O3 3629   4.352   6.253   6.730 -0.1893 -0.1074 -0.0770
   50CHL1   H3' 3630   4.285   6.190   6.703  2.0013 -3.2525  1.2549
   50CHL1    C4 3631   4.292   6.121   6.914  0.0911 -0.1130  0.8479
   50CHL1   H4A 3632   4.193   6.093   6.870 -0.6888 -0.5074  2.7544
   50CHL1   H4B 3633   4.369   6.046   6.885  0.3956  0.1418  0.9948
   50CHL1    C5 3634   4.259   6.110   7.065  0.7171  0.3960 -0.2996
   50CHL1    C6 3635   4.340   6.042   7.151 -0.0686 -0.6111  0.7042
   50CHL1    H6 3636   4.431   5.991   7.118  0.7346  1.2448 -0.0902
   50CHL1    C7 3637   4.304   6.030   7.297 -0.8877 -1.1263 -0.6774
   50CHL1   H7A 3638   4.299   5.924   7.329  1.2041 -1.7390 -2.1589
   50CHL1   H7B 3639   4.377   6.077   7.367 -0.5151 -0.9910 -1.1524
   50CHL1    C8 3640   4.160   6.081   7.335 -0.0036  1.1282  0.2428
   50CHL1    H8 3641   4.082   6.007   7.308  0.4221  0.0860  1.7189
   50CHL1   C14 3642   4.157   6.115   7.483 -0.3876 -0.1205 -0.1287
   50CHL1   H14 3643   4.229   6.197   7.503  0.0528 -0.3991 -0.5629
   50CHL1   C15 3644   4.205   6.006   7.576 -0.4608  0.3875  0.3740
   50CHL1  H15A 3645   4.161   5.907   7.552 -1.4118  0.8063  0.3569
   50CHL1  H15B 3646   4.315   5.991   7.570 -0.5335 -0.1127  0.2713
   50CHL1   C16 3647   4.153   6.038   7.719 -0.5634 -0.2205 -0.5343
   50CHL1  H16A 3648   4.081   5.957   7.744 -1.1964  1.0245  2.0194
   50CHL1  H16B 3649   4.223   6.050   7.805 -1.2303  2.8974 -0.3157
   50CHL1   C17 3650   4.060   6.167   7.693 -0.0119  0.1737  0.1766
   50CHL1   H17 3651   4.124   6.255   7.714  0.8131 -0.6075  1.0414
   50CHL1   C13 3652   4.031   6.161   7.538  0.2540  0.1818 -0.1913
   50CHL1   C18 3653   3.929   6.043   7.525  0.0112 -0.0397 -0.6653
   50CHL1  H18A 3654   3.831   6.072   7.568 -0.0430 -0.6705 -0.3480
   50CHL1  H18B 3655   3.913   6.008   7.421 -0.5602  0.4043 -0.7315
   50CHL1  H18C 3656   3.945   5.954   7.590 -1.2797 -0.5063 -0.9549
   50CHL1   C12 3657   3.992   6.294   7.466 -0.1466  0.3240  0.4944
   50CHL1  H12A 3658   3.890   6.318   7.501 -1.3871 -2.1830 -1.0627
   50CHL1  H12B 3659   4.068   6.368   7.499 -1.3195  0.5588  2.8731
   50CHL1   C11 3660   3.988   6.266   7.320 -0.0919  0.0575 -0.0558
   50CHL1  H11A 3661   3.894   6.211   7.302 -0.3166  0.1089  0.8951
   50CHL1  H11B 3662   3.967   6.366   7.276  0.0795  0.3098  0.4286
   50CHL1    C9 3663   4.127   6.211   7.270  0.0170 -0.6461 -0.0943
   50CHL1    H9 3664   4.206   6.276   7.315 -0.0085 -0.9536  0.4039
   50CHL1   C10 3665   4.143   6.210   7.117  0.1774  1.0910 -0.1262
   50CHL1   C19 3666   4.011   6.145   7.070 -0.3479 -0.6347 -1.2697
   50CHL1  H19A 3667   4.005   6.121   6.962  0.7338 -0.2509 -1.4185
   50CHL1  H19B 3668   3.996   6.050   7.126 -0.4048  0.4503  0.6435
   50CHL1  H19C 3669   3.923   6.212   7.084 -0.0618 -0.3903 -0.5868
   50CHL1    C1 3670   4.189   6.347   7.059  0.4546  0.1742  0.7020
   50CHL1   H1A 3671   4.115   6.422   7.095  0.5196  0.1561  0.8749
   50CHL1   H1B 3672   4.279   6.364   7.122 -1.0204  0.5326  2.8145
   50CHL1    C2 3673   4.214   6.361   6.903 -0.6128 -0.4874 -0.0766
   50CHL1   H2A 3674   4.235   6.466   6.876 -1.2756 -0.5698 -0.9479
   50CHL1   H2B 3675   4.126   6.322   6.849  0.6442 -0.4965 -2.2116
   50CHL1   C20 3676   3.941   6.176   7.794 -0.3463 -0.5330  0.4965
   50CHL1   H20 3677   3.847   6.162   7.736 -0.3123  3.2388 -0.7222
   50CHL1   C21 3678   3.925   6.325   7.827  0.2364  0.2616  0.4138
   50CHL1  H21A 3679   3.921   6.380   7.731 -0.0404 -1.7952 -0.8061
   50CHL1  H21B 3680   4.004   6.364   7.895  1.7393 -0.6687 -0.7367
   50CHL1  H21C 3681   3.824   6.339   7.872  0.7235 -0.1259  1.6750
   50CHL1   C22 3682   3.940   6.084   7.918 -0.8197  1.3590 -0.1257
   50CHL1  H22A 3683   3.937   5.980   7.879 -2.1602  1.5194 -0.4849
   50CHL1  H22B 3684   4.033   6.101   7.976  0.8662 -1.7807 -1.6678
   50CHL1   C23 3685   3.831   6.099   8.016  0.1868 -0.4544  0.1512
   50CHL1  H23A 3686   3.828   6.199   8.062  1.5292 -0.3409  0.0348
   50CHL1  H23B 3687   3.728   6.084   7.975  0.2695 -2.4713  0.5718
   50CHL1   C24 3688   3.845   6.002   8.138 -0.0754 -0.1803  0.5122
   50CHL1  H24A 3689   3.767   6.029   8.212 -0.6472 -0.1987 -0.0732
   50CHL1  H24B 3690   3.833   5.896   8.108 -0.7396 -0.1785  0.7639
   50CHL1   C25 3691   3.986   5.991   8.204 -0.5962 -0.2665  0.7697
   50CHL1   H25 3692   4.056   5.950   8.128 -0.6730 -1.4128  1.3063
   50CHL1   C26 3693   4.033   6.123   8.258 -0.2854 -0.4737  0.3454
   50CHL1  H26A 3694   3.943   6.163   8.308 -0.2426  0.5910 -0.3856
   50CHL1  H26B 3695   4.118   6.102   8.326  0.5253  0.2169 -0.4101
   50CHL1  H26C 3696   4.062   6.191   8.175  0.9235 -0.0348  1.0982
   50CHL1   C27 3697   3.979   5.888   8.321 -0.1818 -0.5120 -0.2839
   50CHL1  H27A 3698   3.958   5.785   8.285  2.7079 -1.2928 -0.0231
   50CHL1  H27B 3699   4.070   5.890   8.385 -2.1699 -0.4987  2.7757
   50CHL1  H27C 3700   3.888   5.902   8.383  0.0708  0.4402 -0.1077
   51CHL1    C3 3701   4.022   4.485   7.007  0.5119 -0.6246  0.5594
   51CHL1    H3 3702   4.013   4.376   7.028  0.9404 -0.6945  0.3947
   51CHL1    O3 3703   4.005   4.503   6.863 -0.2582 -0.1157 -0.3820
   51CHL1   H3' 3704   4.003   4.598   6.853  0.0505 -0.1550 -0.8535
   51CHL1    C4 3705   3.914   4.556   7.088 -0.3275 -0.3341  0.0744
   51CHL1   H4A 3706   3.899   4.665   7.071  1.2184  0.0297  0.8685
   51CHL1   H4B 3707   3.817   4.512   7.055 -1.5759  2.6516 -0.5158
   51CHL1    C5 3708   3.934   4.537   7.236  0.1114  0.6477 -0.0778
   51CHL1    C6 3709   3.839   4.488   7.316  0.0298  0.5013 -0.0982
   51CHL1    H6 3710   3.748   4.455   7.264 -1.0850  1.9370  0.8598
   51CHL1    C7 3711   3.847   4.476   7.463 -0.7554 -0.0897 -0.4084
   51CHL1   H7A 3712   3.750   4.510   7.507  0.4021  2.3095  0.4552
   51CHL1   H7B 3713   3.867   4.371   7.493 -1.9196 -0.3137 -0.3440
   51CHL1    C8 3714   3.963   4.549   7.530  0.6225 -0.2162 -0.5575
   51CHL1    H8 3715   3.931   4.655   7.529  2.6973  0.4506 -0.0528
   51CHL1   C14 3716   3.993   4.493   7.665  0.1791  0.5619  0.4641
   51CHL1   H14 3717   4.029   4.389   7.645  0.1981  0.7412 -0.4917
   51CHL1   C15 3718   3.873   4.476   7.760 -0.5330 -0.6027 -0.6318
   51CHL1  H15A 3719   3.815   4.571   7.766  1.5983  0.6986  2.0604
   51CHL1  H15B 3720   3.812   4.388   7.732 -0.1093 -0.6134 -1.5517
   51CHL1   C16 3721   3.947   4.452   7.898 -0.0359  0.0434 -0.3390
   51CHL1  H16A 3722   3.906   4.523   7.973  0.2391  0.4585 -0.5784
   51CHL1  H16B 3723   3.928   4.347   7.927 -0.1677  0.1875  0.1018
   51CHL1   C17 3724   4.102   4.466   7.867 -0.3731  0.8506 -0.0550
   51CHL1   H17 3725   4.134   4.363   7.842  0.0976  0.8549  0.5015
   51CHL1   C13 3726   4.111   4.545   7.732 -0.3561 -0.4154  0.1247
   51CHL1   C18 3727   4.096   4.703   7.762 -0.1530 -0.4219 -0.2696
   51CHL1  H18A 3728   4.185   4.761   7.794 -0.4465 -0.5774  0.8856
   51CHL1  H18B 3729   4.064   4.745   7.665  0.1239  1.7202  0.5021
   51CHL1  H18C 3730   4.008   4.724   7.827 -0.5887 -0.4769 -0.8356
   51CHL1   C12 3731   4.236   4.531   7.649 -0.0260 -0.3092  0.3801
   51CHL1  H12A 3732   4.321   4.580   7.701  0.9882  0.2164 -1.6800
   51CHL1  H12B 3733   4.253   4.421   7.645  2.0879  0.0069 -0.4184
   51CHL1   C11 3734   4.216   4.589   7.508 -0.1598 -0.0754  0.0684
   51CHL1  H11A 3735   4.212   4.700   7.509  4.3994  0.2821  0.5566
   51CHL1  H11B 3736   4.310   4.567   7.452  0.2094  0.2989  0.5376
   51CHL1    C9 3737   4.092   4.527   7.444  0.1979  0.8579  0.3962
   51CHL1    H9 3738   4.115   4.418   7.436 -0.1809  0.6390  2.0470
   51CHL1   C10 3739   4.071   4.572   7.290  0.4087 -0.5484 -0.4100
   51CHL1   C19 3740   4.089   4.720   7.270  0.6627  0.0965  0.1004
   51CHL1  H19A 3741   4.072   4.760   7.168  1.3131  2.9229  1.0266
   51CHL1  H19B 3742   4.027   4.779   7.341  2.8784  0.2674  2.0223
   51CHL1  H19C 3743   4.195   4.751   7.287  0.4254  2.2341 -1.9720
   51CHL1    C1 3744   4.174   4.492   7.203 -0.5740  0.3790 -0.0805
   51CHL1   H1A 3745   4.274   4.530   7.232 -0.0070 -1.4923  0.5743
   51CHL1   H1B 3746   4.160   4.383   7.218 -0.7274  0.1560 -1.7168
   51CHL1    C2 3747   4.161   4.513   7.055 -0.2454 -0.2337  0.5089
   51CHL1   H2A 3748   4.242   4.459   7.003 -0.8820  0.3445 -1.1590
   51CHL1   H2B 3749   4.172   4.621   7.029 -2.2683  0.0824  0.7584
   51CHL1   C20 3750   4.178   4.515   7.991  0.0879  0.1395 -0.4167
   51CHL1   H20 3751   4.128   4.607   8.030  0.9796  0.1294  0.8177
   51CHL1   C21 3752   4.331   4.547   7.963 -0.0390  0.7309  0.2496
   51CHL1  H21A 3753   4.386   4.569   8.057  0.8074  0.5698 -0.2045
   51CHL1  H21B 3754   4.346   4.632   7.893 -0.1257 -0.1906 -0.9126
   51CHL1  H21C 3755   4.369   4.459   7.908  1.3387  1.0494  0.6653
   51CHL1   C22 3756   4.167   4.413   8.114  0.0356 -0.3903  0.4749
   51CHL1  H22A 3757   4.063   4.374   8.108 -1.0046  2.2012  0.0500
   51CHL1  H22B 3758   4.241   4.331   8.110  0.3294 -0.0893 -1.8456
   51CHL1   C23 3759   4.167   4.495   8.246  0.1764  0.0840 -0.4009
   51CHL1  H23A 3760   4.247   4.572   8.249 -1.9024  2.3681 -0.3325
   51CHL1  H23B 3761   4.073   4.554   8.259  0.3401 -0.0495  1.7288
   51CHL1   C24 3762   4.183   4.403   8.372 -0.2598 -0.3747  0.7990
   51CHL1  H24A 3763   4.139   4.303   8.350  0.1579 -0.8114  1.8488
   51CHL1  H24B 3764   4.284   4.396   8.417  0.4895  0.7434 -0.6530
   51CHL1   C25 3765   4.093   4.441   8.490  0.4961  0.2114  0.4878
   51CHL1   H25 3766   3.987   4.440   8.455  0.6282 -1.8408  0.0472
   51CHL1   C26 3767   4.107   4.337   8.601  0.7250  0.1002 -0.0761
   51CHL1  H26A 3768   4.197   4.332   8.665 -0.1443  1.3256  1.3223
   51CHL1  H26B 3769   4.026   4.344   8.678  2.1875  0.1453  1.5205
   51CHL1  H26C 3770   4.088   4.239   8.552  0.8944  1.2626 -2.5561
   51CHL1   C27 3771   4.141   4.579   8.549 -0.2778  0.1646 -0.7405
   51CHL1  H27A 3772   4.238   4.571   8.604 -0.5674 -1.6284 -0.4173
   51CHL1  H27B 3773   4.169   4.642   8.462  1.8328 -0.1086 -0.3328
   51CHL1  H27C 3774   4.073   4.626   8.623  1.3357 -0.8240  1.5021
   52CHL1    C3 3775   5.493   6.328   6.946 -0.9014  0.3690  0.0637
   52CHL1    H3 3776   5.529   6.421   6.897 -2.0356  1.0430  0.4617
   52CHL1    O3 3777   5.508   6.219   6.856  0.1919  0.9163 -0.2995
   52CHL1   H3' 3778   5.435   6.202   6.796  2.6548 -0.7073 -3.1056
   52CHL1    C4 3779   5.576   6.293   7.068 -0.5711 -0.0820 -0.0850
   52CHL1   H4A 3780   5.563   6.188   7.102  1.0877 -0.7545 -1.3730
   52CHL1   H4B 3781   5.685   6.288   7.051 -0.6590 -1.4173 -0.3722
   52CHL1    C5 3782   5.560   6.387   7.187  0.1660 -0.0376  0.2967
   52CHL1    C6 3783   5.664   6.449   7.240 -0.8504 -0.3224 -0.0689
   52CHL1    H6 3784   5.761   6.429   7.191 -1.6843  2.2603 -3.0644
   52CHL1    C7 3785   5.657   6.533   7.369 -0.3822 -0.2788  0.0871
   52CHL1   H7A 3786   5.748   6.520   7.432 -0.6532  0.7849  0.7255
   52CHL1   H7B 3787   5.677   6.636   7.334  0.9502 -0.8626 -0.9438
   52CHL1    C8 3788   5.513   6.508   7.438 -0.2400 -0.0511 -0.2629
   52CHL1    H8 3789   5.521   6.406   7.480  1.0145 -0.1080 -0.5992
   52CHL1   C14 3790   5.484   6.601   7.554  0.3063 -0.1193 -0.3776
   52CHL1   H14 3791   5.470   6.701   7.506  4.2789 -0.7964 -3.5149
   52CHL1   C15 3792   5.597   6.612   7.660 -0.1302  0.6029  0.1049
   52CHL1  H15A 3793   5.650   6.516   7.676  0.2745  0.1312 -3.2082
   52CHL1  H15B 3794   5.666   6.694   7.634 -0.6973  0.9901 -0.1967
   52CHL1   C16 3795   5.518   6.649   7.782  0.4642  0.2404  0.5328
   52CHL1  H16A 3796   5.531   6.562   7.850 -0.9339  0.1074  0.6479
   52CHL1  H16B 3797   5.562   6.733   7.842  0.6897  1.7415 -1.6160
   52CHL1   C17 3798   5.367   6.657   7.749 -0.5508 -0.1365 -0.3694
   52CHL1   H17 3799   5.354   6.760   7.709  0.4277  0.9423  1.8795
   52CHL1   C13 3800   5.353   6.567   7.633  0.2715 -0.3569  0.2981
   52CHL1   C18 3801   5.355   6.414   7.680 -1.4388 -0.7320  0.8223
   52CHL1  H18A 3802   5.356   6.349   7.590  1.2133  2.2024 -1.5232
   52CHL1  H18B 3803   5.444   6.392   7.742  1.0131  1.4356 -1.6547
   52CHL1  H18C 3804   5.264   6.387   7.737 -1.3101 -1.9376  0.4848
   52CHL1   C12 3805   5.231   6.600   7.538  0.8997  0.0137  0.2726
   52CHL1  H12A 3806   5.137   6.575   7.590  1.3646  0.5133  1.3821
   52CHL1  H12B 3807   5.226   6.706   7.506 -0.1375 -0.2430 -0.4499
   52CHL1   C11 3808   5.249   6.510   7.410  0.1313  0.0634 -0.5708
   52CHL1  H11A 3809   5.238   6.408   7.453 -0.4595  1.1316  1.9781
   52CHL1  H11B 3810   5.182   6.531   7.324 -0.8394  1.1960  0.4263
   52CHL1    C9 3811   5.395   6.518   7.343 -0.1470 -0.5567  0.7674
   52CHL1    H9 3812   5.410   6.621   7.306  0.2194 -0.2369  1.7830
   52CHL1   C10 3813   5.413   6.408   7.228  1.0484  0.2525 -0.4923
   52CHL1   C19 3814   5.363   6.268   7.283  0.1100 -0.7903 -0.1343
   52CHL1  H19A 3815   5.415   6.236   7.376 -1.4744 -0.3333  0.9543
   52CHL1  H19B 3816   5.254   6.274   7.303 -0.7359 -1.2439 -3.8108
   52CHL1  H19C 3817   5.379   6.190   7.206  1.6379  1.1221 -1.9006
   52CHL1    C1 3818   5.338   6.448   7.105  0.6776  0.7168  0.6875
   52CHL1   H1A 3819   5.229   6.447   7.124  0.6573  0.5599  0.5669
   52CHL1   H1B 3820   5.367   6.550   7.074 -0.4061  0.5517 -0.9782
   52CHL1    C2 3821   5.347   6.344   6.982  0.3912 -0.6746  0.1897
   52CHL1   H2A 3822   5.289   6.379   6.893  0.7347 -0.3760  0.0839
   52CHL1   H2B 3823   5.301   6.254   7.027 -0.3551  0.0411  0.8902
   52CHL1   C20 3824   5.271   6.634   7.870  0.1235  0.4128  0.5370
   52CHL1   H20 3825   5.288   6.536   7.920 -0.3157  0.5070  0.8804
   52CHL1   C21 3826   5.118   6.645   7.833 -0.1124 -0.2420  0.8137
   52CHL1  H21A 3827   5.093   6.733   7.771 -1.1608 -0.3538  1.0503
   52CHL1  H21B 3828   5.048   6.650   7.920 -1.7402 -0.4287 -0.4260
   52CHL1  H21C 3829   5.092   6.548   7.785 -1.2687 -0.3079  1.5234
   52CHL1   C22 3830   5.301   6.739   7.991  0.4519  0.0257 -0.1117
   52CHL1  H22A 3831   5.409   6.730   8.016 -0.0433  0.4460  2.5305
   52CHL1  H22B 3832   5.280   6.844   7.963 -0.5349 -0.2534 -0.4356
   52CHL1   C23 3833   5.223   6.721   8.125 -0.0846  0.3998 -0.1259
   52CHL1  H23A 3834   5.114   6.718   8.102 -0.1308  1.4305 -0.0440
   52CHL1  H23B 3835   5.250   6.619   8.162 -2.2279 -0.1778 -0.0461
   52CHL1   C24 3836   5.256   6.839   8.219  0.2637  0.9978  0.2350
   52CHL1  H24A 3837   5.362   6.819   8.247  0.3511 -2.4399 -1.9383
   52CHL1  H24B 3838   5.247   6.936   8.166 -0.8922  0.8088  0.0641
   52CHL1   C25 3839   5.184   6.843   8.357 -0.0919  0.3546 -0.7143
   52CHL1   H25 3840   5.074   6.838   8.345  0.0030  0.9403 -2.0079
   52CHL1   C26 3841   5.221   6.724   8.457 -0.1000  0.4335 -0.1354
   52CHL1  H26A 3842   5.253   6.633   8.402  1.7042  0.2636  1.1354
   52CHL1  H26B 3843   5.313   6.752   8.512  1.8557  0.7143 -3.2458
   52CHL1  H26C 3844   5.142   6.699   8.531 -0.2536 -4.4820 -1.6464
   52CHL1   C27 3845   5.203   6.983   8.424  0.6822  0.6511  1.1498
   52CHL1  H27A 3846   5.147   6.973   8.520  0.0590  1.0265  0.8277
   52CHL1  H27B 3847   5.310   7.010   8.440  0.7962 -0.2039  1.9195
   52CHL1  H27C 3848   5.151   7.056   8.359  0.1442  0.1308  0.9869
   53CHL1    C3 3849   2.507   2.360   7.245 -0.2223  0.3895 -0.0658
   53CHL1    H3 3850   2.434   2.281   7.270  1.2291 -0.6436  1.0203
   53CHL1    O3 3851   2.499   2.412   7.111  0.0408  0.3369  0.4501
   53CHL1   H3' 3852   2.550   2.354   7.053 -1.4747 -0.9398  0.3250
   53CHL1    C4 3853   2.486   2.475   7.343 -0.2182 -0.6289  0.3813
   53CHL1   H4A 3854   2.544   2.564   7.310 -1.7122  0.1082 -0.3644
   53CHL1   H4B 3855   2.383   2.510   7.323  0.4681  0.6636 -1.1358
   53CHL1    C5 3856   2.519   2.442   7.488  0.2065  0.1082 -0.2811
   53CHL1    C6 3857   2.416   2.453   7.572  0.2601  0.1784  0.3225
   53CHL1    H6 3858   2.314   2.480   7.544 -0.5789 -2.8887  0.1311
   53CHL1    C7 3859   2.432   2.414   7.713 -0.0207  0.3516 -0.5310
   53CHL1   H7A 3860   2.376   2.476   7.786  0.9581  0.1772  0.3814
   53CHL1   H7B 3861   2.389   2.312   7.726 -0.3530  0.7484  1.8849
   53CHL1    C8 3862   2.578   2.394   7.751 -0.0226 -0.0011 -0.1644
   53CHL1    H8 3863   2.630   2.492   7.759 -0.4285  0.1823  0.3430
   53CHL1   C14 3864   2.598   2.332   7.891 -0.4373  0.2354 -0.3937
   53CHL1   H14 3865   2.563   2.229   7.869  1.8894 -0.4012 -1.4100
   53CHL1   C15 3866   2.520   2.373   8.012  0.2839  0.2807  0.5848
   53CHL1  H15A 3867   2.523   2.484   8.015  0.0352  0.3677 -1.4186
   53CHL1  H15B 3868   2.418   2.331   8.005  0.4598 -0.0666  0.0487
   53CHL1   C16 3869   2.594   2.310   8.134 -0.5566  0.6982 -0.1395
   53CHL1  H16A 3870   2.615   2.382   8.215 -2.0897  0.4740  0.4857
   53CHL1  H16B 3871   2.537   2.229   8.184  1.5575 -0.3621  0.6727
   53CHL1   C17 3872   2.726   2.246   8.080 -0.2604  0.0248  0.1640
   53CHL1   H17 3873   2.697   2.145   8.043  0.2275  0.8635 -2.7560
   53CHL1   C13 3874   2.751   2.319   7.939 -0.1758  0.0453 -0.1850
   53CHL1   C18 3875   2.815   2.452   7.955  0.3283  0.3761 -0.1186
   53CHL1  H18A 3876   2.750   2.518   8.017  0.9245 -0.0975  1.0508
   53CHL1  H18B 3877   2.922   2.455   7.986  1.1524  0.2538 -2.7139
   53CHL1  H18C 3878   2.815   2.506   7.858  0.4376 -0.0260 -0.3449
   53CHL1   C12 3879   2.817   2.223   7.843 -0.3051  0.1220  0.3549
   53CHL1  H12A 3880   2.922   2.204   7.872 -0.4248 -0.0481  0.6733
   53CHL1  H12B 3881   2.768   2.124   7.838  1.4188 -0.7347 -0.2402
   53CHL1   C11 3882   2.807   2.280   7.695  0.7806 -0.0892 -0.1188
   53CHL1  H11A 3883   2.878   2.364   7.684  0.3436  0.1992 -0.7776
   53CHL1  H11B 3884   2.853   2.206   7.626  1.2327  0.3617 -0.2976
   53CHL1    C9 3885   2.659   2.315   7.648  0.0560  0.3485 -0.1126
   53CHL1    H9 3886   2.606   2.217   7.643 -0.7150  0.7994 -1.1020
   53CHL1   C10 3887   2.655   2.378   7.514  0.5348 -0.5166  0.1675
   53CHL1   C19 3888   2.754   2.496   7.490  0.0639 -0.2537 -0.5331
   53CHL1  H19A 3889   2.757   2.569   7.574  1.2127  1.1486 -1.7590
   53CHL1  H19B 3890   2.856   2.458   7.467  0.5849  1.3680 -0.9896
   53CHL1  H19C 3891   2.731   2.546   7.394 -0.5620  0.0141 -0.2510
   53CHL1    C1 3892   2.694   2.267   7.401  0.7123  0.4072 -0.7216
   53CHL1   H1A 3893   2.803   2.246   7.404  1.2348  2.4653 -2.6056
   53CHL1   H1B 3894   2.634   2.175   7.420 -1.3172  1.6577 -0.7544
   53CHL1    C2 3895   2.648   2.309   7.260 -0.2634  0.2278  0.0068
   53CHL1   H2A 3896   2.661   2.217   7.199 -1.1398  0.5001 -0.6052
   53CHL1   H2B 3897   2.711   2.388   7.213  0.0495 -0.4604 -0.7662
   53CHL1   C20 3898   2.837   2.248   8.188  0.3025 -0.3733 -0.2205
   53CHL1   H20 3899   2.863   2.353   8.213 -1.9097  0.8257 -2.5365
   53CHL1   C21 3900   2.963   2.187   8.121  0.2641  0.2144 -0.0851
   53CHL1  H21A 3901   2.953   2.089   8.070  3.2091 -0.2769  0.1242
   53CHL1  H21B 3902   3.045   2.172   8.194 -0.4340  1.0522  0.8941
   53CHL1  H21C 3903   3.015   2.250   8.046  1.4038 -1.8188 -1.0878
   53CHL1   C22 3904   2.808   2.150   8.308 -0.0639 -0.3353  0.0011
   53CHL1  H22A 3905   2.704   2.169   8.344  1.2464  4.7813  1.8655
   53CHL1  H22B 3906   2.814   2.044   8.276 -2.3829 -0.5835  0.2120
   53CHL1   C23 3907   2.900   2.175   8.426 -0.0063 -0.3189 -0.3478
   53CHL1  H23A 3908   2.995   2.119   8.415 -0.3298 -1.1585  0.9160
   53CHL1  H23B 3909   2.925   2.282   8.410 -0.9491 -0.3059 -1.9592
   53CHL1   C24 3910   2.844   2.149   8.570  0.1036 -0.1690 -0.4291
   53CHL1  H24A 3911   2.927   2.168   8.641  1.4929 -1.7234 -1.5579
   53CHL1  H24B 3912   2.762   2.221   8.589 -1.6084 -1.7874 -1.4253
   53CHL1   C25 3913   2.787   2.008   8.590  0.1114 -0.1049  0.5350
   53CHL1   H25 3914   2.711   1.992   8.510  2.7705  1.0377 -2.4225
   53CHL1   C26 3915   2.901   1.904   8.567  0.1552  0.6349 -0.3795
   53CHL1  H26A 3916   2.867   1.803   8.599  1.7711  0.2627  0.2715
   53CHL1  H26B 3917   2.932   1.905   8.461 -0.9667 -1.7359 -0.7923
   53CHL1  H26C 3918   2.988   1.927   8.631 -0.0967 -1.5822  0.8502
   53CHL1   C27 3919   2.718   2.005   8.727  0.1676  0.3167  0.0020
   53CHL1  H27A 3920   2.787   2.031   8.811  0.4985 -0.8392  0.1069
   53CHL1  H27B 3921   2.622   2.059   8.715  0.8628  1.0470 -3.2116
   53CHL1  H27C 3922   2.700   1.898   8.754 -0.5174 -0.1649 -2.1512
   54CHL1    C3 3923   3.653   3.237   6.891  0.1626 -1.2147  0.1717
   54CHL1    H3 3924   3.751   3.218   6.939 -0.0487 -0.4631  0.9340
   54CHL1    O3 3925   3.659   3.267   6.751 -0.0684 -0.8247  0.5613
   54CHL1   H3' 3926   3.613   3.197   6.704  0.8964 -1.2678  0.2603
   54CHL1    C4 3927   3.552   3.123   6.921 -0.5270  0.5314 -0.7791
   54CHL1   H4A 3928   3.455   3.138   6.869 -1.1082 -2.1068 -0.5842
   54CHL1   H4B 3929   3.594   3.033   6.872  0.7899 -0.7099  2.3242
   54CHL1    C5 3930   3.529   3.093   7.065  0.6721 -0.5125  0.2670
   54CHL1    C6 3931   3.550   2.968   7.109 -0.2476  0.5135 -0.0310
   54CHL1    H6 3932   3.583   2.887   7.042 -0.0843 -0.6038  1.3555
   54CHL1    C7 3933   3.533   2.931   7.255  0.5844 -0.1369 -0.7582
   54CHL1   H7A 3934   3.477   2.835   7.257 -0.2239  0.3331 -0.5162
   54CHL1   H7B 3935   3.633   2.908   7.297 -0.7261 -0.7948  2.2284
   54CHL1    C8 3936   3.464   3.048   7.337  0.1554  0.2827  0.7184
   54CHL1    H8 3937   3.356   3.042   7.309  0.6595 -0.7782 -1.1606
   54CHL1   C14 3938   3.488   3.022   7.488  0.3078  0.0988  0.3903
   54CHL1   H14 3939   3.597   3.039   7.497  0.2002  0.9740  0.1885
   54CHL1   C15 3940   3.452   2.885   7.550 -0.6551 -0.0753  0.4046
   54CHL1  H15A 3941   3.360   2.858   7.494  0.3003  0.2422 -1.3714
   54CHL1  H15B 3942   3.530   2.809   7.528 -0.6026  0.0936  0.0103
   54CHL1   C16 3943   3.437   2.914   7.700  0.4277 -1.0613 -0.5229
   54CHL1  H16A 3944   3.332   2.891   7.727  1.1716 -2.0909  1.7420
   54CHL1  H16B 3945   3.494   2.851   7.772  2.1282 -0.7869 -1.5748
   54CHL1   C17 3946   3.456   3.071   7.718  0.6800 -0.0556  0.4936
   54CHL1   H17 3947   3.565   3.091   7.724  0.5361  0.8819  0.0352
   54CHL1   C13 3948   3.417   3.123   7.582 -0.0012  0.3109 -0.3688
   54CHL1   C18 3949   3.264   3.118   7.570  0.7770  0.4190 -0.2571
   54CHL1  H18A 3950   3.216   3.198   7.631  0.2144 -0.1663  0.0809
   54CHL1  H18B 3951   3.237   3.134   7.463 -0.3680  1.2533  0.1457
   54CHL1  H18C 3952   3.220   3.023   7.606  0.3782  0.2674 -1.1115
   54CHL1   C12 3953   3.472   3.261   7.556 -0.4689  0.4425  0.3427
   54CHL1  H12A 3954   3.418   3.347   7.599 -0.0561  0.8607  0.0420
   54CHL1  H12B 3955   3.581   3.267   7.579 -0.4540  1.4488  0.0557
   54CHL1   C11 3956   3.458   3.290   7.405 -0.3353 -0.3068  0.3067
   54CHL1  H11A 3957   3.351   3.295   7.373  0.6115  1.8558 -3.1137
   54CHL1  H11B 3958   3.505   3.389   7.386  2.5475 -1.6109  0.1547
   54CHL1    C9 3959   3.518   3.186   7.304  0.4250  0.1097  0.1691
   54CHL1    H9 3960   3.626   3.192   7.333  0.2769  0.9099  0.5612
   54CHL1   C10 3961   3.497   3.215   7.154 -0.3104  0.0045  0.9477
   54CHL1   C19 3962   3.351   3.258   7.122 -0.2136 -0.4104  0.1352
   54CHL1  H19A 3963   3.279   3.177   7.149 -0.7506 -1.8378 -4.6281
   54CHL1  H19B 3964   3.320   3.347   7.180  2.9949 -0.3334  1.9906
   54CHL1  H19C 3965   3.339   3.282   7.014 -0.9215  1.0580  0.5264
   54CHL1    C1 3966   3.589   3.332   7.108  0.6214 -0.0038 -0.5461
   54CHL1   H1A 3967   3.558   3.424   7.164  1.1447  1.0964 -1.9990
   54CHL1   H1B 3968   3.694   3.310   7.136 -0.0462  1.8523  4.5371
   54CHL1    C2 3969   3.594   3.360   6.959  0.4339 -0.3086 -0.4263
   54CHL1   H2A 3970   3.659   3.450   6.948  0.0136 -0.0054 -0.4805
   54CHL1   H2B 3971   3.493   3.386   6.920  1.4874  2.3191 -1.6235
   54CHL1   C20 3972   3.402   3.129   7.857 -0.7314  0.9859 -0.2540
   54CHL1   H20 3973   3.446   3.062   7.934  2.1135  3.5642  0.5186
   54CHL1   C21 3974   3.252   3.113   7.879 -0.3036  0.0645  0.2744
   54CHL1  H21A 3975   3.197   3.194   7.825 -3.8075 -1.4316  1.3500
   54CHL1  H21B 3976   3.221   3.121   7.985 -0.2196 -0.9550  0.3855
   54CHL1  H21C 3977   3.218   3.013   7.844 -0.3873 -0.2566  1.2541
   54CHL1   C22 3978   3.452   3.271   7.889 -0.8042  0.8685 -0.3035
   54CHL1  H22A 3979   3.557   3.275   7.853 -0.4477  0.1578  0.6326
   54CHL1  H22B 3980   3.392   3.337   7.823 -3.0330 -1.0850 -0.3666
   54CHL1   C23 3981   3.439   3.330   8.025 -0.4037  0.4442  0.0016
   54CHL1  H23A 3982   3.483   3.432   8.017  0.5120  0.1034  0.5959
   54CHL1  H23B 3983   3.334   3.355   8.052  0.6950  4.3612  1.4462
   54CHL1   C24 3984   3.515   3.255   8.134 -0.1294 -0.1333 -0.4812
   54CHL1  H24A 3985   3.459   3.159   8.146 -0.2710 -0.1166 -1.0214
   54CHL1  H24B 3986   3.619   3.228   8.105  0.3483 -0.5525  1.4707
   54CHL1   C25 3987   3.507   3.324   8.282  0.6385 -0.1402  0.0465
   54CHL1   H25 3988   3.411   3.379   8.282  0.1255 -1.0216 -0.4425
   54CHL1   C26 3989   3.503   3.228   8.402 -0.6093 -0.3265 -0.0807
   54CHL1  H26A 3990   3.567   3.138   8.394 -0.4642 -0.0740 -2.3398
   54CHL1  H26B 3991   3.536   3.284   8.493 -1.7614 -0.0143  0.1633
   54CHL1  H26C 3992   3.401   3.186   8.418 -0.6656  0.4755  2.0697
   54CHL1   C27 3993   3.612   3.441   8.282  0.5335  0.2031 -0.5246
   54CHL1  H27A 3994   3.622   3.487   8.182  1.2665 -0.0787 -0.5860
   54CHL1  H27B 3995   3.591   3.515   8.362  0.5362 -0.3290 -0.0162
   54CHL1  H27C 3996   3.713   3.397   8.300  0.1503 -0.2729  0.6032
   55CHL1    C3 3997   1.836   5.118   7.225  0.2710 -0.2261  0.1084
   55CHL1    H3 3998   1.931   5.102   7.280  2.6490 -0.6831 -3.7946
   55CHL1    O3 3999   1.869   5.102   7.087  0.7373  0.9574 -0.4967
   55CHL1   H3' 4000   1.789   5.079   7.039  0.7529  0.7180 -0.4079
   55CHL1    C4 4001   1.733   5.012   7.272 -0.0359 -0.5241  0.2376
   55CHL1   H4A 4002   1.634   5.032   7.226 -0.6703 -2.7556  0.5123
   55CHL1   H4B 4003   1.760   4.908   7.244  0.6861  0.1921 -1.9665
   55CHL1    C5 4004   1.700   5.040   7.418  0.2535  0.1833  0.0858
   55CHL1    C6 4005   1.724   4.949   7.517 -0.2824 -0.1832 -0.0373
   55CHL1    H6 4006   1.773   4.851   7.499 -1.3362 -0.4943 -1.3587
   55CHL1    C7 4007   1.691   4.970   7.662  0.3794 -0.4730 -0.1974
   55CHL1   H7A 4008   1.648   4.884   7.717  0.7275 -0.8584 -0.5213
   55CHL1   H7B 4009   1.788   5.000   7.708  0.2090 -0.4738  0.1645
   55CHL1    C8 4010   1.599   5.095   7.688 -0.4679 -0.2807 -0.7630
   55CHL1    H8 4011   1.493   5.075   7.662 -0.3980 -0.6658 -0.7575
   55CHL1   C14 4012   1.606   5.131   7.836 -0.5315 -0.2611 -0.2610
   55CHL1   H14 4013   1.714   5.151   7.852 -0.8017  2.5333 -1.3221
   55CHL1   C15 4014   1.566   5.033   7.941  0.0836 -0.3584 -1.5347
   55CHL1  H15A 4015   1.475   4.982   7.902 -1.0533  0.0164  0.4959
   55CHL1  H15B 4016   1.647   4.957   7.947 -0.5703 -1.1027 -1.9510
   55CHL1   C16 4017   1.541   5.112   8.074 -0.0946 -0.4667  0.4425
   55CHL1  H16A 4018   1.447   5.091   8.130 -0.6195  2.1482  0.6755
   55CHL1  H16B 4019   1.623   5.097   8.147  2.0129 -0.8468 -1.8744
   55CHL1   C17 4020   1.550   5.262   8.036  0.0103  0.4395 -0.6332
   55CHL1   H17 4021   1.654   5.293   8.060 -0.5430  1.2008  0.8960
   55CHL1   C13 4022   1.543   5.266   7.881  0.3955  0.0923  0.2072
   55CHL1   C18 4023   1.392   5.258   7.847  0.5114  0.1202 -0.8376
   55CHL1  H18A 4024   1.337   5.346   7.887  0.4735 -0.5937  0.7609
   55CHL1  H18B 4025   1.378   5.250   7.737  0.4675 -0.2491 -0.8052
   55CHL1  H18C 4026   1.345   5.170   7.895 -0.1041 -0.5931 -2.6372
   55CHL1   C12 4027   1.612   5.382   7.803 -0.3745 -0.2428  0.5296
   55CHL1  H12A 4028   1.560   5.478   7.826  0.0040  0.2096 -0.4348
   55CHL1  H12B 4029   1.718   5.395   7.832  0.0202  0.0990 -0.9903
   55CHL1   C11 4030   1.598   5.350   7.651 -0.0615 -0.4793  0.3266
   55CHL1  H11A 4031   1.492   5.350   7.616  0.1576  0.4856 -0.3824
   55CHL1  H11B 4032   1.640   5.432   7.589 -2.6251  0.3758 -0.4041
   55CHL1    C9 4033   1.653   5.210   7.604 -0.7108  0.3357  0.5713
   55CHL1    H9 4034   1.760   5.222   7.629 -0.8296 -0.7345  1.7013
   55CHL1   C10 4035   1.648   5.181   7.448 -0.0545  0.4479 -0.2341
   55CHL1   C19 4036   1.495   5.178   7.402 -0.9407  0.2616 -0.4869
   55CHL1  H19A 4037   1.492   5.177   7.291  3.3370 -0.4084 -0.7798
   55CHL1  H19B 4038   1.441   5.096   7.454 -0.7464  0.3752 -0.1106
   55CHL1  H19C 4039   1.444   5.273   7.426 -4.2370 -0.7450 -2.7561
   55CHL1    C1 4040   1.738   5.291   7.385  0.3457  0.5037  0.5260
   55CHL1   H1A 4041   1.689   5.390   7.384 -2.7516 -0.8585  2.2221
   55CHL1   H1B 4042   1.828   5.291   7.451  1.0611 -1.0890 -0.3832
   55CHL1    C2 4043   1.776   5.263   7.238  1.1589 -0.2010 -0.7374
   55CHL1   H2A 4044   1.836   5.344   7.190 -1.5403  0.2193 -3.7362
   55CHL1   H2B 4045   1.682   5.270   7.179  1.5776 -0.4053 -1.4369
   55CHL1   C20 4046   1.458   5.354   8.126 -0.3914  0.2477 -0.1715
   55CHL1   H20 4047   1.351   5.339   8.101 -0.5641  3.5435 -1.9742
   55CHL1   C21 4048   1.481   5.505   8.091  0.3575  0.9727 -0.9092
   55CHL1  H21A 4049   1.431   5.576   8.159  0.4116 -1.4154  1.8137
   55CHL1  H21B 4050   1.455   5.532   7.986  0.6285  1.6034 -0.8215
   55CHL1  H21C 4051   1.590   5.529   8.089  0.3029  1.3730  0.4759
   55CHL1   C22 4052   1.483   5.339   8.280 -0.0643  0.1879 -0.5498
   55CHL1  H22A 4053   1.431   5.407   8.351  0.3673 -0.8568  0.7993
   55CHL1  H22B 4054   1.437   5.243   8.309  0.0231  0.0572 -0.8380
   55CHL1   C23 4055   1.631   5.340   8.325 -0.3007  1.0398 -0.3334
   55CHL1  H23A 4056   1.684   5.263   8.264  0.6499  1.0321  0.4815
   55CHL1  H23B 4057   1.676   5.438   8.302  0.0835  0.5560 -1.7383
   55CHL1   C24 4058   1.659   5.301   8.469 -0.0515 -0.2935 -0.3669
   55CHL1  H24A 4059   1.616   5.382   8.533 -1.9554 -0.1942 -1.6915
   55CHL1  H24B 4060   1.613   5.207   8.505  0.8651  0.0421  1.8540
   55CHL1   C25 4061   1.804   5.303   8.500 -0.5758  0.4422 -0.0620
   55CHL1   H25 4062   1.861   5.256   8.416 -2.5666 -1.6332 -0.3447
   55CHL1   C26 4063   1.860   5.450   8.515  0.0347 -0.0546 -0.2593
   55CHL1  H26A 4064   1.858   5.506   8.419 -1.0250 -1.2812 -0.9815
   55CHL1  H26B 4065   1.799   5.512   8.584 -1.6554 -0.3087 -1.4607
   55CHL1  H26C 4066   1.965   5.453   8.550  0.0142  1.4336 -0.2289
   55CHL1   C27 4067   1.842   5.209   8.617  0.1263 -1.3392  0.6050
   55CHL1  H27A 4068   1.800   5.228   8.717 -1.1786  3.8125 -0.6420
   55CHL1  H27B 4069   1.833   5.102   8.587  0.4536 -2.1787  3.2428
   55CHL1  H27C 4070   1.950   5.230   8.631  0.0197 -1.1786  1.2216
   56CHL1    C3 4071   1.786   3.709   6.936  0.4751 -0.9163  0.4412
   56CHL1    H3 4072   1.840   3.795   6.981 -2.5221  1.6480 -0.6058
   56CHL1    O3 4073   1.816   3.712   6.794  0.6377  0.1552 -0.7769
   56CHL1   H3' 4074   1.775   3.791   6.758 -2.9560 -1.3936 -0.5845
   56CHL1    C4 4075   1.832   3.572   6.988 -0.8790 -0.5072 -0.1771
   56CHL1   H4A 4076   1.770   3.488   6.950 -3.3966  0.0952  2.2870
   56CHL1   H4B 4077   1.938   3.556   6.960 -1.3100 -2.4351 -0.8755
   56CHL1    C5 4078   1.805   3.568   7.136 -0.0678  0.0230  0.5623
   56CHL1    C6 4079   1.895   3.544   7.235 -1.4641  0.0239  0.0033
   56CHL1    H6 4080   1.998   3.535   7.197 -1.0615  0.3065  0.9778
   56CHL1    C7 4081   1.875   3.518   7.381 -0.2428 -0.4134 -0.9188
   56CHL1   H7A 4082   1.925   3.421   7.404 -1.2529 -1.2180 -1.9481
   56CHL1   H7B 4083   1.915   3.601   7.443  0.6163 -0.2639 -1.6420
   56CHL1    C8 4084   1.726   3.500   7.404  0.5175  0.1716 -0.1228
   56CHL1    H8 4085   1.699   3.396   7.376  0.7630  0.2050 -0.4921
   56CHL1   C14 4086   1.695   3.528   7.553  0.8866 -0.5860 -0.1909
   56CHL1   H14 4087   1.712   3.637   7.566 -0.9486 -0.2145 -0.5377
   56CHL1   C15 4088   1.790   3.461   7.658 -0.4933 -0.7481 -0.7278
   56CHL1  H15A 4089   1.806   3.356   7.626 -1.3839 -0.6977 -1.3840
   56CHL1  H15B 4090   1.884   3.521   7.659 -1.2222  0.5158 -2.4892
   56CHL1   C16 4091   1.706   3.467   7.788 -0.3570  0.1278  0.1013
   56CHL1  H16A 4092   1.698   3.360   7.819 -0.1233  0.5882  1.8546
   56CHL1  H16B 4093   1.757   3.519   7.872 -2.1196  3.0216 -0.4697
   56CHL1   C17 4094   1.570   3.531   7.752 -0.2319  0.2311 -0.7038
   56CHL1   H17 4095   1.579   3.635   7.789 -0.5098  0.9214 -2.4788
   56CHL1   C13 4096   1.553   3.517   7.597 -0.5940  0.3419  0.0854
   56CHL1   C18 4097   1.506   3.373   7.565 -0.0040  0.2318 -0.0796
   56CHL1  H18A 4098   1.576   3.307   7.621  0.1728  2.7542  2.9534
   56CHL1  H18B 4099   1.406   3.354   7.609  0.0240  1.2833  0.4734
   56CHL1  H18C 4100   1.498   3.344   7.459  0.3293  2.0516 -0.6383
   56CHL1   C12 4101   1.469   3.622   7.524 -0.2988  0.4007  0.4943
   56CHL1  H12A 4102   1.363   3.607   7.553 -0.8090  0.9380 -0.9692
   56CHL1  H12B 4103   1.498   3.719   7.569 -0.9440 -0.4776  2.9287
   56CHL1   C11 4104   1.492   3.629   7.373 -0.0251  0.2926  0.6792
   56CHL1  H11A 4105   1.438   3.538   7.337  0.8490 -0.4272  1.1653
   56CHL1  H11B 4106   1.456   3.729   7.339 -2.5169  0.2263  2.8071
   56CHL1    C9 4107   1.645   3.609   7.330  0.7187  0.6912  0.0834
   56CHL1    H9 4108   1.695   3.706   7.351  2.9696 -0.3832 -0.0862
   56CHL1   C10 4109   1.658   3.586   7.169 -0.8799  0.0100 -0.4261
   56CHL1   C19 4110   1.572   3.464   7.128 -0.3577  0.8093  0.2700
   56CHL1  H19A 4111   1.615   3.368   7.163  2.3923  1.9317  0.2092
   56CHL1  H19B 4112   1.468   3.477   7.166  0.4409 -0.7564  3.2481
   56CHL1  H19C 4113   1.566   3.447   7.018  2.0367 -0.2655  0.2384
   56CHL1    C1 4114   1.597   3.709   7.098 -0.2919  0.7400 -0.1108
   56CHL1   H1A 4115   1.487   3.697   7.113 -0.4677  2.3121  0.0376
   56CHL1   H1B 4116   1.630   3.802   7.150  3.3975 -1.4401  1.8530
   56CHL1    C2 4117   1.628   3.712   6.948 -0.4689 -0.0056  0.0463
   56CHL1   H2A 4118   1.579   3.799   6.901 -0.6795 -0.2794 -0.2441
   56CHL1   H2B 4119   1.595   3.614   6.909 -2.1209  0.0706  1.1819
   56CHL1   C20 4120   1.456   3.467   7.837  0.1773  0.0210 -0.0358
   56CHL1   H20 4121   1.438   3.364   7.800  0.0559 -0.1436  0.4668
   56CHL1   C21 4122   1.323   3.549   7.811  0.0177  0.9111 -0.6698
   56CHL1  H21A 4123   1.336   3.659   7.818  1.0923  0.8571 -1.5369
   56CHL1  H21B 4124   1.246   3.519   7.885 -0.3642  0.6200 -1.1757
   56CHL1  H21C 4125   1.281   3.528   7.710  0.5618  1.7087 -1.0709
   56CHL1   C22 4126   1.486   3.471   7.992  0.2274 -0.2618  0.1965
   56CHL1  H22A 4127   1.409   3.406   8.039  1.4430 -2.0121 -0.1283
   56CHL1  H22B 4128   1.579   3.416   8.019  1.8201  3.2155  2.6559
   56CHL1   C23 4129   1.493   3.615   8.047 -0.3068  0.3488 -0.5059
   56CHL1  H23A 4130   1.552   3.685   7.984 -0.2869  2.7006  1.9417
   56CHL1  H23B 4131   1.387   3.646   8.033 -0.4625  0.0018 -0.1067
   56CHL1   C24 4132   1.537   3.630   8.192  0.2365  0.6870 -0.0500
   56CHL1  H24A 4133   1.491   3.563   8.268 -1.4767  2.2853  0.3767
   56CHL1  H24B 4134   1.648   3.618   8.201  0.2776  1.8826  1.6841
   56CHL1   C25 4135   1.501   3.774   8.232 -0.0550  0.2151 -0.6048
   56CHL1   H25 4136   1.533   3.843   8.150  0.0387 -0.4246 -1.1099
   56CHL1   C26 4137   1.346   3.789   8.248 -0.1097  0.2219 -0.2788
   56CHL1  H26A 4138   1.306   3.693   8.287 -2.6109  1.3055  0.0101
   56CHL1  H26B 4139   1.298   3.804   8.149 -0.8128 -0.2496 -0.0160
   56CHL1  H26C 4140   1.321   3.874   8.314  0.5576  2.4232 -2.6824
   56CHL1   C27 4141   1.559   3.798   8.375  0.2553  0.3147 -0.8290
   56CHL1  H27A 4142   1.669   3.787   8.376  0.2055 -0.1766  0.2278
   56CHL1  H27B 4143   1.514   3.894   8.410 -2.8467 -1.6266  0.9887
   56CHL1  H27C 4144   1.509   3.721   8.438 -0.0253  2.2398  1.4650
   57SAPC     N 4145   5.865   6.395  10.997  0.6606  0.1767 -0.2267
   57SAPC   C12 4146   5.990   6.434  10.921 -0.6168 -0.1666  0.8640
   57SAPC  H12A 4147   6.019   6.367  10.842  0.5923  2.4061 -1.0520
   57SAPC  H12B 4148   6.074   6.453  10.986  1.5322  1.4643 -2.1554
   57SAPC   C13 4149   5.895   6.280  11.074  0.3208  0.6038 -0.0476
   57SAPC  H13A 4150   5.888   6.200  11.002 -1.3225  0.8059 -0.1599
   57SAPC  H13B 4151   5.994   6.287  11.116  0.9158  0.1177 -1.3296
   57SAPC  H13C 4152   5.825   6.257  11.153 -0.3892  1.2798 -0.4712
   57SAPC   C14 4153   5.809   6.502  11.085  0.0523 -0.1888 -0.3140
   57SAPC  H14A 4154   5.787   6.594  11.032 -1.0510  0.7609  1.6910
   57SAPC  H14B 4155   5.719   6.483  11.141 -0.0643 -0.4994 -0.6011
   57SAPC  H14C 4156   5.875   6.529  11.167 -1.3204  0.5706  0.5727
   57SAPC   C15 4157   5.753   6.347  10.905 -0.3775  0.1906  0.3999
   57SAPC  H15A 4158   5.734   6.419  10.827 -0.4476 -0.8941 -0.6175
   57SAPC  H15B 4159   5.788   6.259  10.854  1.8300  0.9247  0.5581
   57SAPC  H15C 4160   5.671   6.319  10.970  1.1250  1.0943  2.8272
   57SAPC   C11 4161   5.977   6.577  10.842 -1.0667  0.3413 -0.1929
   57SAPC  H11A 4162   5.900   6.568  10.763 -0.9253 -0.2724 -0.2639
   57SAPC  H11B 4163   6.070   6.600  10.786 -0.1369 -0.9767  0.7247
   57SAPC     P 4164   6.026   6.770  11.013  0.2331  0.0222  0.1246
   57SAPC   O13 4165   5.959   6.798  11.143  0.0640 -0.1350 -0.5751
   57SAPC   O14 4166   6.169   6.715  11.023  0.3578 -0.3914 -0.1183
   57SAPC   O12 4167   5.935   6.680  10.929  1.1220 -0.3945 -0.3934
   57SAPC   O11 4168   6.032   6.901  10.934 -0.1262  0.1844  0.3364
   57SAPC    C1 4169   5.916   6.966  10.869 -0.1976  1.2538 -1.4350
   57SAPC    HA 4170   5.822   6.950  10.926  0.6105  0.0003 -0.4056
   57SAPC    HB 4171   5.929   7.077  10.869 -0.8702  1.3350 -1.3307
   57SAPC    C2 4172   5.897   6.925  10.717  0.0380  1.2086 -0.2855
   57SAPC    HS 4173   5.862   6.820  10.722 -1.8924  1.7562 -1.1681
   57SAPC   O21 4174   6.021   6.932  10.645  0.8913 -0.4050 -0.3009
   57SAPC   C21 4175   6.041   6.840  10.550  0.1519 -0.1842 -0.2952
   57SAPC   O22 4176   5.955   6.759  10.516 -0.6600  0.0954 -0.2035
   57SAPC   C22 4177   6.180   6.859  10.486  0.4576 -0.4767  0.0742
   57SAPC   H2R 4178   6.186   6.969  10.469 -0.6921 -0.1888  1.3424
   57SAPC   H2S 4179   6.265   6.830  10.551  0.2224  1.0255  1.0946
   57SAPC    C3 4180   5.774   7.000  10.656  0.0608  0.0227 -0.7837
   57SAPC    HX 4181   5.793   7.108  10.672  0.1573 -0.3812  2.6677
   57SAPC    HY 4182   5.693   6.995  10.733  1.5004 -1.0470  0.7427
   57SAPC   O31 4183   5.721   6.949  10.538 -0.1686  0.2269  0.5332
   57SAPC   C31 4184   5.793   6.986  10.428  0.2179  0.2594 -0.2950
   57SAPC   O32 4185   5.878   7.077  10.420  1.1877  0.1381  0.4364
   57SAPC   C32 4186   5.750   6.906  10.309  0.0725 -0.6300 -0.0521
   57SAPC   H2X 4187   5.644   6.919  10.280  0.7223 -1.0980 -2.9181
   57SAPC   H2Y 4188   5.780   6.800  10.330  2.8258  0.5372  2.7936
   57SAPC   C23 4189   6.189   6.800  10.347 -0.6511  0.3843  0.5461
   57SAPC   H3R 4190   6.093   6.766  10.303 -0.0558 -0.7048  0.0173
   57SAPC   H3S 4191   6.250   6.707  10.353 -0.5241  0.5573  2.5743
   57SAPC   C24 4192   6.261   6.894  10.247  0.5006  0.0156 -0.0289
   57SAPC   H4R 4193   6.205   6.990  10.242  1.9831  0.8851 -0.7325
   57SAPC   H4S 4194   6.242   6.845  10.149 -0.1840 -1.6728  0.9074
   57SAPC   C25 4195   6.413   6.918  10.269 -0.6445 -0.5744  0.6445
   57SAPC   H5R 4196   6.442   6.969  10.361  1.6064  0.7494 -0.7114
   57SAPC   C26 4197   6.513   6.883  10.188 -0.6754 -0.8948  0.4707
   57SAPC   H6R 4198   6.617   6.900  10.221 -0.5555 -0.7420  0.0160
   57SAPC   C27 4199   6.506   6.819  10.048  0.2918  0.6038  0.2718
   57SAPC   H7R 4200   6.604   6.841  10.001  1.1837 -0.1338  1.7223
   57SAPC   H7S 4201   6.425   6.870   9.991  0.1978  1.8149  1.4435
   57SAPC   C28 4202   6.466   6.670  10.041 -0.2195 -0.0111  0.4212
   57SAPC   H8R 4203   6.444   6.609  10.130 -0.3333 -2.8729 -1.4402
   57SAPC   C29 4204   6.432   6.614   9.925 -0.6600 -0.6197  0.1868
   57SAPC   H9R 4205   6.403   6.508   9.921 -0.7096 -0.6410  0.9332
   57SAPC  C210 4206   6.454   6.682   9.789 -0.5929 -0.2544  0.2326
   57SAPC  H10R 4207   6.514   6.775   9.799 -0.8384 -0.0952  0.2451
   57SAPC  H10S 4208   6.361   6.731   9.752  1.0268  2.7175 -0.2490
   57SAPC  C211 4209   6.511   6.584   9.693  0.4714  0.2842  0.3776
   57SAPC  H11R 4210   6.579   6.517   9.748 -0.3738  1.2653  2.7677
   57SAPC  C212 4211   6.479   6.555   9.568  0.0706 -0.7128  0.4562
   57SAPC  H12R 4212   6.536   6.475   9.518  2.5926  1.1722  0.0936
   57SAPC  C213 4213   6.375   6.616   9.471 -0.2856  0.3197 -0.1878
   57SAPC  H13R 4214   6.406   6.709   9.418  2.2640  0.3540  1.1719
   57SAPC  H13S 4215   6.286   6.643   9.532 -1.4041 -1.7019 -0.8212
   57SAPC  C214 4216   6.322   6.510   9.378 -0.0531 -0.5932  0.1444
   57SAPC  H14R 4217   6.253   6.441   9.429  0.3027 -0.7470  0.4291
   57SAPC  C215 4218   6.361   6.489   9.253  0.1065 -0.3686  0.0865
   57SAPC  H15R 4219   6.318   6.402   9.201 -1.2603 -0.4493  1.2675
   57SAPC  C216 4220   6.452   6.574   9.175 -0.1823  0.6615  0.8776
   57SAPC  H16R 4221   6.498   6.655   9.236 -1.5730  0.9457  1.5929
   57SAPC  H16S 4222   6.385   6.633   9.109 -0.1053 -0.6826 -0.4660
   57SAPC  C217 4223   6.549   6.493   9.085 -0.3278  0.3259 -1.1371
   57SAPC  H17R 4224   6.597   6.562   9.012  0.6286 -0.0257 -0.8657
   57SAPC  H17S 4225   6.503   6.408   9.031 -1.3908 -0.4177  0.8373
   57SAPC  C218 4226   6.666   6.429   9.167 -0.1696 -0.4819  0.1188
   57SAPC  H18R 4227   6.635   6.361   9.249  0.0389  1.0258  1.5165
   57SAPC  H18S 4228   6.712   6.518   9.216  0.2831 -1.2670  1.1747
   57SAPC  C219 4229   6.774   6.342   9.092 -0.1495  0.3034 -0.2111
   57SAPC  H19R 4230   6.840   6.295   9.168 -1.5882 -0.6718  0.4798
   57SAPC  H19S 4231   6.821   6.420   9.028 -0.7878 -0.1201 -1.2222
   57SAPC  C220 4232   6.721   6.232   9.003 -0.4201  0.6085 -0.1095
   57SAPC  H20R 4233   6.629   6.182   9.042 -0.0127  0.0982  0.2100
   57SAPC  H20S 4234   6.800   6.158   8.981  0.4976  1.4734  0.1991
   57SAPC  H20T 4235   6.691   6.278   8.907 -1.8173  0.5231  0.2576
   57SAPC   C33 4236   5.825   6.958  10.184 -0.5157 -0.8288 -0.3462
   57SAPC   H3X 4237   5.934   6.953  10.209 -0.5603 -1.2733 -0.2375
   57SAPC   H3Y 4238   5.789   7.058  10.149 -0.5936 -0.5982  0.3754
   57SAPC   C34 4239   5.807   6.875  10.060 -0.2997  0.2862 -0.0576
   57SAPC   H4X 4240   5.697   6.856  10.052 -0.3368  0.1788  0.5825
   57SAPC   H4Y 4241   5.846   6.772  10.076 -0.1117  0.5410  1.2900
   57SAPC   C35 4242   5.855   6.925   9.928  1.3550 -0.0553 -0.2989
   57SAPC   H5X 4243   5.795   7.014   9.899  2.9877  0.3753 -2.6303
   57SAPC   H5Y 4244   5.806   6.857   9.856 -1.3955  2.0578 -0.5994
   57SAPC   C36 4245   6.008   6.930   9.914  0.6198  0.0913 -0.4015
   57SAPC   H6X 4246   6.060   6.838   9.947  0.6544  0.6940  1.2978
   57SAPC   H6Y 4247   6.039   7.019   9.972 -0.0500 -0.0428  0.1807
   57SAPC   C37 4248   6.057   6.971   9.781 -0.3272 -0.0593  0.9760
   57SAPC   H7X 4249   5.992   7.049   9.736  0.4209  0.2391  0.3849
   57SAPC   H7Y 4250   6.048   6.891   9.704 -1.4755  1.3784 -0.4313
   57SAPC   C38 4251   6.205   7.029   9.781 -0.4669  0.5351 -0.0032
   57SAPC   H8X 4252   6.262   6.968   9.854  0.1869 -0.3348 -1.1942
   57SAPC   H8Y 4253   6.199   7.133   9.819  0.7552  0.4175  0.5433
   57SAPC   C39 4254   6.274   7.016   9.644  0.8027 -0.6206 -0.1278
   57SAPC   H9X 4255   6.268   6.911   9.608 -0.2071 -0.3023 -0.9388
   57SAPC   H9Y 4256   6.378   7.050   9.657  0.2546  0.7325  1.0131
   57SAPC  C310 4257   6.208   7.100   9.526 -0.7552 -0.0840 -0.1220
   57SAPC  H10X 4258   6.207   7.206   9.560  2.1897  0.8134 -2.3302
   57SAPC  H10Y 4259   6.106   7.074   9.493 -0.6645  1.4599 -1.8307
   57SAPC  C311 4260   6.297   7.091   9.399 -0.6062  0.7137 -0.4725
   57SAPC  H11X 4261   6.289   6.987   9.361 -1.7898  0.8943 -0.7735
   57SAPC  H11Y 4262   6.402   7.099   9.433 -1.0407  0.4973  0.9697
   57SAPC  C312 4263   6.250   7.184   9.287 -0.0106 -0.0944  0.5636
   57SAPC  H12X 4264   6.251   7.286   9.331  0.3769  0.0271  0.2828
   57SAPC  H12Y 4265   6.145   7.158   9.263  0.5753 -2.1434  0.0489
   57SAPC  C313 4266   6.341   7.177   9.162  0.4677 -0.0128 -0.3091
   57SAPC  H13X 4267   6.301   7.237   9.077 -1.7949 -0.0740  0.6593
   57SAPC  H13Y 4268   6.364   7.072   9.135 -0.0229 -0.6837  1.7060
   57SAPC  C314 4269   6.472   7.253   9.183  0.7230 -0.5965 -0.1342
   57SAPC  H14X 4270   6.519   7.202   9.269  0.8408 -1.6428 -0.8075
   57SAPC  H14Y 4271   6.451   7.361   9.203  1.0215 -0.3007 -1.3436
   57SAPC  C315 4272   6.576   7.232   9.073 -0.3974  0.0651 -0.2582
   57SAPC  H15X 4273   6.581   7.122   9.059 -0.2358 -0.0048  0.3084
   57SAPC  H15Y 4274   6.675   7.269   9.107 -0.2985  0.4376 -0.9461
   57SAPC  C316 4275   6.543   7.294   8.944 -0.0428 -0.9129  0.4772
   57SAPC  H16X 4276   6.510   7.397   8.966 -0.0085 -0.5679 -1.0050
   57SAPC  H16Y 4277   6.462   7.249   8.884 -0.6936 -0.2051  0.8161
   57SAPC  C317 4278   6.658   7.283   8.848 -0.9896 -0.5035 -0.0796
   57SAPC  H17X 4279   6.686   7.185   8.803  1.4531  0.2644 -0.3616
   57SAPC  H17Y 4280   6.753   7.319   8.892 -0.9745 -1.1960  0.4673
   57SAPC  C318 4281   6.638   7.376   8.726  0.2464  0.0704  0.2175
   57SAPC  H18X 4282   6.630   7.484   8.751 -1.1867 -0.1884  1.0013
   57SAPC  H18Y 4283   6.548   7.353   8.665 -0.7538  3.7742  0.0155
   57SAPC  H18Z 4284   6.721   7.371   8.653  0.9491  0.5619  0.9672
   58SAPC     N 4285   3.634   3.886  10.797  0.0504  0.1755  0.6957
   58SAPC   C12 4286   3.510   3.963  10.833  0.1622 -0.4634  0.2810
   58SAPC  H12A 4287   3.510   4.043  10.761 -1.4099 -1.4430 -0.9026
   58SAPC  H12B 4288   3.529   4.008  10.929 -1.6197  2.2335 -0.5181
   58SAPC   C13 4289   3.643   3.775  10.900 -0.2793 -0.3773  0.4025
   58SAPC  H13A 4290   3.657   3.820  10.997  3.2023 -0.3133 -0.0175
   58SAPC  H13B 4291   3.550   3.720  10.900 -0.4963 -0.1811 -2.2589
   58SAPC  H13C 4292   3.726   3.708  10.884 -0.1784  0.1734 -1.7108
   58SAPC   C14 4293   3.625   3.822  10.661 -0.7141  0.0642  0.1656
   58SAPC  H14A 4294   3.706   3.755  10.637 -1.5398 -0.6776 -0.6424
   58SAPC  H14B 4295   3.531   3.768  10.654 -0.3528 -0.3703 -2.1596
   58SAPC  H14C 4296   3.618   3.901  10.587  2.5144  1.0853  0.8215
   58SAPC   C15 4297   3.746   3.979  10.787  0.5888 -0.1789 -0.1542
   58SAPC  H15A 4298   3.786   4.022  10.878 -0.6221 -1.1218  0.8479
   58SAPC  H15B 4299   3.823   3.932  10.727 -0.3040 -0.9565 -0.7120
   58SAPC  H15C 4300   3.717   4.065  10.728 -2.7211 -0.6329  0.6211
   58SAPC   C11 4301   3.378   3.888  10.833 -0.4701 -0.2808  0.2687
   58SAPC  H11A 4302   3.340   3.882  10.729 -0.3539 -0.4364  0.2344
   58SAPC  H11B 4303   3.314   3.959  10.890  1.0352  1.5862 -0.2595
   58SAPC     P 4304   3.329   3.627  10.815  0.2266  0.1046 -0.3927
   58SAPC   O13 4305   3.418   3.529  10.872  0.1506  0.4879  1.2977
   58SAPC   O14 4306   3.186   3.605  10.833 -0.0257 -0.1813  0.5846
   58SAPC   O12 4307   3.372   3.762  10.894 -0.0597 -0.1771 -0.1576
   58SAPC   O11 4308   3.358   3.657  10.657 -0.6518 -0.3741 -0.2660
   58SAPC    C1 4309   3.355   3.549  10.562 -0.9326 -0.2264  0.1144
   58SAPC    HA 4310   3.441   3.478  10.561  0.1775  1.0898 -0.9878
   58SAPC    HB 4311   3.262   3.491  10.583 -0.6639 -0.6320  0.1882
   58SAPC    C2 4312   3.344   3.596  10.415  0.8920  0.4964 -0.2143
   58SAPC    HS 4313   3.292   3.520  10.354  2.5703 -0.2719 -0.7508
   58SAPC   O21 4314   3.476   3.636  10.359  0.4493 -0.1559 -0.1423
   58SAPC   C21 4315   3.553   3.535  10.330 -0.5619 -0.3685 -0.3582
   58SAPC   O22 4316   3.519   3.420  10.312 -0.1861 -0.0732 -0.0074
   58SAPC   C22 4317   3.695   3.583  10.302  0.6438  0.5552  0.0149
   58SAPC   H2R 4318   3.719   3.645  10.391  0.4289  0.3784  0.1955
   58SAPC   H2S 4319   3.757   3.491  10.292 -0.9189 -0.6345  0.9195
   58SAPC    C3 4320   3.252   3.720  10.406 -0.1209  0.4386 -0.0524
   58SAPC    HX 4321   3.305   3.806  10.453 -1.5208  1.1660  0.2380
   58SAPC    HY 4322   3.160   3.699  10.464  0.6293 -0.1293  0.9725
   58SAPC   O31 4323   3.226   3.742  10.267 -0.1113 -0.4149  0.4937
   58SAPC   C31 4324   3.112   3.803  10.245 -0.6984 -0.5311 -0.3098
   58SAPC   O32 4325   3.022   3.817  10.327  0.4090 -0.0440  0.0876
   58SAPC   C32 4326   3.107   3.841  10.094  0.3761 -0.2535  0.3782
   58SAPC   H2X 4327   3.102   3.745  10.037 -0.3282  0.1770 -0.3006
   58SAPC   H2Y 4328   3.206   3.887  10.071  1.4592 -2.7572 -0.3697
   58SAPC   C23 4329   3.710   3.673  10.179 -0.2659  0.0339  0.1973
   58SAPC   H3R 4330   3.786   3.752  10.198  0.8604 -1.0312  0.2442
   58SAPC   H3S 4331   3.615   3.724  10.153  0.7129  1.4777 -0.6517
   58SAPC   C24 4332   3.758   3.590  10.051 -0.5958 -1.0652 -0.3139
   58SAPC   H4R 4333   3.857   3.550  10.084 -0.8350 -0.1362  1.7208
   58SAPC   H4S 4334   3.783   3.672   9.981  0.0747  1.2577  2.4571
   58SAPC   C25 4335   3.663   3.487   9.992  0.0059 -0.4723 -0.2749
   58SAPC   H5R 4336   3.680   3.382  10.023 -0.5535 -0.3375  0.5476
   58SAPC   C26 4337   3.566   3.522   9.905 -0.2578 -0.9479  0.3111
   58SAPC   H6R 4338   3.493   3.450   9.865 -2.0126  1.1869 -0.5505
   58SAPC   C27 4339   3.540   3.665   9.852  0.6013  0.9980  0.0756
   58SAPC   H7R 4340   3.622   3.675   9.777  0.4652  0.8022 -0.0988
   58SAPC   H7S 4341   3.555   3.740   9.933  2.3216 -1.2449  1.9868
   58SAPC   C28 4342   3.403   3.686   9.791  0.2608  0.1042  0.1842
   58SAPC   H8R 4343   3.326   3.692   9.869  0.5411  0.1812  0.4567
   58SAPC   C29 4344   3.371   3.690   9.661 -0.6064 -0.2260 -0.2316
   58SAPC   H9R 4345   3.268   3.693   9.623 -0.0958  0.3832 -1.6630
   58SAPC  C210 4346   3.466   3.684   9.542  0.0563 -0.0417 -0.6048
   58SAPC  H10R 4347   3.556   3.741   9.572 -1.0538  0.4759  2.0711
   58SAPC  H10S 4348   3.424   3.731   9.451 -1.0101  1.9312  0.8282
   58SAPC  C211 4349   3.477   3.539   9.521  0.9661  1.1527  0.2944
   58SAPC  H11R 4350   3.501   3.475   9.607 -0.8953  1.3820  1.0349
   58SAPC  C212 4351   3.457   3.464   9.408  0.6283 -0.6801  0.4419
   58SAPC  H12R 4352   3.472   3.355   9.406  0.5902 -0.6788 -0.3743
   58SAPC  C213 4353   3.400   3.511   9.277  0.1283  0.2237  0.2404
   58SAPC  H13R 4354   3.390   3.424   9.208  2.4929 -0.1876  0.3276
   58SAPC  H13S 4355   3.480   3.575   9.233  1.4330 -0.4204  1.5910
   58SAPC  C214 4356   3.278   3.592   9.280  0.7213  0.1620 -0.3187
   58SAPC  H14R 4357   3.220   3.587   9.374  1.7602  5.2906  0.9165
   58SAPC  C215 4358   3.224   3.668   9.183  0.3466  0.4450  0.0667
   58SAPC  H15R 4359   3.125   3.711   9.200  0.3434  0.6991 -0.5527
   58SAPC  C216 4360   3.280   3.691   9.047 -0.3700 -0.0740 -0.2084
   58SAPC  H16R 4361   3.203   3.657   8.974 -2.8895  2.3141  1.1769
   58SAPC  H16S 4362   3.367   3.624   9.028  1.7897  2.7748 -1.1693
   58SAPC  C217 4363   3.335   3.836   9.023 -0.2890  0.5187  0.2371
   58SAPC  H17R 4364   3.257   3.911   9.049 -1.4912 -1.1740  1.6929
   58SAPC  H17S 4365   3.369   3.832   8.918  0.0524  1.8974  0.2728
   58SAPC  C218 4366   3.460   3.873   9.100 -0.6146 -0.0423 -0.0806
   58SAPC  H18R 4367   3.540   3.804   9.067 -0.4766 -0.4693  1.1129
   58SAPC  H18S 4368   3.457   3.859   9.210  0.6050  0.1729 -0.0078
   58SAPC  C219 4369   3.517   4.020   9.075  0.3080  0.1287  0.5295
   58SAPC  H19R 4370   3.502   4.050   8.969 -0.1076  0.5894  0.7152
   58SAPC  H19S 4371   3.626   4.004   9.089  0.0592 -2.9209 -0.3084
   58SAPC  C220 4372   3.450   4.119   9.165  0.3688 -0.4057 -0.0306
   58SAPC  H20R 4373   3.500   4.217   9.147 -0.1202  0.0717  1.0818
   58SAPC  H20S 4374   3.471   4.083   9.268 -0.2977 -0.7642 -0.0201
   58SAPC  H20T 4375   3.339   4.130   9.159  0.4520 -0.2124 -2.0029
   58SAPC   C33 4376   2.990   3.938  10.053  0.1586  0.2361 -0.0099
   58SAPC   H3X 4377   2.988   4.023  10.124 -0.7792 -1.3436  1.9614
   58SAPC   H3Y 4378   2.891   3.887  10.058 -0.3807  1.3424  1.0019
   58SAPC   C34 4379   3.008   4.009   9.909 -0.5411  0.3021 -0.2000
   58SAPC   H4X 4380   3.103   4.064   9.920  0.5570 -0.9637 -2.5521
   58SAPC   H4Y 4381   2.923   4.081   9.903 -0.3936  0.3851 -3.5266
   58SAPC   C35 4382   3.019   3.909   9.794 -0.3092  0.2389  0.1055
   58SAPC   H5X 4383   2.921   3.867   9.764 -0.2413 -0.6693  1.0815
   58SAPC   H5Y 4384   3.075   3.817   9.823  0.4211  0.0271 -1.8535
   58SAPC   C36 4385   3.074   3.952   9.660  0.2171 -0.4937  0.0415
   58SAPC   H6X 4386   3.061   3.871   9.585 -1.3870 -0.9329  0.7287
   58SAPC   H6Y 4387   3.182   3.971   9.675 -0.0072 -0.2838  1.5927
   58SAPC   C37 4388   3.009   4.073   9.607 -0.4510 -0.7910 -0.2942
   58SAPC   H7X 4389   3.034   4.152   9.681  0.6216 -1.9622  0.6409
   58SAPC   H7Y 4390   2.901   4.049   9.612 -1.2654  2.4909  0.5831
   58SAPC   C38 4391   3.051   4.117   9.467  0.1096  0.2846  0.6133
   58SAPC   H8X 4392   3.149   4.072   9.441  0.6442  0.6464  1.9305
   58SAPC   H8Y 4393   3.078   4.225   9.465 -1.4022  0.6852  0.7016
   58SAPC   C39 4394   2.940   4.072   9.366 -0.7308  0.5321 -0.8266
   58SAPC   H9X 4395   2.858   4.147   9.365  0.0334  1.4305  0.7310
   58SAPC   H9Y 4396   2.906   3.970   9.397  0.9729  0.4125  0.8033
   58SAPC  C310 4397   3.005   4.063   9.229 -0.2895  0.2779  0.3706
   58SAPC  H10X 4398   3.095   3.998   9.235 -0.3760  0.2385  1.4785
   58SAPC  H10Y 4399   3.030   4.165   9.191 -1.9115 -0.2859 -2.4820
   58SAPC  C311 4400   2.903   4.001   9.130  0.3843  0.1096  0.2111
   58SAPC  H11X 4401   2.803   4.049   9.139  0.0719 -0.4152 -0.3928
   58SAPC  H11Y 4402   2.885   3.897   9.166  2.2181  0.6702  3.1179
   58SAPC  C312 4403   2.948   4.008   8.976 -0.3662  0.1409 -0.3548
   58SAPC  H12X 4404   3.049   3.966   8.957 -0.1061  0.1971  0.7939
   58SAPC  H12Y 4405   2.971   4.116   8.961  0.9483 -0.1488 -0.5335
   58SAPC  C313 4406   2.836   3.960   8.882 -0.8062  0.0079  0.1745
   58SAPC  H13X 4407   2.746   4.025   8.875  0.2980  1.4944 -0.8594
   58SAPC  H13Y 4408   2.814   3.854   8.906 -1.6089  0.1443  0.0746
   58SAPC  C314 4409   2.885   3.963   8.734 -0.4308 -0.0212  0.5130
   58SAPC  H14X 4410   2.976   3.901   8.723 -0.1153  0.2161  1.6549
   58SAPC  H14Y 4411   2.917   4.069   8.722 -2.5733  0.6169 -0.1946
   58SAPC  C315 4412   2.774   3.929   8.629  0.4446  0.3646 -0.1886
   58SAPC  H15X 4413   2.723   3.839   8.668  1.1807  0.2364  0.5119
   58SAPC  H15Y 4414   2.831   3.896   8.539 -1.1962 -0.6488 -0.9050
   58SAPC  C316 4415   2.668   4.030   8.608 -0.4907 -0.6020 -0.3885
   58SAPC  H16X 4416   2.725   4.107   8.551  0.9893 -1.3415  0.0233
   58SAPC  H16Y 4417   2.635   4.087   8.697  1.9269  0.6552 -0.2014
   58SAPC  C317 4418   2.540   3.975   8.541 -0.1968  0.0348 -0.0718
   58SAPC  H17X 4419   2.496   3.914   8.623 -3.4116  1.0979 -0.8548
   58SAPC  H17Y 4420   2.567   3.909   8.456 -1.4598 -0.5927 -0.0185
   58SAPC  C318 4421   2.449   4.087   8.497  0.0045 -0.0887 -0.6993
   58SAPC  H18X 4422   2.368   4.031   8.444  0.5560 -1.0334 -0.5722
   58SAPC  H18Y 4423   2.500   4.154   8.425 -0.8046 -0.6858 -1.8784
   58SAPC  H18Z 4424   2.402   4.144   8.580  0.1611 -2.3294  1.0273
   59SAPC     N 4425   2.509   6.062  11.414  0.2478 -0.0033 -0.1950
   59SAPC   C12 4426   2.567   6.179  11.325  0.1593 -0.6567  0.0835
   59SAPC  H12A 4427   2.674   6.193  11.337  0.1034  0.5301 -0.6319
   59SAPC  H12B 4428   2.532   6.275  11.359  2.2870 -0.5942  2.4450
   59SAPC   C13 4429   2.549   5.927  11.362 -0.3444  0.5774 -0.9782
   59SAPC  H13A 4430   2.653   5.905  11.376 -0.2812  0.9623 -0.8347
   59SAPC  H13B 4431   2.493   5.852  11.417 -2.8662  2.5506 -0.6521
   59SAPC  H13C 4432   2.529   5.925  11.255  0.5960  1.3881 -1.1851
   59SAPC   C14 4433   2.551   6.066  11.559 -0.1966 -0.1967 -0.2748
   59SAPC  H14A 4434   2.656   6.075  11.583 -0.6547  2.8948  1.0796
   59SAPC  H14B 4435   2.500   6.139  11.621  3.2706  1.5478  0.7813
   59SAPC  H14C 4436   2.519   5.971  11.599 -2.1725  0.2537 -0.6727
   59SAPC   C15 4437   2.361   6.066  11.405  0.4551 -0.9205 -0.2241
   59SAPC  H15A 4438   2.336   6.168  11.430  5.4985  0.2508  1.2151
   59SAPC  H15B 4439   2.319   6.035  11.311  1.8020 -3.0530 -0.2038
   59SAPC  H15C 4440   2.309   6.010  11.481  0.5516 -0.8580 -0.1103
   59SAPC   C11 4441   2.543   6.173  11.175 -0.6810 -0.5798  0.2213
   59SAPC  H11A 4442   2.585   6.269  11.138 -3.4184  1.1855  1.4005
   59SAPC  H11B 4443   2.435   6.189  11.151  0.0457 -1.6031 -5.1659
   59SAPC     P 4444   2.749   6.074  11.048 -0.0717  0.5104 -0.0391
   59SAPC   O13 4445   2.836   6.111  11.157 -0.6629 -1.0577  0.2434
   59SAPC   O14 4446   2.786   5.945  10.977 -0.3681  0.0176  0.0041
   59SAPC   O12 4447   2.605   6.061  11.112  0.1324  0.2733  0.8057
   59SAPC   O11 4448   2.747   6.181  10.933  0.0638 -0.6040  0.3841
   59SAPC    C1 4449   2.637   6.180  10.839 -0.2612 -0.0009  0.3653
   59SAPC    HA 4450   2.548   6.133  10.885  0.2370  0.0753  1.4430
   59SAPC    HB 4451   2.610   6.286  10.819 -2.1347 -0.3042  1.1278
   59SAPC    C2 4452   2.682   6.116  10.705  0.7761 -0.0788  0.2488
   59SAPC    HS 4453   2.735   6.022  10.733  0.0511 -0.6653 -0.3361
   59SAPC   O21 4454   2.764   6.214  10.639 -0.3436  0.0672 -0.0137
   59SAPC   C21 4455   2.887   6.183  10.596  0.5725 -0.4295 -0.3838
   59SAPC   O22 4456   2.928   6.069  10.576 -0.4431  0.4080  0.0829
   59SAPC   C22 4457   2.960   6.306  10.546  0.3382  0.2547  0.1416
   59SAPC   H2R 4458   2.923   6.338  10.446  0.2574 -1.1208 -0.2918
   59SAPC   H2S 4459   2.941   6.391  10.614 -1.8503 -0.9925  1.1911
   59SAPC    C3 4460   2.567   6.079  10.606  0.4039 -0.4211  0.5552
   59SAPC    HX 4461   2.506   6.171  10.596 -0.3024 -1.0430 -1.2762
   59SAPC    HY 4462   2.509   6.003  10.663 -0.8835  0.3044  0.2334
   59SAPC   O31 4463   2.619   6.039  10.477 -0.4258 -0.2143  0.0844
   59SAPC   C31 4464   2.635   5.909  10.453  0.2792 -0.3647 -0.1311
   59SAPC   O32 4465   2.590   5.820  10.528 -0.2286 -0.3346 -0.0592
   59SAPC   C32 4466   2.710   5.897  10.322  0.2318 -0.4503  0.1117
   59SAPC   H2X 4467   2.820   5.907  10.335  0.0623  1.1605  0.5305
   59SAPC   H2Y 4468   2.674   5.981  10.258  0.1283  1.0865  2.1111
   59SAPC   C23 4469   3.115   6.278  10.541  0.2116  0.9855 -0.3960
   59SAPC   H3R 4470   3.141   6.199  10.615  0.7420  1.9122  0.4437
   59SAPC   H3S 4471   3.158   6.369  10.590 -0.7545  2.4495 -2.1666
   59SAPC   C24 4472   3.184   6.246  10.405  0.6557 -1.1937  0.4042
   59SAPC   H4R 4473   3.294   6.236  10.418  0.8246  0.5054  0.4532
   59SAPC   H4S 4474   3.162   6.323  10.329 -1.5952 -3.4694 -1.4318
   59SAPC   C25 4475   3.142   6.110  10.353  0.8854 -0.8607  0.3954
   59SAPC   H5R 4476   3.166   6.028  10.422 -0.2473  0.1676  2.0973
   59SAPC   C26 4477   3.074   6.081  10.244 -0.2008  0.5457  0.1284
   59SAPC   H6R 4478   3.034   5.979  10.241 -0.3109  0.6168 -1.8109
   59SAPC   C27 4479   3.029   6.178  10.139  0.3621 -1.2391  0.5913
   59SAPC   H7R 4480   3.122   6.208  10.087  0.0396  1.1956  1.3098
   59SAPC   H7S 4481   2.990   6.266  10.194 -0.0929 -1.3646  0.4741
   59SAPC   C28 4482   2.928   6.116  10.050 -0.1746  0.4638  0.8867
   59SAPC   H8R 4483   2.834   6.084  10.097 -1.2388  0.7791 -0.9070
   59SAPC   C29 4484   2.932   6.092   9.914  0.7132  0.0813  0.4202
   59SAPC   H9R 4485   2.845   6.043   9.868 -1.7285  2.3647  2.3079
   59SAPC  C210 4486   3.058   6.118   9.824 -0.3253  0.1660 -0.5166
   59SAPC  H10R 4487   3.141   6.130   9.897 -2.4071  1.9596  1.7272
   59SAPC  H10S 4488   3.044   6.218   9.777 -1.0803  0.1687 -0.2888
   59SAPC  C211 4489   3.081   6.010   9.717  0.1666  0.2080  0.2255
   59SAPC  H11R 4490   3.110   5.912   9.758 -0.7730  0.3222  1.1895
   59SAPC  C212 4491   3.049   6.015   9.587  0.3471  0.3598  0.7022
   59SAPC  H12R 4492   3.080   5.929   9.526  0.6888  0.0236  1.3360
   59SAPC  C213 4493   2.998   6.130   9.510  0.5463 -0.0979  0.2097
   59SAPC  H13R 4494   2.911   6.167   9.568 -1.0295 -1.7887 -0.9485
   59SAPC  H13S 4495   2.959   6.100   9.410 -1.1813  0.4125  0.6999
   59SAPC  C214 4496   3.112   6.228   9.493  0.4860  0.2277  0.8630
   59SAPC  H14R 4497   3.183   6.242   9.576 -0.2981 -1.3038  1.8576
   59SAPC  C215 4498   3.128   6.313   9.391  0.5305 -0.2728 -0.2288
   59SAPC  H15R 4499   3.206   6.390   9.396 -0.6474  0.8769  1.3220
   59SAPC  C216 4500   3.055   6.309   9.258  0.4889  1.3658 -0.6356
   59SAPC  H16R 4501   2.997   6.216   9.242  2.9989 -0.2607 -0.8642
   59SAPC  H16S 4502   3.123   6.298   9.171 -0.2082 -0.2357 -1.0110
   59SAPC  C217 4503   2.969   6.432   9.231 -0.2130  0.0625  0.4457
   59SAPC  H17R 4504   3.026   6.523   9.261  1.1188 -0.5590 -0.1054
   59SAPC  H17S 4505   2.882   6.423   9.299  0.6636 -0.9922  1.4769
   59SAPC  C218 4506   2.914   6.444   9.086 -0.4468  0.4607 -0.1032
   59SAPC  H18R 4507   2.816   6.497   9.093 -0.9396 -0.4273 -0.0566
   59SAPC  H18S 4508   2.901   6.343   9.043 -0.7176 -0.1771  1.3950
   59SAPC  C219 4509   3.007   6.543   9.014 -0.2193 -0.4818 -0.5298
   59SAPC  H19R 4510   3.001   6.524   8.904 -1.4101  2.1438 -1.0076
   59SAPC  H19S 4511   3.110   6.528   9.053 -0.9117  0.1763  1.6578
   59SAPC  C220 4512   2.962   6.692   9.025 -0.5643  0.1474  0.2403
   59SAPC  H20R 4513   2.859   6.705   8.988 -0.5865  0.5127  0.4182
   59SAPC  H20S 4514   3.027   6.765   8.970  0.0112 -1.2762 -1.0390
   59SAPC  H20T 4515   2.960   6.717   9.133 -3.4874  0.6025  0.1565
   59SAPC   C33 4516   2.669   5.775  10.241 -1.0929 -0.4019  0.6400
   59SAPC   H3X 4517   2.559   5.780  10.224 -1.0462  0.2600  0.5139
   59SAPC   H3Y 4518   2.708   5.684  10.292 -1.1286 -0.2458  0.9476
   59SAPC   C34 4519   2.743   5.767  10.099 -0.4292 -0.1164  0.4423
   59SAPC   H4X 4520   2.850   5.755  10.126 -0.4652 -0.5420  0.4063
   59SAPC   H4Y 4521   2.735   5.861  10.041  2.1802 -1.5961 -2.6912
   59SAPC   C35 4522   2.697   5.655  10.013  0.1551 -0.6667  0.4148
   59SAPC   H5X 4523   2.598   5.691   9.978  0.5335  1.1274  1.0626
   59SAPC   H5Y 4524   2.686   5.562  10.073  0.2597  0.4126  2.1781
   59SAPC   C36 4525   2.786   5.620   9.892 -0.0053  0.5964 -0.2685
   59SAPC   H6X 4526   2.768   5.516   9.856  0.0724  0.3919  0.2685
   59SAPC   H6Y 4527   2.894   5.626   9.917  0.1265  1.6590 -1.0437
   59SAPC   C37 4528   2.774   5.715   9.764  0.1069  0.2452 -0.7700
   59SAPC   H7X 4529   2.761   5.815   9.810  1.1151 -0.7083  1.8065
   59SAPC   H7Y 4530   2.683   5.696   9.703 -1.1575  3.3636 -0.0374
   59SAPC   C38 4531   2.890   5.713   9.668  0.0816  0.4214 -0.0538
   59SAPC   H8X 4532   2.975   5.725   9.738 -0.8403 -0.5315  1.2856
   59SAPC   H8Y 4533   2.893   5.801   9.600 -0.0501  0.4916  0.0293
   59SAPC   C39 4534   2.895   5.583   9.589  0.7624  0.7973  1.0072
   59SAPC   H9X 4535   2.885   5.491   9.650  0.9543 -0.3797 -0.6448
   59SAPC   H9Y 4536   2.989   5.579   9.529 -0.5127 -0.9798 -1.0256
   59SAPC  C310 4537   2.785   5.571   9.487  0.3015 -0.0206  0.5690
   59SAPC  H10X 4538   2.688   5.554   9.539  0.2211 -0.4890  0.2764
   59SAPC  H10Y 4539   2.810   5.475   9.436  0.2111 -0.5972  1.5988
   59SAPC  C311 4540   2.770   5.689   9.383 -0.5070 -0.1111 -0.2487
   59SAPC  H11X 4541   2.735   5.785   9.428 -2.6465  0.2508 -2.4774
   59SAPC  H11Y 4542   2.705   5.655   9.300  1.9612 -2.4282 -1.3541
   59SAPC  C312 4543   2.899   5.712   9.301 -0.1257  0.1978 -0.0251
   59SAPC  H12X 4544   2.921   5.619   9.244 -2.0760 -0.5396  0.3532
   59SAPC  H12Y 4545   2.990   5.738   9.359 -0.5803  0.9633  0.3536
   59SAPC  C313 4546   2.882   5.828   9.208  0.7358 -0.2166  0.8598
   59SAPC  H13X 4547   2.828   5.911   9.258 -1.1009  1.8153 -3.9610
   59SAPC  H13Y 4548   2.818   5.789   9.126  0.8749 -0.5557  0.9084
   59SAPC  C314 4549   3.011   5.885   9.142 -0.2610  0.1925  0.0735
   59SAPC  H14X 4550   3.066   5.800   9.096  1.3527  0.8228  0.7724
   59SAPC  H14Y 4551   3.073   5.936   9.219  1.5246  1.1539 -1.9102
   59SAPC  C315 4552   2.969   5.990   9.040  0.2180 -0.7614  0.0813
   59SAPC  H15X 4553   2.908   6.074   9.081 -0.8604 -0.1995 -2.5224
   59SAPC  H15Y 4554   2.902   5.935   8.971 -0.3567  0.6443 -0.5127
   59SAPC  C316 4555   3.076   6.040   8.950  0.4702 -0.5635 -0.1660
   59SAPC  H16X 4556   3.137   5.962   8.900  0.2752 -0.1037 -1.1440
   59SAPC  H16Y 4557   3.146   6.103   9.010  0.3563 -0.2972 -0.3077
   59SAPC  C317 4558   3.028   6.128   8.837  0.0636 -0.6863  0.2888
   59SAPC  H17X 4559   2.977   6.218   8.879 -1.3046 -2.2855  2.2195
   59SAPC  H17Y 4560   2.940   6.074   8.796 -1.0552  1.1204  0.1766
   59SAPC  C318 4561   3.132   6.173   8.731  0.8242 -0.7391  0.2693
   59SAPC  H18X 4562   3.225   6.203   8.784  0.3446 -2.3615  2.1283
   59SAPC  H18Y 4563   3.093   6.267   8.684  1.3340 -1.4818 -1.7315
   59SAPC  H18Z 4564   3.156   6.093   8.658  1.9364 -0.6608  0.5325
   60SAPC     N 4565   5.843   4.945  11.038  0.1635  0.1199 -0.4235
   60SAPC   C12 4566   5.726   5.016  10.967 -0.4472 -1.2340  0.5413
   60SAPC  H12A 4567   5.767   5.098  10.910 -0.9916 -0.9319  0.5731
   60SAPC  H12B 4568   5.664   5.062  11.043  0.1848 -0.6823  0.7294
   60SAPC   C13 4569   5.806   4.818  11.098  0.2708  0.1465  0.6507
   60SAPC  H13A 4570   5.770   4.751  11.021 -0.5348  1.0082  0.2448
   60SAPC  H13B 4571   5.896   4.774  11.136  0.5866  0.0045 -0.2418
   60SAPC  H13C 4572   5.748   4.834  11.188  0.9537  2.3500  0.7610
   60SAPC   C14 4573   5.955   4.923  10.944  0.1127 -0.7453 -0.0022
   60SAPC  H14A 4574   5.997   5.010  10.896 -1.1038 -0.6543 -0.9587
   60SAPC  H14B 4575   6.039   4.872  10.989  2.3217  1.8845 -0.7992
   60SAPC  H14C 4576   5.921   4.855  10.867 -0.0701 -1.0436  0.3401
   60SAPC   C15 4577   5.894   5.030  11.150 -0.1165  0.4513  0.2216
   60SAPC  H15A 4578   5.818   5.033  11.226 -0.7622 -1.9229 -0.2333
   60SAPC  H15B 4579   5.981   4.979  11.188 -1.2366 -1.6493  0.1304
   60SAPC  H15C 4580   5.909   5.129  11.110 -2.6760  1.2641  1.0685
   60SAPC   C11 4581   5.646   4.940  10.860 -0.3240  0.0620 -0.7255
   60SAPC  H11A 4582   5.575   5.003  10.802  0.9207  1.1191 -1.1856
   60SAPC  H11B 4583   5.586   4.865  10.914  0.3809  0.5517  0.8113
   60SAPC     P 4584   5.706   4.727  10.713  0.2679 -0.4184  0.3925
   60SAPC   O13 4585   5.814   4.650  10.775 -0.4900  0.1916 -0.5623
   60SAPC   O14 4586   5.573   4.675  10.736 -0.0713 -0.5686  0.4456
   60SAPC   O12 4587   5.725   4.881  10.760  0.0371 -0.4801  0.8403
   60SAPC   O11 4588   5.741   4.739  10.557  0.2450 -0.2731 -0.0771
   60SAPC    C1 4589   5.858   4.802  10.511  0.0972 -1.0155 -0.4133
   60SAPC    HA 4590   5.868   4.904  10.553 -0.2578 -0.4230 -1.7189
   60SAPC    HB 4591   5.949   4.746  10.541  0.2416 -0.0455  1.0735
   60SAPC    C2 4592   5.860   4.802  10.356 -0.0624  0.0764 -0.1360
   60SAPC    HS 4593   5.947   4.865  10.326 -1.0908  2.5762  1.7902
   60SAPC   O21 4594   5.738   4.851  10.308  0.2313 -0.4615 -0.0095
   60SAPC   C21 4595   5.715   4.976  10.314  0.9507  1.0720  0.3224
   60SAPC   O22 4596   5.787   5.066  10.354 -0.0873  0.3899 -0.6428
   60SAPC   C22 4597   5.574   5.001  10.263 -0.4034 -0.8058  0.3694
   60SAPC   H2R 4598   5.517   4.907  10.249 -2.7743  0.6865 -0.8582
   60SAPC   H2S 4599   5.526   5.063  10.342  0.3979 -0.5755  0.6817
   60SAPC    C3 4600   5.888   4.659  10.310  0.6746  0.1522 -0.7732
   60SAPC    HX 4601   5.828   4.588  10.371 -0.9156  1.8628 -0.2466
   60SAPC    HY 4602   5.997   4.645  10.324  0.9786  1.2248 -1.9163
   60SAPC   O31 4603   5.865   4.645  10.168  0.9166 -0.7184 -0.2409
   60SAPC   C31 4604   5.750   4.592  10.136  0.4975 -0.3613  0.2120
   60SAPC   O32 4605   5.674   4.536  10.214 -0.3027  0.1573 -0.3738
   60SAPC   C32 4606   5.732   4.620   9.989 -0.6700  0.1147  0.1459
   60SAPC   H2X 4607   5.819   4.567   9.945  0.5011  1.6819  0.5144
   60SAPC   H2Y 4608   5.759   4.726   9.973 -1.3244  0.2887  0.1744
   60SAPC   C23 4609   5.568   5.093  10.134 -0.2479  0.5478  0.2481
   60SAPC   H3R 4610   5.644   5.173  10.148 -0.5871  0.6288  1.7757
   60SAPC   H3S 4611   5.468   5.140  10.125 -0.3388  0.4735  0.8482
   60SAPC   C24 4612   5.595   5.007  10.006 -0.2679 -0.0632 -0.4067
   60SAPC   H4R 4613   5.663   4.923  10.033 -1.3579 -0.4019  1.4460
   60SAPC   H4S 4614   5.660   5.066   9.938  0.1026 -1.5832 -1.4365
   60SAPC   C25 4615   5.474   4.956   9.928  0.3698  0.2608  0.1972
   60SAPC   H5R 4616   5.396   4.916   9.995  0.0023 -1.3614 -1.1315
   60SAPC   C26 4617   5.448   4.951   9.794  0.0218 -0.2183  0.3882
   60SAPC   H6R 4618   5.356   4.901   9.760 -0.6731 -0.0601  1.9856
   60SAPC   C27 4619   5.549   4.969   9.681 -0.2957  0.2427 -0.4069
   60SAPC   H7R 4620   5.583   4.866   9.657 -0.2909 -0.1636  1.2493
   60SAPC   H7S 4621   5.633   5.030   9.721 -0.1727  0.6013 -1.1908
   60SAPC   C28 4622   5.483   5.047   9.565 -0.7023 -0.2130 -0.2429
   60SAPC   H8R 4623   5.449   5.148   9.594 -0.9222 -0.5657  0.7653
   60SAPC   C29 4624   5.464   5.010   9.439  0.2336 -0.2854 -0.7368
   60SAPC   H9R 4625   5.431   5.085   9.366  0.1239 -0.2606 -0.6620
   60SAPC  C210 4626   5.495   4.883   9.372 -0.1797 -0.5433 -0.0220
   60SAPC  H10R 4627   5.597   4.870   9.413  1.0717  2.1022 -2.0038
   60SAPC  H10S 4628   5.506   4.893   9.262 -0.9979 -1.2377 -0.1784
   60SAPC  C211 4629   5.398   4.779   9.416  0.0699 -0.1208 -0.3987
   60SAPC  H11R 4630   5.356   4.796   9.517  0.4978  1.6930 -0.4926
   60SAPC  C212 4631   5.341   4.687   9.338 -0.1468  0.2034 -0.5373
   60SAPC  H12R 4632   5.272   4.613   9.381 -0.8628  2.2608  2.1762
   60SAPC  C213 4633   5.371   4.666   9.195  0.3037 -0.1993  0.0412
   60SAPC  H13R 4634   5.479   4.661   9.167 -0.6190 -2.0653 -4.0161
   60SAPC  H13S 4635   5.325   4.743   9.129 -0.3905 -0.7062 -0.0775
   60SAPC  C214 4636   5.301   4.546   9.134 -0.4010  0.2287  0.0141
   60SAPC  H14R 4637   5.199   4.537   9.174 -0.8491  0.4665 -1.0431
   60SAPC  C215 4638   5.349   4.455   9.046 -0.5154  0.6287 -0.5039
   60SAPC  H15R 4639   5.282   4.376   9.008 -1.5729  0.3314  1.7624
   60SAPC  C216 4640   5.493   4.437   8.990  0.6009  0.0890 -0.7371
   60SAPC  H16R 4641   5.529   4.341   9.033  0.2956  0.2115 -0.1953
   60SAPC  H16S 4642   5.561   4.514   9.031  1.1677  0.5324 -2.4388
   60SAPC  C217 4643   5.505   4.442   8.837  0.4739 -0.1807 -0.8283
   60SAPC  H17R 4644   5.430   4.520   8.814  0.8197  1.6054  3.1809
   60SAPC  H17S 4645   5.475   4.346   8.790 -0.4358  0.3282 -1.3206
   60SAPC  C218 4646   5.652   4.485   8.801 -0.6364  0.1880 -0.5143
   60SAPC  H18R 4647   5.679   4.575   8.859 -0.9663 -0.0280 -0.0192
   60SAPC  H18S 4648   5.645   4.508   8.693  1.3931 -1.6423 -1.1054
   60SAPC  C219 4649   5.756   4.378   8.813  0.0566 -0.1898  0.1446
   60SAPC  H19R 4650   5.724   4.287   8.757 -2.0188 -0.2566  1.3176
   60SAPC  H19S 4651   5.756   4.326   8.912 -1.5140 -2.2541 -0.8494
   60SAPC  C220 4652   5.898   4.417   8.781  0.2057  0.1265 -0.0507
   60SAPC  H20R 4653   5.955   4.323   8.774  0.2249  0.1880 -0.7360
   60SAPC  H20S 4654   5.938   4.488   8.857 -2.4645  3.0765 -1.1756
   60SAPC  H20T 4655   5.902   4.471   8.684 -0.1460 -0.5406 -0.4455
   60SAPC   C33 4656   5.596   4.570   9.927 -0.5792 -0.6561 -0.0892
   60SAPC   H3X 4657   5.521   4.638   9.973  1.1785  1.6068 -0.3929
   60SAPC   H3Y 4658   5.572   4.467   9.962 -0.3679 -1.7576 -2.9221
   60SAPC   C34 4659   5.575   4.576   9.776  0.7989 -0.5968 -0.9372
   60SAPC   H4X 4660   5.609   4.669   9.727 -1.0762  0.5951 -0.1027
   60SAPC   H4Y 4661   5.469   4.569   9.743  0.0242 -1.2846  1.4823
   60SAPC   C35 4662   5.659   4.469   9.695 -0.4705 -0.0771  0.1372
   60SAPC   H5X 4663   5.634   4.365   9.724 -2.5504 -0.0619 -1.4124
   60SAPC   H5Y 4664   5.765   4.488   9.721 -0.3422 -0.7232  0.0915
   60SAPC   C36 4665   5.640   4.498   9.544 -0.3649  0.0420  0.8604
   60SAPC   H6X 4666   5.541   4.545   9.529 -0.3016 -0.1801 -0.4378
   60SAPC   H6Y 4667   5.652   4.398   9.497 -0.4250  0.1756  0.5551
   60SAPC   C37 4668   5.753   4.584   9.486 -0.0979 -0.1305  0.5920
   60SAPC   H7X 4669   5.853   4.547   9.516  0.7665  1.8564  0.2738
   60SAPC   H7Y 4670   5.748   4.688   9.523 -2.6251  0.0036  0.0404
   60SAPC   C38 4671   5.742   4.594   9.330  0.4155  0.0837 -0.1952
   60SAPC   H8X 4672   5.634   4.614   9.311  1.0846  1.0751 -3.6139
   60SAPC   H8Y 4673   5.747   4.491   9.288  2.1466  0.0797 -0.0635
   60SAPC   C39 4674   5.833   4.687   9.257  0.1904  0.4944  0.2633
   60SAPC   H9X 4675   5.935   4.648   9.241 -0.4748 -1.7784  1.1498
   60SAPC   H9Y 4676   5.826   4.784   9.312  0.0496 -0.7281  2.5335
   60SAPC  C310 4677   5.791   4.710   9.113  0.1434  0.8651  0.5805
   60SAPC  H10X 4678   5.690   4.755   9.113  0.0941  0.7547  0.6693
   60SAPC  H10Y 4679   5.781   4.612   9.062 -1.5140  0.0563  2.3425
   60SAPC  C311 4680   5.877   4.812   9.036  0.4306  0.2042 -0.3725
   60SAPC  H11X 4681   5.984   4.789   9.021  0.4056  0.1948 -0.5430
   60SAPC  H11Y 4682   5.883   4.902   9.100 -1.5202 -0.8326  1.4238
   60SAPC  C312 4683   5.825   4.848   8.894  0.2155  0.4828 -0.4401
   60SAPC  H12X 4684   5.734   4.912   8.898  0.4666  0.8393 -0.4480
   60SAPC  H12Y 4685   5.785   4.760   8.840  0.0782  0.1780  0.1536
   60SAPC  C313 4686   5.932   4.919   8.809  0.5565 -0.2365  0.7753
   60SAPC  H13X 4687   5.994   4.841   8.758 -1.3854 -0.3248 -1.6241
   60SAPC  H13Y 4688   5.996   4.981   8.876 -0.5632  2.0170 -0.1411
   60SAPC  C314 4689   5.871   5.011   8.698  0.1260  0.0882 -0.8326
   60SAPC  H14X 4690   5.808   5.084   8.753 -0.1880 -0.2251 -0.7703
   60SAPC  H14Y 4691   5.805   4.958   8.626  0.6592 -2.1369  0.2466
   60SAPC  C315 4692   5.987   5.080   8.629  0.1565 -0.5811  0.0271
   60SAPC  H15X 4693   6.054   5.001   8.589 -0.2980 -1.0366  0.1604
   60SAPC  H15Y 4694   6.053   5.121   8.708  0.3271 -3.9550  1.8025
   60SAPC  C316 4695   5.949   5.193   8.521 -0.3120  1.1516  0.0341
   60SAPC  H16X 4696   5.866   5.262   8.546 -1.5554 -0.0278 -0.7031
   60SAPC  H16Y 4697   5.911   5.140   8.431  2.0211  0.1974 -0.4669
   60SAPC  C317 4698   6.060   5.292   8.488 -0.3217  0.2229 -0.1031
   60SAPC  H17X 4699   6.157   5.242   8.469  1.5361  2.2805  3.1215
   60SAPC  H17Y 4700   6.074   5.342   8.586 -0.7542  1.5212 -0.6735
   60SAPC  C318 4701   6.023   5.384   8.376 -0.6946  0.0983 -0.3171
   60SAPC  H18X 4702   6.024   5.344   8.272 -1.1264 -0.0578 -0.2615
   60SAPC  H18Y 4703   6.103   5.462   8.374  1.0329 -1.5732 -0.0067
   60SAPC  H18Z 4704   5.919   5.422   8.374 -1.8746 -2.9090 -0.8696
   61SAPC     N 4705   0.659   2.340  10.726 -0.3346 -0.4581 -0.2856
   61SAPC   C12 4706   0.523   2.368  10.660  0.0344 -0.0700 -0.6694
   61SAPC  H12A 4707   0.528   2.465  10.613 -1.6275 -0.2353 -1.2629
   61SAPC  H12B 4708   0.443   2.365  10.732 -1.4508  1.6051 -2.1258
   61SAPC   C13 4709   0.673   2.195  10.753  0.2868  0.0592 -0.4355
   61SAPC  H13A 4710   0.641   2.136  10.669 -0.4228  0.3884 -0.4027
   61SAPC  H13B 4711   0.776   2.175  10.777 -0.3626 -3.0492  0.1500
   61SAPC  H13C 4712   0.631   2.163  10.848  2.7388  0.1927  0.7713
   61SAPC   C14 4713   0.767   2.383  10.632  0.8680 -0.1760  0.8148
   61SAPC  H14A 4714   0.766   2.488  10.606  1.8922 -0.6532 -1.3643
   61SAPC  H14B 4715   0.865   2.368  10.673  1.6280 -0.5412 -1.0317
   61SAPC  H14C 4716   0.758   2.316  10.548  1.8637  1.5029 -0.7119
   61SAPC   C15 4717   0.663   2.418  10.851  0.0538  0.2454 -0.1713
   61SAPC  H15A 4718   0.646   2.521  10.823 -0.4789 -0.3830 -2.3425
   61SAPC  H15B 4719   0.593   2.379  10.923  0.0882  0.1625 -0.1824
   61SAPC  H15C 4720   0.761   2.418  10.896 -0.2078 -1.0146  0.4589
   61SAPC   C11 4721   0.477   2.264  10.551  0.2709 -0.0784 -0.3340
   61SAPC  H11A 4722   0.554   2.248  10.472  0.4267 -3.2201  0.3255
   61SAPC  H11B 4723   0.395   2.314  10.496  0.6123  0.7516 -0.0995
   61SAPC     P 4724   0.293   2.110  10.649  0.2280 -0.2528 -0.0551
   61SAPC   O13 4725   0.288   1.997  10.740  0.4357  0.2456  0.1782
   61SAPC   O14 4726   0.228   2.238  10.698 -0.5000  0.1772 -0.3397
   61SAPC   O12 4727   0.439   2.138  10.605 -0.5205 -0.2833  0.2683
   61SAPC   O11 4728   0.226   2.067  10.514 -0.0324  0.0630  0.6106
   61SAPC    C1 4729   0.272   1.957  10.434  0.2688  0.0847  0.1846
   61SAPC    HA 4730   0.341   1.888  10.488 -0.4780  0.3196  1.4978
   61SAPC    HB 4731   0.184   1.895  10.407 -0.9710  1.2805  1.3011
   61SAPC    C2 4732   0.334   2.010  10.302 -0.3140 -0.7403  0.1957
   61SAPC    HS 4733   0.425   2.068  10.328  0.1958 -0.6836 -1.5600
   61SAPC   O21 4734   0.234   2.089  10.231 -1.0069 -0.0372 -0.7991
   61SAPC   C21 4735   0.292   2.155  10.124 -0.0449  0.4116 -0.5292
   61SAPC   O22 4736   0.412   2.178  10.122 -0.4897 -0.0633 -0.3099
   61SAPC   C22 4737   0.178   2.197  10.033 -0.9311 -0.2494 -0.8130
   61SAPC   H2R 4738   0.090   2.131  10.044 -0.4574 -0.5461  1.8990
   61SAPC   H2S 4739   0.164   2.302  10.067 -0.2211  0.0643 -1.4658
   61SAPC    C3 4740   0.380   1.887  10.213  0.6773  0.3112  0.5759
   61SAPC    HX 4741   0.453   1.831  10.275  0.4153 -1.1921 -0.4271
   61SAPC    HY 4742   0.436   1.913  10.121  1.2090 -0.8782  0.5432
   61SAPC   O31 4743   0.271   1.783  10.189 -0.7203  0.0072 -0.0211
   61SAPC   C31 4744   0.229   1.767  10.069 -0.3660  0.8737  0.3546
   61SAPC   O32 4745   0.290   1.807   9.968 -0.1581 -0.2955 -0.2218
   61SAPC   C32 4746   0.094   1.693  10.064  0.5530 -0.1974  0.1570
   61SAPC   H2X 4747   0.066   1.640  10.157  1.2922 -0.0859  0.4496
   61SAPC   H2Y 4748   0.096   1.620   9.980 -1.1799 -0.2941  0.1710
   61SAPC   C23 4749   0.225   2.203   9.891 -0.0034  0.8573  0.4435
   61SAPC   H3R 4750   0.221   2.103   9.842  0.2997  0.4453  1.2337
   61SAPC   H3S 4751   0.334   2.224   9.893  0.9105 -2.8839 -0.8623
   61SAPC   C24 4752   0.152   2.294   9.802  0.5182  0.0500  0.8127
   61SAPC   H4R 4753   0.189   2.270   9.701 -2.7959 -1.9662 -0.0993
   61SAPC   H4S 4754   0.169   2.400   9.831  1.1673  0.2267 -0.2059
   61SAPC   C25 4755   0.002   2.261   9.813 -0.6877 -0.4335  0.1688
   61SAPC   H5R 4756  -0.030   2.274   9.918  0.4986 -0.9736  0.6118
   61SAPC   C26 4757  -0.080   2.226   9.711  0.3983 -0.2401 -0.1023
   61SAPC   H6R 4758  -0.186   2.203   9.731  0.8362 -3.3402 -0.8708
   61SAPC   C27 4759  -0.032   2.230   9.565  0.0732  0.7440 -0.3532
   61SAPC   H7R 4760   0.016   2.329   9.546 -0.7036  0.7159 -2.8853
   61SAPC   H7S 4761  -0.117   2.229   9.493  0.4646 -1.1417 -0.8265
   61SAPC   C28 4762   0.070   2.127   9.517 -0.1630  0.0611  0.7412
   61SAPC   H8R 4763   0.109   2.061   9.596 -0.3526 -0.4206  0.4355
   61SAPC   C29 4764   0.104   2.121   9.387  0.1979  0.0501  0.3261
   61SAPC   H9R 4765   0.170   2.039   9.353 -0.3947 -1.0626  1.7249
   61SAPC  C210 4766   0.066   2.216   9.278  0.5728 -0.1494  0.2875
   61SAPC  H10R 4767  -0.016   2.282   9.313  0.0661  0.5864 -2.0654
   61SAPC  H10S 4768   0.033   2.162   9.186 -0.7758 -2.2281  1.8963
   61SAPC  C211 4769   0.182   2.311   9.251 -0.0657  0.0163  0.3575
   61SAPC  H11R 4770   0.251   2.341   9.332  1.5995  0.4536 -1.1594
   61SAPC  C212 4771   0.243   2.339   9.131 -0.3151 -0.0452 -0.1268
   61SAPC  H12R 4772   0.328   2.408   9.125 -0.6205  0.2470 -1.4236
   61SAPC  C213 4773   0.196   2.295   8.997 -0.0421  1.3031  0.0323
   61SAPC  H13R 4774   0.172   2.186   8.997 -0.8235  1.3476 -3.1508
   61SAPC  H13S 4775   0.282   2.305   8.927  0.9962 -0.2319  1.0349
   61SAPC  C214 4776   0.079   2.383   8.953  0.0573 -0.0218  0.6178
   61SAPC  H14R 4777   0.017   2.415   9.039 -0.8436 -0.7364  0.2546
   61SAPC  C215 4778   0.040   2.416   8.830  0.1325 -0.3295  0.1184
   61SAPC  H15R 4779  -0.036   2.494   8.816 -0.4350 -0.6299  1.3838
   61SAPC  C216 4780   0.094   2.367   8.698  0.2794 -0.5090 -0.8904
   61SAPC  H16R 4781   0.203   2.349   8.705  0.4935  0.7605 -0.6143
   61SAPC  H16S 4782   0.103   2.457   8.633  1.2805  1.0675  1.2680
   61SAPC  C217 4783   0.034   2.244   8.626 -0.4969  0.3494  0.1572
   61SAPC  H17R 4784   0.029   2.168   8.708  3.2859 -0.3206 -0.0569
   61SAPC  H17S 4785   0.111   2.219   8.550  0.5995  0.7427  1.1098
   61SAPC  C218 4786  -0.101   2.277   8.559  0.9940 -0.4411  0.8195
   61SAPC  H18R 4787  -0.090   2.369   8.498  1.3684 -1.6431 -0.9973
   61SAPC  H18S 4788  -0.167   2.305   8.643  0.3458 -0.1568  0.2228
   61SAPC  C219 4789  -0.162   2.171   8.474  0.1430 -0.6625  0.0826
   61SAPC  H19R 4790  -0.083   2.144   8.401  0.7275  2.7653 -0.7373
   61SAPC  H19S 4791  -0.251   2.210   8.420  0.3233  0.7270  0.7575
   61SAPC  C220 4792  -0.196   2.047   8.548  0.8867  0.4406  0.4813
   61SAPC  H20R 4793  -0.231   2.074   8.650 -0.1132 -1.1042  0.5690
   61SAPC  H20S 4794  -0.103   1.991   8.573  1.0970 -0.6998 -2.4657
   61SAPC  H20T 4795  -0.256   1.972   8.493 -1.1400  0.9423  1.9110
   61SAPC   C33 4796  -0.016   1.800  10.038 -0.2560 -0.0190  0.2156
   61SAPC   H3X 4797   0.010   1.878  10.112  2.9116 -1.3033  0.5877
   61SAPC   H3Y 4798  -0.118   1.763  10.062  0.6171 -1.8926  1.1883
   61SAPC   C34 4799  -0.027   1.851   9.893 -0.1957 -0.7214 -0.1489
   61SAPC   H4X 4800   0.068   1.905   9.873 -2.3870  3.4022 -0.5881
   61SAPC   H4Y 4801  -0.099   1.935   9.878  1.6851  0.8190 -1.0044
   61SAPC   C35 4802  -0.045   1.748   9.781  1.1227  0.3980  0.7036
   61SAPC   H5X 4803  -0.135   1.686   9.798  1.3614 -0.4428 -0.9738
   61SAPC   H5Y 4804   0.041   1.678   9.771  2.3937  1.6176  2.4293
   61SAPC   C36 4805  -0.061   1.819   9.641 -0.5013  0.5624 -0.0557
   61SAPC   H6X 4806   0.033   1.875   9.621 -0.6289  1.1215  0.8732
   61SAPC   H6Y 4807  -0.137   1.900   9.638 -0.8590  0.2019 -1.4669
   61SAPC   C37 4808  -0.097   1.727   9.524  0.2654  0.0560 -0.2112
   61SAPC   H7X 4809  -0.193   1.678   9.550  0.8024  0.1038  2.1153
   61SAPC   H7Y 4810  -0.026   1.644   9.504 -2.2704 -1.8576 -1.9284
   61SAPC   C38 4811  -0.111   1.804   9.397 -0.3118 -0.1526  0.8521
   61SAPC   H8X 4812  -0.020   1.863   9.373 -0.4587  0.3761  1.5486
   61SAPC   H8Y 4813  -0.200   1.870   9.391  1.0014  1.5658 -0.8432
   61SAPC   C39 4814  -0.114   1.705   9.275 -0.1153 -0.2049  0.7078
   61SAPC   H9X 4815  -0.212   1.654   9.270  1.2584 -2.8920 -1.2992
   61SAPC   H9Y 4816  -0.038   1.626   9.287 -0.2243 -0.5337 -0.6024
   61SAPC  C310 4817  -0.088   1.783   9.137  1.1811  0.7510  0.3760
   61SAPC  H10X 4818  -0.098   1.706   9.057  1.4844 -0.2022  1.2327
   61SAPC  H10Y 4819   0.016   1.823   9.141  1.3482  0.4377 -0.5960
   61SAPC  C311 4820  -0.198   1.890   9.107 -0.5644 -0.6277 -0.1689
   61SAPC  H11X 4821  -0.178   1.979   9.170 -0.0368 -0.6133 -0.3504
   61SAPC  H11Y 4822  -0.303   1.867   9.137 -0.4590  0.7847  1.3811
   61SAPC  C312 4823  -0.178   1.950   8.969 -0.1438  0.1793  0.0861
   61SAPC  H12X 4824  -0.073   1.979   8.944 -0.3352  0.2607 -0.6571
   61SAPC  H12Y 4825  -0.227   2.050   8.963 -0.0584  0.1762 -0.9907
   61SAPC  C313 4826  -0.225   1.860   8.853  0.7225 -1.0191  0.2382
   61SAPC  H13X 4827  -0.185   1.757   8.858  0.9785 -1.0337 -1.3499
   61SAPC  H13Y 4828  -0.179   1.883   8.754  0.8573 -0.7756  0.3563
   61SAPC  C314 4829  -0.382   1.870   8.835 -1.0472 -0.4789 -0.9158
   61SAPC  H14X 4830  -0.391   1.975   8.802 -2.4289 -0.3438 -0.2158
   61SAPC  H14Y 4831  -0.430   1.857   8.935  0.4512  2.8380  0.3413
   61SAPC  C315 4832  -0.456   1.775   8.737 -0.6410 -0.4141  0.0315
   61SAPC  H15X 4833  -0.458   1.676   8.788 -1.4586 -0.4615 -0.0758
   61SAPC  H15Y 4834  -0.404   1.783   8.640 -3.0782  2.1452 -1.1889
   61SAPC  C316 4835  -0.596   1.832   8.708  0.0718  0.8901  0.4428
   61SAPC  H16X 4836  -0.580   1.928   8.654 -0.8881  1.5310  1.2331
   61SAPC  H16Y 4837  -0.639   1.854   8.809 -2.0802 -0.7658 -0.0250
   61SAPC  C317 4838  -0.677   1.727   8.624 -0.2207  0.0193 -0.8831
   61SAPC  H17X 4839  -0.612   1.698   8.539 -1.1587  0.6225 -1.8250
   61SAPC  H17Y 4840  -0.771   1.777   8.593 -2.1502 -2.1599  1.0864
   61SAPC  C318 4841  -0.725   1.603   8.702 -0.0796  0.2259  0.8361
   61SAPC  H18X 4842  -0.795   1.616   8.787 -1.0271 -0.3068  0.1594
   61SAPC  H18Y 4843  -0.643   1.530   8.720 -1.2571 -0.8205  2.1873
   61SAPC  H18Z 4844  -0.798   1.554   8.633 -0.8462 -1.1964  2.5710
   62SAPC     N 4845   5.912   1.628  10.815 -0.4816 -0.0749  0.0913
   62SAPC   C12 4846   5.906   1.506  10.721  0.3175  0.0570 -0.1243
   62SAPC  H12A 4847   5.973   1.429  10.756  2.8066  1.4065 -1.6379
   62SAPC  H12B 4848   5.956   1.524  10.627  0.0801 -0.8667 -0.4387
   62SAPC   C13 4849   5.857   1.588  10.949  0.0603  0.5037 -0.2473
   62SAPC  H13A 4850   5.758   1.548  10.937  0.0009  1.1567 -2.3250
   62SAPC  H13B 4851   5.917   1.513  10.998 -1.1410 -1.2733 -1.3660
   62SAPC  H13C 4852   5.855   1.677  11.010  0.4289 -0.7844  1.7219
   62SAPC   C14 4853   6.054   1.676  10.838  0.2983  0.2383 -0.0459
   62SAPC  H14A 4854   6.058   1.770  10.892  0.6503  0.0147  0.3172
   62SAPC  H14B 4855   6.114   1.595  10.876 -0.3963 -0.0971  0.3751
   62SAPC  H14C 4856   6.103   1.689  10.743  0.1067 -0.0639 -0.1887
   62SAPC   C15 4857   5.830   1.735  10.762  0.1552 -0.5463  0.4491
   62SAPC  H15A 4858   5.797   1.801  10.841 -0.9770 -0.1411 -0.3279
   62SAPC  H15B 4859   5.871   1.792  10.681 -0.1105 -1.0243 -0.0314
   62SAPC  H15C 4860   5.740   1.692  10.720 -0.9742  1.3614  0.8047
   62SAPC   C11 4861   5.766   1.450  10.688  0.7658 -0.3261 -0.8370
   62SAPC  H11A 4862   5.711   1.419  10.780  0.5224  0.1331 -0.8278
   62SAPC  H11B 4863   5.784   1.368  10.616  0.6213 -0.9710 -0.1611
   62SAPC     P 4864   5.533   1.487  10.570  0.0031 -0.2594  0.2936
   62SAPC   O13 4865   5.467   1.395  10.662  0.8000 -0.0910 -0.0284
   62SAPC   O14 4866   5.450   1.599  10.515 -0.2051  0.3326  0.2821
   62SAPC   O12 4867   5.673   1.541  10.618  0.1744  0.1739  0.5629
   62SAPC   O11 4868   5.589   1.403  10.446  0.0322  0.7103  0.6194
   62SAPC    C1 4869   5.612   1.455  10.308  0.8820 -0.1475  0.5808
   62SAPC    HA 4870   5.528   1.525  10.287  0.6681  0.8363  4.0500
   62SAPC    HB 4871   5.708   1.511  10.301  1.7309 -1.7515 -3.5943
   62SAPC    C2 4872   5.607   1.343  10.206 -0.0508 -0.0675  0.7941
   62SAPC    HS 4873   5.691   1.276  10.235  0.1936 -0.3795 -0.5874
   62SAPC   O21 4874   5.640   1.423  10.089  0.5545  0.3473 -0.0820
   62SAPC   C21 4875   5.712   1.357   9.986  0.1696 -0.0613 -1.4942
   62SAPC   O22 4876   5.761   1.243   9.997 -0.3651 -0.3418  0.1368
   62SAPC   C22 4877   5.722   1.446   9.867 -0.5844 -0.7961  0.3887
   62SAPC   H2R 4878   5.758   1.546   9.897 -2.9828  0.3605 -0.4245
   62SAPC   H2S 4879   5.791   1.409   9.788  0.0474 -2.1461  1.5059
   62SAPC    C3 4880   5.477   1.255  10.196 -0.3349 -0.1669  0.3631
   62SAPC    HX 4881   5.403   1.336  10.176  1.1547  2.1962  3.3921
   62SAPC    HY 4882   5.459   1.224  10.301  2.5387  3.6307  2.2460
   62SAPC   O31 4883   5.479   1.148  10.098 -0.3455  0.3405  0.0875
   62SAPC   C31 4884   5.530   1.043  10.160  0.5507 -0.7663  0.2236
   62SAPC   O32 4885   5.600   1.035  10.257 -0.2205 -0.3217 -0.0420
   62SAPC   C32 4886   5.494   0.914  10.071 -0.3723 -0.9195  0.3858
   62SAPC   H2X 4887   5.386   0.926  10.047  0.0104  0.1626 -0.9771
   62SAPC   H2Y 4888   5.521   0.828  10.135 -0.3522 -1.7787 -0.7534
   62SAPC   C23 4889   5.590   1.499   9.809  0.5072  0.4188  0.6707
   62SAPC   H3R 4890   5.602   1.570   9.724 -0.4157  0.0504  0.2192
   62SAPC   H3S 4891   5.531   1.546   9.891 -1.2997 -0.8291  0.1587
   62SAPC   C24 4892   5.493   1.383   9.756  0.0672  0.5530  0.0845
   62SAPC   H4R 4893   5.400   1.434   9.725 -1.7449 -2.5360  0.0746
   62SAPC   H4S 4894   5.464   1.313   9.838  3.9032 -0.4276  0.7932
   62SAPC   C25 4895   5.542   1.294   9.646 -0.0708 -0.9425  0.7755
   62SAPC   H5R 4896   5.629   1.231   9.670 -0.0945 -1.1590  0.3193
   62SAPC   C26 4897   5.487   1.300   9.518  0.0116  0.6424 -1.0906
   62SAPC   H6R 4898   5.532   1.236   9.440 -0.3865 -2.7243  1.2068
   62SAPC   C27 4899   5.383   1.384   9.464 -0.2049 -0.2293 -0.7128
   62SAPC   H7R 4900   5.360   1.462   9.540 -2.6433  0.8504 -2.4333
   62SAPC   H7S 4901   5.295   1.317   9.453  0.3851 -1.0659 -0.4488
   62SAPC   C28 4902   5.433   1.436   9.333  0.7038  0.0769  0.1964
   62SAPC   H8R 4903   5.499   1.523   9.350  1.6537 -0.7037  0.5802
   62SAPC   C29 4904   5.398   1.401   9.199  0.4773 -0.5850 -0.2126
   62SAPC   H9R 4905   5.445   1.460   9.119  0.1077  0.1363  0.0869
   62SAPC  C210 4906   5.320   1.286   9.163 -0.1955  0.4716 -0.3162
   62SAPC  H10R 4907   5.255   1.308   9.075 -3.5276 -1.3628  1.4710
   62SAPC  H10S 4908   5.237   1.270   9.235  0.5503 -1.1548  0.2141
   62SAPC  C211 4909   5.389   1.152   9.156  0.3966  1.2672  0.1511
   62SAPC  H11R 4910   5.388   1.104   9.255 -0.7346  2.2709  0.6611
   62SAPC  C212 4911   5.413   1.093   9.036  0.2013 -0.4866 -0.1328
   62SAPC  H12R 4912   5.451   0.990   9.035  2.8651  0.3957  1.0158
   62SAPC  C213 4913   5.378   1.149   8.901 -0.4874 -0.6231 -0.9430
   62SAPC  H13R 4914   5.460   1.213   8.862 -1.0488 -1.4007 -3.5694
   62SAPC  H13S 4915   5.288   1.213   8.909 -0.8777 -1.3194  0.5685
   62SAPC  C214 4916   5.357   1.030   8.806 -0.6342 -0.3413  0.0021
   62SAPC  H14R 4917   5.253   0.997   8.820 -1.0421  1.2976  1.0580
   62SAPC  C215 4918   5.443   0.967   8.722  0.3272 -0.1844  0.1970
   62SAPC  H15R 4919   5.410   0.880   8.663 -0.2443  0.5940 -0.6677
   62SAPC  C216 4920   5.589   0.992   8.698 -0.5129 -0.2539  0.0424
   62SAPC  H16R 4921   5.615   1.091   8.741  0.1632  0.0445 -1.0229
   62SAPC  H16S 4922   5.624   0.994   8.592  1.8768  1.0547  0.7795
   62SAPC  C217 4923   5.683   0.880   8.749 -0.5880 -0.5430  0.2493
   62SAPC  H17R 4924   5.680   0.879   8.860  0.9837 -0.0670  0.3201
   62SAPC  H17S 4925   5.787   0.904   8.719  0.5542 -2.5474  2.3315
   62SAPC  C218 4926   5.649   0.736   8.707  0.0277 -0.7903  0.5354
   62SAPC  H18R 4927   5.663   0.731   8.597  2.0335  1.2379  0.6263
   62SAPC  H18S 4928   5.543   0.712   8.728 -0.2434 -0.3576 -0.3155
   62SAPC  C219 4929   5.730   0.624   8.784 -0.1568  0.1102 -0.0561
   62SAPC  H19R 4930   5.683   0.616   8.885 -1.8617 -1.7378 -0.9245
   62SAPC  H19S 4931   5.831   0.667   8.803 -0.1332  1.0228 -2.0429
   62SAPC  C220 4932   5.748   0.488   8.710  0.0884  0.1524  0.1885
   62SAPC  H20R 4933   5.787   0.414   8.783 -0.0554 -0.2175 -0.1062
   62SAPC  H20S 4934   5.817   0.486   8.623 -1.4630  1.0323 -1.1366
   62SAPC  H20T 4935   5.646   0.454   8.679 -0.1135  0.2601  0.7206
   62SAPC   C33 4936   5.578   0.918   9.935 -0.5745 -0.6108 -0.6306
   62SAPC   H3X 4937   5.684   0.893   9.958 -0.9734 -2.0020 -0.1766
   62SAPC   H3Y 4938   5.577   1.018   9.887 -1.2346  0.2480  1.0800
   62SAPC   C34 4939   5.517   0.817   9.840 -0.2086  0.5553  0.1747
   62SAPC   H4X 4940   5.407   0.832   9.835 -0.3121 -0.4565 -1.8968
   62SAPC   H4Y 4941   5.522   0.715   9.884  1.8119  0.3831 -0.3658
   62SAPC   C35 4942   5.585   0.814   9.702  0.6312 -0.5952  0.6263
   62SAPC   H5X 4943   5.551   0.723   9.648 -0.1867  0.3867 -0.5783
   62SAPC   H5Y 4944   5.696   0.811   9.711  0.6102 -0.1575  1.0906
   62SAPC   C36 4945   5.544   0.935   9.615 -0.1938  0.2746 -0.3472
   62SAPC   H6X 4946   5.606   1.019   9.652  2.3167 -2.8460  3.4375
   62SAPC   H6Y 4947   5.437   0.960   9.631  0.1550  0.8842  1.2687
   62SAPC   C37 4948   5.563   0.913   9.461  0.1716 -0.8434  0.9296
   62SAPC   H7X 4949   5.670   0.881   9.462  0.3975 -0.1059  1.6053
   62SAPC   H7Y 4950   5.559   1.009   9.405 -0.4276 -2.1234 -1.3319
   62SAPC   C38 4951   5.465   0.816   9.397  0.5662  0.0448 -0.2276
   62SAPC   H8X 4952   5.368   0.869   9.405  0.8375  0.5338 -0.1053
   62SAPC   H8Y 4953   5.451   0.724   9.458 -1.4482  1.4296  1.5812
   62SAPC   C39 4954   5.488   0.776   9.252  0.3164  0.0921 -0.3622
   62SAPC   H9X 4955   5.565   0.698   9.234  0.9325  0.9693 -1.6911
   62SAPC   H9Y 4956   5.514   0.867   9.194 -0.6526 -1.6024 -3.6695
   62SAPC  C310 4957   5.354   0.729   9.196 -0.1068  1.0210 -0.2197
   62SAPC  H10X 4958   5.271   0.803   9.195 -1.4618 -0.4556 -1.5357
   62SAPC  H10Y 4959   5.312   0.651   9.263  1.4889  0.0666 -0.2897
   62SAPC  C311 4960   5.366   0.667   9.051 -0.0399  0.0814  0.0858
   62SAPC  H11X 4961   5.442   0.586   9.055  0.4578  0.2948 -3.0203
   62SAPC  H11Y 4962   5.411   0.740   8.981 -1.2308  1.6870  0.9134
   62SAPC  C312 4963   5.229   0.621   8.993  0.0120 -0.2302 -0.4559
   62SAPC  H12X 4964   5.159   0.707   8.997  0.3425  0.0175  0.4890
   62SAPC  H12Y 4965   5.200   0.538   9.061 -4.3240  1.7445  0.4414
   62SAPC  C313 4966   5.234   0.555   8.859 -0.1744 -0.8221 -0.6635
   62SAPC  H13X 4967   5.294   0.464   8.879  2.9007  1.1150 -0.2721
   62SAPC  H13Y 4968   5.292   0.621   8.790 -0.5880  2.1475  1.5795
   62SAPC  C314 4969   5.094   0.529   8.803  0.6401  0.1327  0.1885
   62SAPC  H14X 4970   5.042   0.625   8.786  0.0906  0.1035  1.5429
   62SAPC  H14Y 4971   5.040   0.465   8.877 -2.1017  1.1944 -0.7735
   62SAPC  C315 4972   5.110   0.447   8.674 -0.3050  0.1306 -0.0667
   62SAPC  H15X 4973   5.166   0.353   8.694  2.2787  1.5448 -0.0987
   62SAPC  H15Y 4974   5.183   0.500   8.608 -1.1471 -1.8755 -2.7510
   62SAPC  C316 4975   4.986   0.418   8.606  0.2857 -0.2588 -0.3441
   62SAPC  H16X 4976   4.924   0.367   8.683 -1.5869  1.7504 -0.4385
   62SAPC  H16Y 4977   4.992   0.339   8.527 -4.3117 -0.1093 -1.1480
   62SAPC  C317 4978   4.907   0.537   8.554 -0.0364 -0.8488  0.3145
   62SAPC  H17X 4979   4.904   0.616   8.633 -0.2373  0.2009 -0.7159
   62SAPC  H17Y 4980   4.798   0.522   8.537 -0.6385  1.0881  1.9751
   62SAPC  C318 4981   4.962   0.596   8.425 -0.4795  0.4857  0.4105
   62SAPC  H18X 4982   4.903   0.686   8.398  0.2477  0.7935 -0.1811
   62SAPC  H18Y 4983   4.968   0.520   8.344  1.4878  1.1177 -0.0871
   62SAPC  H18Z 4984   5.068   0.626   8.443  0.0992 -0.2520 -1.5087
   63SAPC     N 4985   3.653   2.312   6.352  0.7172  0.4667 -0.3930
   63SAPC   C12 4986   3.654   2.455   6.310  0.7420 -0.6750  0.3407
   63SAPC  H12A 4987   3.720   2.502   6.382  1.1509 -1.4751  0.4937
   63SAPC  H12B 4988   3.563   2.508   6.333 -0.2232 -1.5518 -1.2677
   63SAPC   C13 4989   3.553   2.240   6.273 -0.9938  0.1491  0.1067
   63SAPC  H13A 4990   3.457   2.289   6.271 -1.2080 -0.1104  1.7922
   63SAPC  H13B 4991   3.583   2.232   6.170  0.3824 -3.5721  0.6430
   63SAPC  H13C 4992   3.536   2.142   6.315  1.2189 -0.4233 -0.2008
   63SAPC   C14 4993   3.787   2.247   6.337 -0.0388  0.0881  0.1763
   63SAPC  H14A 4994   3.795   2.145   6.371  1.1436 -0.1770 -0.8041
   63SAPC  H14B 4995   3.823   2.253   6.235  2.3148  0.6665  0.9809
   63SAPC  H14C 4996   3.862   2.303   6.391  1.0432  0.4095 -1.5844
   63SAPC   C15 4997   3.610   2.296   6.495  0.1954  0.1018 -0.0305
   63SAPC  H15A 4998   3.586   2.193   6.513  2.1881 -0.2698  0.7022
   63SAPC  H15B 4999   3.684   2.342   6.559 -0.1277  1.5103 -0.6151
   63SAPC  H15C 5000   3.515   2.341   6.521  0.1644  0.5678 -0.8881
   63SAPC   C11 5001   3.694   2.487   6.164  0.4351 -0.5891  0.1553
   63SAPC  H11A 5002   3.685   2.596   6.145  0.0549 -0.7591 -0.6873
   63SAPC  H11B 5003   3.617   2.432   6.106  1.0047 -0.4047 -0.7789
   63SAPC     P 5004   3.956   2.508   6.170  0.0681  0.0350 -0.3701
   63SAPC   O13 5005   4.032   2.548   6.050 -0.0527 -0.2797  0.3179
   63SAPC   O14 5006   3.923   2.616   6.266 -0.8346  0.0616  0.2232
   63SAPC   O12 5007   3.817   2.437   6.115  0.0115  0.4279 -0.9610
   63SAPC   O11 5008   4.033   2.395   6.250  0.3890  0.6300  0.2011
   63SAPC    C1 5009   4.132   2.425   6.351 -0.0021  0.1534 -0.0831
   63SAPC    HA 5010   4.221   2.362   6.331  0.8434  1.3141 -0.0659
   63SAPC    HB 5011   4.168   2.530   6.347 -0.9413  0.5486  1.1177
   63SAPC    C2 5012   4.079   2.402   6.499  0.1582  0.5013  0.6450
   63SAPC    HS 5013   4.169   2.414   6.562 -0.0929  1.0816  0.9038
   63SAPC   O21 5014   4.022   2.270   6.516  0.2764 -0.3556  0.0678
   63SAPC   C21 5015   4.101   2.178   6.501 -0.8033  0.2323 -0.6474
   63SAPC   O22 5016   4.223   2.183   6.481  0.2654  0.0264 -0.2517
   63SAPC   C22 5017   4.027   2.045   6.533  0.0921  0.3984 -1.1239
   63SAPC   H2R 5018   3.970   2.018   6.442  1.3402 -0.3137 -1.7159
   63SAPC   H2S 5019   4.102   1.964   6.550  0.0839  0.4928 -0.6134
   63SAPC    C3 5020   3.989   2.509   6.551  0.1875  0.2141  0.2902
   63SAPC    HX 5021   3.885   2.493   6.515 -0.0790 -0.7618  1.4479
   63SAPC    HY 5022   4.018   2.612   6.520 -1.8031  0.7419 -0.0161
   63SAPC   O31 5023   3.981   2.496   6.699  0.5847  0.0040  0.4085
   63SAPC   C31 5024   4.078   2.543   6.762  0.0373  0.2179 -0.0759
   63SAPC   O32 5025   4.174   2.605   6.719  0.0686  0.5228 -0.0160
   63SAPC   C32 5026   4.064   2.504   6.912  0.5812  0.1502 -0.0141
   63SAPC   H2X 5027   3.960   2.531   6.938  0.8003 -0.1932  1.2951
   63SAPC   H2Y 5028   4.129   2.570   6.973  0.7505 -1.0791  1.1951
   63SAPC   C23 5029   3.933   2.049   6.663 -0.1975  0.4866  0.8152
   63SAPC   H3R 5030   3.835   2.082   6.623  1.2599  0.9698 -2.7316
   63SAPC   H3S 5031   3.989   2.111   6.736 -1.7307  2.4790  0.3780
   63SAPC   C24 5032   3.914   1.907   6.733  0.6539 -0.1904 -0.2920
   63SAPC   H4R 5033   4.008   1.866   6.776 -0.7501 -1.1222  2.0670
   63SAPC   H4S 5034   3.872   1.837   6.656 -0.0596 -0.4271  0.3033
   63SAPC   C25 5035   3.811   1.908   6.843 -0.1305 -0.3557 -0.0635
   63SAPC   H5R 5036   3.715   1.953   6.814 -0.3083 -0.5673  0.1929
   63SAPC   C26 5037   3.830   1.860   6.968 -0.0433  0.0842  0.1719
   63SAPC   H6R 5038   3.746   1.870   7.039  2.3727  2.8469  2.8867
   63SAPC   C27 5039   3.941   1.786   7.029 -0.4251  0.3263  0.1382
   63SAPC   H7R 5040   3.970   1.708   6.955 -3.4530 -0.8780  0.0650
   63SAPC   H7S 5041   3.905   1.729   7.117  0.9157  0.0162  0.5088
   63SAPC   C28 5042   4.057   1.875   7.073  0.0752  0.2147 -0.3237
   63SAPC   H8R 5043   4.127   1.904   6.993  1.0555 -0.1415  0.3790
   63SAPC   C29 5044   4.089   1.923   7.196  0.7831 -0.0979  0.6765
   63SAPC   H9R 5045   4.181   1.983   7.207  0.4351  0.4294  0.7412
   63SAPC  C210 5046   4.012   1.897   7.324 -0.1880 -0.2606 -0.4473
   63SAPC  H10R 5047   3.905   1.922   7.306  0.5747  3.8735 -0.2168
   63SAPC  H10S 5048   4.041   1.981   7.391  1.4487 -0.1347 -1.2614
   63SAPC  C211 5049   4.033   1.760   7.387  0.3683  0.3358 -0.1338
   63SAPC  H11R 5050   4.054   1.682   7.313 -0.0739  0.0948 -0.0111
   63SAPC  C212 5051   4.031   1.715   7.516 -0.4529 -0.5282 -0.5225
   63SAPC  H12R 5052   4.036   1.607   7.539  0.5408  0.0335  2.2331
   63SAPC  C213 5053   4.003   1.804   7.631  0.2661  0.4054 -0.1294
   63SAPC  H13R 5054   3.906   1.851   7.602  0.7117 -0.1388 -2.6965
   63SAPC  H13S 5055   4.070   1.892   7.627  0.7191  0.1088  0.6755
   63SAPC  C214 5056   4.001   1.746   7.768 -0.1891 -0.4934  0.0380
   63SAPC  H14R 5057   4.005   1.637   7.779 -0.8074 -0.6222 -0.9075
   63SAPC  C215 5058   3.993   1.822   7.880 -0.0784 -0.3886  0.6256
   63SAPC  H15R 5059   3.992   1.770   7.977  2.2955  0.8036  1.3693
   63SAPC  C216 5060   3.980   1.970   7.892 -0.0272 -0.6504  0.0977
   63SAPC  H16R 5061   3.880   2.002   7.928  0.5941  0.6238  0.7548
   63SAPC  H16S 5062   3.996   2.015   7.792 -1.5830 -0.8746 -0.2841
   63SAPC  C217 5063   4.088   2.037   7.987 -0.4361 -0.4015 -0.4667
   63SAPC  H17R 5064   4.066   2.146   7.976 -0.5678 -0.1470  1.7674
   63SAPC  H17S 5065   4.193   2.017   7.960 -0.1296 -2.0156  1.6490
   63SAPC  C218 5066   4.080   2.000   8.135  0.5590 -0.2385 -0.2080
   63SAPC  H18R 5067   3.975   1.978   8.166  1.2978 -2.2586  1.1364
   63SAPC  H18S 5068   4.105   2.093   8.190 -1.5768  0.3916 -0.1998
   63SAPC  C219 5069   4.163   1.874   8.169 -0.6658  0.2531 -0.6658
   63SAPC  H19R 5070   4.238   1.893   8.248 -0.5960 -1.2611 -0.3333
   63SAPC  H19S 5071   4.219   1.839   8.079 -0.3816 -3.4335  0.7734
   63SAPC  C220 5072   4.092   1.751   8.219  0.0236 -0.0436 -0.1384
   63SAPC  H20R 5073   4.008   1.771   8.290  1.1401  0.6022  1.0620
   63SAPC  H20S 5074   4.162   1.677   8.262 -2.0264 -2.5480 -0.8683
   63SAPC  H20T 5075   4.043   1.699   8.134 -1.1295 -0.6108  0.8347
   63SAPC   C33 5076   4.085   2.353   6.932  0.5344  0.0532  0.5760
   63SAPC   H3X 5077   4.161   2.314   6.862 -1.3248  0.0607 -1.5462
   63SAPC   H3Y 5078   3.985   2.310   6.911  0.5130 -0.6756  2.0228
   63SAPC   C34 5079   4.120   2.310   7.073  0.4478 -0.7879  0.1007
   63SAPC   H4X 5080   4.128   2.199   7.082  1.6264 -0.6558  0.9085
   63SAPC   H4Y 5081   4.032   2.342   7.134 -0.8365 -1.6402 -1.2312
   63SAPC   C35 5082   4.248   2.365   7.135  0.3743  0.3098 -0.1212
   63SAPC   H5X 5083   4.242   2.475   7.141 -3.4104  0.1538  1.9723
   63SAPC   H5Y 5084   4.332   2.326   7.073  0.5772  0.6469 -0.0557
   63SAPC   C36 5085   4.279   2.318   7.280  0.5355  0.1426  0.5502
   63SAPC   H6X 5086   4.387   2.293   7.281  0.6968  0.4128 -1.9439
   63SAPC   H6Y 5087   4.209   2.235   7.304 -1.7708  1.4957 -1.0769
   63SAPC   C37 5088   4.249   2.423   7.384  0.7072  0.0413 -0.0014
   63SAPC   H7X 5089   4.158   2.481   7.358 -1.1679 -0.6084  4.2707
   63SAPC   H7Y 5090   4.338   2.488   7.390  1.3284 -0.6614 -1.1967
   63SAPC   C38 5091   4.214   2.365   7.522 -0.5059  0.0830  0.2450
   63SAPC   H8X 5092   4.277   2.273   7.522  2.5245  1.9830  1.9700
   63SAPC   H8Y 5093   4.104   2.351   7.518 -0.5626  0.7592 -1.3948
   63SAPC   C39 5094   4.235   2.455   7.645 -0.5836 -0.1703  0.7120
   63SAPC   H9X 5095   4.192   2.554   7.621 -0.2464  0.4249  2.3811
   63SAPC   H9Y 5096   4.344   2.463   7.663 -0.5405  0.3440  0.2383
   63SAPC  C310 5097   4.179   2.395   7.776  0.7965 -0.3784  0.2867
   63SAPC  H10X 5098   4.188   2.284   7.774  1.1070 -0.3478 -0.9673
   63SAPC  H10Y 5099   4.076   2.437   7.776  0.9765  0.0789  1.1118
   63SAPC  C311 5100   4.250   2.444   7.901  0.2038  1.1894  0.1477
   63SAPC  H11X 5101   4.266   2.554   7.892 -1.2125  1.2474 -3.1223
   63SAPC  H11Y 5102   4.352   2.399   7.899 -0.5149 -0.4772 -0.3431
   63SAPC  C312 5103   4.187   2.407   8.038  0.2360  0.0923  0.8209
   63SAPC  H12X 5104   4.205   2.297   8.046 -0.6927 -0.3534 -2.1577
   63SAPC  H12Y 5105   4.076   2.415   8.036  0.3172  1.6898 -2.0877
   63SAPC  C313 5106   4.251   2.479   8.160 -0.1126  0.7862 -0.2892
   63SAPC  H13X 5107   4.354   2.509   8.132  0.8515 -0.4915  1.6972
   63SAPC  H13Y 5108   4.270   2.412   8.246 -0.2817  0.8104 -0.2312
   63SAPC  C314 5109   4.171   2.603   8.205 -0.0387 -0.0411  0.1665
   63SAPC  H14X 5110   4.082   2.576   8.266  1.2503  0.3889  2.3572
   63SAPC  H14Y 5111   4.149   2.657   8.111  2.2858 -0.2773 -0.5728
   63SAPC  C315 5112   4.254   2.694   8.303 -0.1641  0.2193 -0.6204
   63SAPC  H15X 5113   4.213   2.797   8.307  1.0510  0.7650 -1.5587
   63SAPC  H15Y 5114   4.357   2.704   8.263 -0.3067 -1.0231 -1.3403
   63SAPC  C316 5115   4.271   2.644   8.443 -0.0779  0.1593 -0.2783
   63SAPC  H16X 5116   4.345   2.562   8.455  1.8793  1.9955  0.8809
   63SAPC  H16Y 5117   4.173   2.608   8.480 -0.4814  2.2449  0.8634
   63SAPC  C317 5118   4.334   2.759   8.528  0.0246  0.2935 -0.6650
   63SAPC  H17X 5119   4.270   2.847   8.550 -1.4378 -1.2162  1.5490
   63SAPC  H17Y 5120   4.415   2.792   8.460 -0.6493 -1.7762 -2.5912
   63SAPC  C318 5121   4.376   2.708   8.665  0.2686 -0.5753 -0.3415
   63SAPC  H18X 5122   4.457   2.633   8.653  1.8491  0.9403  0.4557
   63SAPC  H18Y 5123   4.287   2.675   8.724 -0.1631  1.9337  0.5295
   63SAPC  H18Z 5124   4.413   2.800   8.715  0.5011 -1.4806  1.2250
   64SAPC     N 5125   6.020   1.983   5.899 -0.2247  0.3075 -0.0582
   64SAPC   C12 5126   6.082   2.076   5.999 -1.2628 -0.3028 -0.2321
   64SAPC  H12A 5127   6.023   2.083   6.089  0.4323  1.5723  0.8217
   64SAPC  H12B 5128   6.077   2.170   5.946  0.0540 -1.5845 -2.7678
   64SAPC   C13 5129   5.884   2.028   5.860 -0.2975 -0.1157 -0.6924
   64SAPC  H13A 5130   5.816   2.038   5.943 -0.6630 -0.7513 -0.9084
   64SAPC  H13B 5131   5.889   2.126   5.815 -0.3182  0.1314 -0.1579
   64SAPC  H13C 5132   5.828   1.965   5.792 -3.2593  0.7905  0.7331
   64SAPC   C14 5133   6.099   1.970   5.775 -0.9282 -0.0510 -0.0515
   64SAPC  H14A 5134   6.127   2.070   5.743  3.0517 -0.7973  0.5841
   64SAPC  H14B 5135   6.189   1.914   5.797 -1.3034 -1.1900 -1.2708
   64SAPC  H14C 5136   6.046   1.909   5.704 -0.2454  1.5402 -2.0554
   64SAPC   C15 5137   6.000   1.854   5.960 -0.0748 -0.0125  0.1978
   64SAPC  H15A 5138   5.953   1.864   6.056  0.3638  2.2476  0.2247
   64SAPC  H15B 5139   5.928   1.804   5.896  1.0575 -0.9979 -0.3606
   64SAPC  H15C 5140   6.094   1.801   5.963 -1.1470 -2.0295  0.2064
   64SAPC   C11 5141   6.229   2.057   6.035  0.8004  0.3607 -0.0600
   64SAPC  H11A 5142   6.231   1.950   6.065 -2.5576 -0.6779 -2.7247
   64SAPC  H11B 5143   6.259   2.114   6.125  1.0879 -0.7578  0.5620
   64SAPC     P 5144   6.440   1.988   5.923 -0.2711  0.5636 -0.2291
   64SAPC   O13 5145   6.400   1.847   5.896 -0.6555  0.5878  0.6692
   64SAPC   O14 5146   6.550   2.044   5.842 -0.2089  0.2379  0.2974
   64SAPC   O12 5147   6.311   2.079   5.920 -0.2545  0.4177  0.9143
   64SAPC   O11 5148   6.493   2.001   6.070 -0.3226  0.3743 -0.2597
   64SAPC    C1 5149   6.596   1.934   6.134  0.0590 -0.6370  0.6337
   64SAPC    HA 5150   6.651   1.863   6.068 -1.3879  0.4489 -1.8734
   64SAPC    HB 5151   6.680   2.000   6.165  1.4682 -0.4453 -3.0697
   64SAPC    C2 5152   6.540   1.853   6.254 -0.1003  0.4703  0.4059
   64SAPC    HS 5153   6.478   1.773   6.207 -0.6912  1.5794 -0.7683
   64SAPC   O21 5154   6.467   1.935   6.347  0.3241  0.0226 -0.1055
   64SAPC   C21 5155   6.350   1.891   6.376  0.3842 -0.6075 -0.4330
   64SAPC   O22 5156   6.297   1.788   6.329  0.5151  0.3664  0.0378
   64SAPC   C22 5157   6.288   1.986   6.473 -0.0808 -0.8555  0.1813
   64SAPC   H2R 5158   6.331   1.952   6.569  1.9631  0.0406 -0.3609
   64SAPC   H2S 5159   6.320   2.091   6.454 -2.9878  0.1541  0.2904
   64SAPC    C3 5160   6.652   1.782   6.340 -0.5411  0.3523  0.0846
   64SAPC    HX 5161   6.716   1.725   6.269 -0.7043  0.3920 -0.0954
   64SAPC    HY 5162   6.598   1.707   6.403 -3.2593  1.4053 -0.8226
   64SAPC   O31 5163   6.735   1.873   6.412 -0.7606  0.3051  0.0660
   64SAPC   C31 5164   6.703   1.894   6.538  0.0517  0.6239  0.2001
   64SAPC   O32 5165   6.614   1.837   6.600 -0.5289 -0.0592  0.6291
   64SAPC   C32 5166   6.788   2.002   6.592  0.6473 -1.2196  0.3990
   64SAPC   H2X 5167   6.787   2.085   6.518  0.8006 -2.6508 -1.2645
   64SAPC   H2Y 5168   6.890   1.961   6.605  1.0997 -0.4865 -0.6562
   64SAPC   C23 5169   6.137   1.971   6.476  0.2111 -0.1037  0.0541
   64SAPC   H3R 5170   6.099   1.867   6.466 -0.8636  0.4390 -1.9474
   64SAPC   H3S 5171   6.085   2.033   6.401 -2.6045 -0.6179  1.4619
   64SAPC   C24 5172   6.088   2.025   6.615  0.3154 -0.2592 -0.6414
   64SAPC   H4R 5173   5.977   2.038   6.612  0.3993  0.4468 -0.9654
   64SAPC   H4S 5174   6.128   2.128   6.623  2.2717 -1.0109 -0.1957
   64SAPC   C25 5175   6.119   1.934   6.729  0.0477  0.2806  0.0989
   64SAPC   H5R 5176   6.095   1.829   6.712 -1.5908  0.4267  1.3059
   64SAPC   C26 5177   6.145   1.977   6.858  0.1281  0.2463  0.4405
   64SAPC   H6R 5178   6.182   1.906   6.933  1.2105 -1.4006 -1.5358
   64SAPC   C27 5179   6.162   2.122   6.889 -0.4259 -0.9525  0.0589
   64SAPC   H7R 5180   6.146   2.141   6.997  0.7487  1.1646 -0.0866
   64SAPC   H7S 5181   6.075   2.172   6.842  0.6347 -0.8034 -1.8564
   64SAPC   C28 5182   6.288   2.186   6.844 -0.1049  0.1108  0.1371
   64SAPC   H8R 5183   6.307   2.184   6.736  2.2039 -0.8108  0.4913
   64SAPC   C29 5184   6.381   2.247   6.922  0.0458 -0.3074 -0.8481
   64SAPC   H9R 5185   6.480   2.273   6.882  0.6643 -0.6547  0.3965
   64SAPC  C210 5186   6.369   2.271   7.072 -0.1637  0.1581 -1.0942
   64SAPC  H10R 5187   6.282   2.224   7.123 -0.1677  3.2460  2.1225
   64SAPC  H10S 5188   6.354   2.374   7.109 -2.1240 -0.4995  0.1004
   64SAPC  C211 5189   6.492   2.235   7.139  0.3534 -0.3275  0.0725
   64SAPC  H11R 5190   6.569   2.188   7.078 -0.3090 -1.2732 -0.0576
   64SAPC  C212 5191   6.505   2.233   7.274  0.6050 -0.0714 -0.3801
   64SAPC  H12R 5192   6.609   2.223   7.311  0.9656  1.1663 -1.0009
   64SAPC  C213 5193   6.406   2.282   7.376  0.3010  0.3764  0.0428
   64SAPC  H13R 5194   6.390   2.199   7.448 -0.6322  0.6170  0.1215
   64SAPC  H13S 5195   6.303   2.293   7.336 -0.1615  0.9374  1.3222
   64SAPC  C214 5196   6.444   2.408   7.452 -0.2882  0.0801 -0.0408
   64SAPC  H14R 5197   6.490   2.488   7.392 -2.1367  2.8191  1.9834
   64SAPC  C215 5198   6.419   2.429   7.581 -0.2528 -0.2558 -0.0193
   64SAPC  H15R 5199   6.450   2.528   7.618 -1.2509 -0.7882  2.3926
   64SAPC  C216 5200   6.339   2.345   7.671 -0.4612  0.1037  1.0277
   64SAPC  H16R 5201   6.378   2.320   7.772 -0.6217 -1.1402  0.7941
   64SAPC  H16S 5202   6.307   2.245   7.636  1.7043 -1.3699  2.9666
   64SAPC  C217 5203   6.204   2.421   7.671  0.6819  0.1561 -0.2338
   64SAPC  H17R 5204   6.162   2.441   7.570  1.0801  0.1600 -0.3965
   64SAPC  H17S 5205   6.201   2.522   7.717 -0.8049  0.1187 -0.1753
   64SAPC  C218 5206   6.090   2.349   7.749 -0.4090 -0.5372 -0.7056
   64SAPC  H18R 5207   6.072   2.253   7.697  3.4524 -1.1997 -1.1326
   64SAPC  H18S 5208   6.000   2.414   7.742 -0.0008  0.3228  1.1991
   64SAPC  C219 5209   6.130   2.332   7.895 -0.1245  0.3317  0.1989
   64SAPC  H19R 5210   6.144   2.436   7.933  3.7293  0.2038 -0.4495
   64SAPC  H19S 5211   6.224   2.274   7.893 -1.8398 -2.6531 -0.0632
   64SAPC  C220 5212   6.028   2.252   7.976  0.6292  0.4610 -0.0297
   64SAPC  H20R 5213   6.032   2.149   7.934  2.0534  0.2818  0.4840
   64SAPC  H20S 5214   5.923   2.287   7.965  0.7602  0.6761 -0.6353
   64SAPC  H20T 5215   6.060   2.230   8.080 -0.4580 -0.4714  0.1333
   64SAPC   C33 5216   6.734   2.065   6.723  0.0075  0.0738  0.2432
   64SAPC   H3X 5217   6.625   2.086   6.723  0.1775  1.0123  0.0794
   64SAPC   H3Y 5218   6.799   2.154   6.733 -0.2626  0.4808 -1.3582
   64SAPC   C34 5219   6.779   1.965   6.839 -0.0149 -0.1640  0.5311
   64SAPC   H4X 5220   6.881   1.933   6.811  0.4770  0.6521  1.3473
   64SAPC   H4Y 5221   6.725   1.868   6.829 -0.8457  0.2305  1.0455
   64SAPC   C35 5222   6.752   2.017   6.977  0.9048  0.2686 -0.2925
   64SAPC   H5X 5223   6.644   2.004   7.000  1.0030 -0.8750 -0.4123
   64SAPC   H5Y 5224   6.776   2.125   6.975 -1.4949  0.8643  0.2114
   64SAPC   C36 5225   6.835   1.955   7.092 -0.0614 -0.4125 -1.1193
   64SAPC   H6X 5226   6.944   1.972   7.077  0.8049 -1.2134  2.9998
   64SAPC   H6Y 5227   6.819   1.845   7.085 -1.9425 -0.3543  1.1323
   64SAPC   C37 5228   6.793   2.023   7.220  0.3549  0.5692  0.3759
   64SAPC   H7X 5229   6.686   1.993   7.221  0.3752  0.4850  0.1396
   64SAPC   H7Y 5230   6.789   2.134   7.222  1.1145  0.6211 -0.4044
   64SAPC   C38 5231   6.862   1.974   7.349 -0.8266  0.3640 -0.0470
   64SAPC   H8X 5232   6.968   2.008   7.356 -1.2475  2.0318 -1.0348
   64SAPC   H8Y 5233   6.859   1.864   7.363 -0.4853  0.2963 -0.4665
   64SAPC   C39 5234   6.800   2.044   7.469  0.4577 -0.5282  0.4711
   64SAPC   H9X 5235   6.694   2.059   7.440  0.4466 -1.7199 -0.1364
   64SAPC   H9Y 5236   6.848   2.145   7.468  1.0042 -0.7809  0.6867
   64SAPC  C310 5237   6.811   1.983   7.603 -0.1716  0.4673 -0.0751
   64SAPC  H10X 5238   6.914   2.002   7.640 -0.8662  1.3774  1.4689
   64SAPC  H10Y 5239   6.805   1.872   7.611  0.5673  0.4595  0.4334
   64SAPC  C311 5240   6.714   2.046   7.700  0.7304  0.2827  0.1846
   64SAPC  H11X 5241   6.610   2.051   7.659 -0.5495 -1.5095  2.8762
   64SAPC  H11Y 5242   6.737   2.153   7.712  2.1615  0.1223 -0.9234
   64SAPC  C312 5243   6.701   1.993   7.843 -0.5088  0.3724 -0.0198
   64SAPC  H12X 5244   6.805   1.984   7.880  0.6688 -3.2901 -3.5099
   64SAPC  H12Y 5245   6.660   1.890   7.833  0.1544  0.2973 -2.4387
   64SAPC  C313 5246   6.615   2.074   7.944 -0.2467  1.0601  0.0665
   64SAPC  H13X 5247   6.591   2.006   8.028 -1.4415  0.2760 -0.8538
   64SAPC  H13Y 5248   6.526   2.103   7.882  0.0912 -0.4352 -1.2018
   64SAPC  C314 5249   6.688   2.190   7.997 -0.0762 -1.3963 -0.1047
   64SAPC  H14X 5250   6.716   2.267   7.922  0.3606  0.5676  1.9404
   64SAPC  H14Y 5251   6.787   2.158   8.037  0.3032 -0.9656 -0.6724
   64SAPC  C315 5252   6.616   2.266   8.118  0.0519  0.3385  0.2900
   64SAPC  H15X 5253   6.676   2.359   8.134  0.3589  0.0287  0.9844
   64SAPC  H15Y 5254   6.621   2.205   8.210  1.2961 -0.2428 -0.1351
   64SAPC  C316 5255   6.479   2.314   8.090 -0.0401  0.4548  0.0893
   64SAPC  H16X 5256   6.400   2.237   8.076 -0.3538  0.9232 -0.8270
   64SAPC  H16Y 5257   6.469   2.385   8.005 -2.3755  1.8226  1.4182
   64SAPC  C317 5258   6.435   2.401   8.206 -0.2363  0.1467  0.0203
   64SAPC  H17X 5259   6.518   2.465   8.242  0.6013 -1.3532  0.8564
   64SAPC  H17Y 5260   6.414   2.336   8.293  0.7942  0.9773  0.9091
   64SAPC  C318 5261   6.315   2.491   8.158 -0.3185 -0.5635  0.1589
   64SAPC  H18X 5262   6.228   2.431   8.122  0.7446 -1.3195 -1.2641
   64SAPC  H18Y 5263   6.341   2.561   8.075  0.7983 -1.2766 -0.1063
   64SAPC  H18Z 5264   6.289   2.558   8.242  1.9509  0.3603  0.2007
   65SAPC     N 5265   6.312   3.418   6.191  0.0195  0.1701 -0.1053
   65SAPC   C12 5266   6.437   3.332   6.215  0.0239 -0.4749  0.3549
   65SAPC  H12A 5267   6.452   3.275   6.124 -1.9684 -1.7560  0.7561
   65SAPC  H12B 5268   6.416   3.263   6.296  0.9085  0.2885  1.2595
   65SAPC   C13 5269   6.276   3.511   6.305  0.3820 -0.1563  0.1529
   65SAPC  H13A 5270   6.184   3.567   6.296 -0.1807 -1.0378  0.2681
   65SAPC  H13B 5271   6.271   3.453   6.396  1.0817  1.9306  1.5881
   65SAPC  H13C 5272   6.354   3.580   6.332  3.6480 -3.1893 -0.7550
   65SAPC   C14 5273   6.341   3.496   6.069 -0.3842 -0.4457 -0.1524
   65SAPC  H14A 5274   6.274   3.581   6.075 -1.4374 -1.1411 -1.5996
   65SAPC  H14B 5275   6.439   3.542   6.070  0.0697 -1.3869  0.7330
   65SAPC  H14C 5276   6.317   3.437   5.982 -2.9523 -0.1317  0.2476
   65SAPC   C15 5277   6.190   3.340   6.154 -0.2219 -0.2784 -0.8345
   65SAPC  H15A 5278   6.105   3.400   6.127  0.6322  1.3592 -0.0137
   65SAPC  H15B 5279   6.214   3.275   6.072  1.9055  0.6323 -0.9889
   65SAPC  H15C 5280   6.159   3.284   6.241  0.2637  0.1702 -0.3610
   65SAPC   C11 5281   6.571   3.413   6.255 -0.0097  0.1436 -0.2855
   65SAPC  H11A 5282   6.637   3.326   6.275 -0.2202  0.2468  0.9448
   65SAPC  H11B 5283   6.558   3.467   6.351 -1.8855 -1.0912  0.2042
   65SAPC     P 5284   6.679   3.638   6.189 -0.3692 -0.1322 -0.1660
   65SAPC   O13 5285   6.783   3.674   6.085  0.3983  0.2052  0.1666
   65SAPC   O14 5286   6.565   3.733   6.200 -0.2424  0.3767  0.2640
   65SAPC   O12 5287   6.623   3.490   6.150 -0.1170  0.6794 -0.3876
   65SAPC   O11 5288   6.752   3.611   6.327 -0.3685 -0.4146  0.3254
   65SAPC    C1 5289   6.832   3.706   6.389  0.1489 -0.2129  0.0491
   65SAPC    HA 5290   6.936   3.673   6.371  0.0564 -0.6302  0.2752
   65SAPC    HB 5291   6.819   3.807   6.344 -0.9633 -0.5586 -0.4430
   65SAPC    C2 5292   6.793   3.714   6.537 -0.2339  0.4259  0.1381
   65SAPC    HS 5293   6.854   3.799   6.574 -1.0286  1.6520 -1.2889
   65SAPC   O21 5294   6.814   3.588   6.609 -0.1041 -0.5535 -0.2870
   65SAPC   C21 5295   6.941   3.561   6.653  0.7989  0.2554  0.1686
   65SAPC   O22 5296   7.039   3.627   6.616 -0.1595 -0.3755 -0.0976
   65SAPC   C22 5297   6.937   3.431   6.728  0.0393  0.5795  0.5150
   65SAPC   H2R 5298   6.829   3.408   6.741 -0.2266  0.2001 -1.8591
   65SAPC   H2S 5299   6.963   3.359   6.648 -1.3960 -0.6570  1.1005
   65SAPC    C3 5300   6.648   3.752   6.562 -0.0830  0.2810 -0.4729
   65SAPC    HX 5301   6.583   3.674   6.517 -0.9016  1.4265 -1.3341
   65SAPC    HY 5302   6.631   3.845   6.503 -3.3211  0.7652  0.9660
   65SAPC   O31 5303   6.619   3.782   6.699 -0.0995 -0.0329  0.7016
   65SAPC   C31 5304   6.536   3.704   6.761  0.4745 -0.3030 -0.7439
   65SAPC   O32 5305   6.482   3.600   6.714 -0.5199 -0.5478 -0.5638
   65SAPC   C32 5306   6.530   3.738   6.908  0.6107 -0.9320 -0.3069
   65SAPC   H2X 5307   6.631   3.726   6.954  0.5370  1.1434  0.5139
   65SAPC   H2Y 5308   6.461   3.671   6.963 -0.6371  0.0154 -0.6803
   65SAPC   C23 5309   7.025   3.432   6.851  0.0378 -0.2395  0.8376
   65SAPC   H3R 5310   7.007   3.516   6.920  3.3231  2.1454 -0.9080
   65SAPC   H3S 5311   7.127   3.441   6.807 -1.4512  0.3785 -2.9246
   65SAPC   C24 5312   7.032   3.298   6.928 -0.5941  0.8683  0.0764
   65SAPC   H4R 5313   7.097   3.290   7.018 -0.0835  1.4160 -0.2328
   65SAPC   H4S 5314   7.074   3.227   6.853  0.1179  0.3446  0.9412
   65SAPC   C25 5315   6.895   3.252   6.972 -0.2496  0.1641 -0.3245
   65SAPC   H5R 5316   6.829   3.195   6.905 -0.7005  1.8222 -1.3595
   65SAPC   C26 5317   6.838   3.287   7.086  0.0777 -0.0880 -0.4425
   65SAPC   H6R 5318   6.737   3.248   7.108  0.1307 -0.0369 -0.1043
   65SAPC   C27 5319   6.893   3.385   7.195 -0.4858  0.4781 -0.1162
   65SAPC   H7R 5320   6.990   3.428   7.164  0.6594 -2.9998 -1.8921
   65SAPC   H7S 5321   6.915   3.335   7.292  1.5943  1.4617 -0.0287
   65SAPC   C28 5322   6.792   3.495   7.216 -0.4114  0.0476  0.1299
   65SAPC   H8R 5323   6.750   3.538   7.124  1.0517 -1.8161 -1.5020
   65SAPC   C29 5324   6.757   3.542   7.340  0.2699  0.2305 -0.2393
   65SAPC   H9R 5325   6.679   3.618   7.351 -0.5255 -0.9732  5.9688
   65SAPC  C210 5326   6.808   3.514   7.477  0.6942 -0.1540 -0.2927
   65SAPC  H10R 5327   6.902   3.455   7.488  1.1652  0.6825  0.2983
   65SAPC  H10S 5328   6.731   3.449   7.521 -0.6729  1.6303  0.0729
   65SAPC  C211 5329   6.847   3.630   7.564  0.5095  0.4333  0.6692
   65SAPC  H11R 5330   6.930   3.690   7.525  0.3007  1.1313  1.2730
   65SAPC  C212 5331   6.770   3.669   7.677 -0.2400 -0.5778 -0.1300
   65SAPC  H12R 5332   6.808   3.751   7.739 -0.3699 -0.4498 -0.2189
   65SAPC  C213 5333   6.652   3.595   7.737 -0.3000 -0.5938  0.2657
   65SAPC  H13R 5334   6.609   3.532   7.656 -1.1400 -0.6359  0.7408
   65SAPC  H13S 5335   6.586   3.679   7.768  0.8823  0.0032  1.2768
   65SAPC  C214 5336   6.687   3.507   7.857 -0.4797 -0.4739  0.2848
   65SAPC  H14R 5337   6.754   3.425   7.827  0.4485  0.4079 -0.1143
   65SAPC  C215 5338   6.668   3.531   7.985  0.1373 -0.4882 -0.4229
   65SAPC  H15R 5339   6.691   3.448   8.054 -2.4152 -0.1169  1.0009
   65SAPC  C216 5340   6.582   3.637   8.036 -0.2794  0.1723 -0.0876
   65SAPC  H16R 5341   6.474   3.608   8.032  0.2085 -1.6827 -0.9764
   65SAPC  H16S 5342   6.595   3.720   7.964  2.1515 -1.9826 -2.3517
   65SAPC  C217 5343   6.616   3.678   8.174  0.4026  0.3374 -0.7687
   65SAPC  H17R 5344   6.617   3.594   8.247  1.7694 -0.0600 -1.2071
   65SAPC  H17S 5345   6.542   3.754   8.206  0.0388  0.1079 -1.0538
   65SAPC  C218 5346   6.754   3.743   8.190  0.6695 -0.3542  0.0690
   65SAPC  H18R 5347   6.759   3.826   8.117  1.1050 -0.6030 -0.1902
   65SAPC  H18S 5348   6.831   3.667   8.166  2.1604  1.3323 -0.7161
   65SAPC  C219 5349   6.767   3.807   8.330 -0.5259  0.2263 -0.1990
   65SAPC  H19R 5350   6.875   3.813   8.358 -0.2850  1.3237 -1.2884
   65SAPC  H19S 5351   6.720   3.731   8.397 -0.5697  0.7784  0.4027
   65SAPC  C220 5352   6.700   3.930   8.336  0.0362 -0.0336 -0.2035
   65SAPC  H20R 5353   6.720   3.989   8.244 -0.6490 -0.5941 -0.7227
   65SAPC  H20S 5354   6.729   3.992   8.424 -0.3530 -0.9566  0.5953
   65SAPC  H20T 5355   6.591   3.918   8.353 -0.0942  1.2895 -0.0239
   65SAPC   C33 5356   6.458   3.877   6.933 -0.3306 -0.1061  0.3382
   65SAPC   H3X 5357   6.351   3.872   6.902 -0.9326 -0.0780  2.2255
   65SAPC   H3Y 5358   6.499   3.957   6.868 -1.3834  1.2821  1.2996
   65SAPC   C34 5359   6.480   3.930   7.073  0.3404  0.3479 -0.8568
   65SAPC   H4X 5360   6.453   4.037   7.078 -1.9688 -0.2097  0.1628
   65SAPC   H4Y 5361   6.590   3.918   7.082  0.3839  2.0327  2.1326
   65SAPC   C35 5362   6.407   3.853   7.186  0.5939  0.6638 -0.1927
   65SAPC   H5X 5363   6.453   3.753   7.201  1.6436  0.8942 -1.7093
   65SAPC   H5Y 5364   6.304   3.817   7.161  1.6231 -1.5287 -1.6536
   65SAPC   C36 5365   6.421   3.930   7.315 -0.0137 -0.1479  0.1861
   65SAPC   H6X 5366   6.359   4.022   7.313 -1.4559 -1.0963  0.2210
   65SAPC   H6Y 5367   6.527   3.962   7.328 -0.0364 -0.1103  0.2788
   65SAPC   C37 5368   6.381   3.842   7.434  0.0249  0.3493  0.0439
   65SAPC   H7X 5369   6.456   3.760   7.439  1.2071  1.4425  0.6848
   65SAPC   H7Y 5370   6.280   3.801   7.412  0.4460 -1.0315  0.5906
   65SAPC   C38 5371   6.391   3.914   7.572  0.4361  0.1000  0.1118
   65SAPC   H8X 5372   6.329   3.854   7.642  0.6512  0.9365  1.0444
   65SAPC   H8Y 5373   6.345   4.015   7.560  0.4375  0.4478  2.4932
   65SAPC   C39 5374   6.530   3.936   7.624  0.0253 -0.3682  0.3044
   65SAPC   H9X 5375   6.587   3.994   7.549 -2.6393  2.1179  0.0455
   65SAPC   H9Y 5376   6.579   3.838   7.643  0.7641  0.2815  2.0727
   65SAPC  C310 5377   6.541   4.012   7.754  0.7584 -0.0241  0.0816
   65SAPC  H10X 5378   6.481   3.960   7.832  0.2606  1.5555  0.7977
   65SAPC  H10Y 5379   6.494   4.113   7.742 -0.0353 -0.4504 -0.4984
   65SAPC  C311 5380   6.676   4.030   7.819  0.5337  0.3665 -0.4703
   65SAPC  H11X 5381   6.738   4.097   7.755  1.7184 -1.3383 -1.1615
   65SAPC  H11Y 5382   6.714   3.926   7.822 -0.7437 -0.1444 -1.3088
   65SAPC  C312 5383   6.653   4.098   7.958  0.1840 -0.8941 -0.5023
   65SAPC  H12X 5384   6.734   4.075   8.030  0.1609  0.4711 -0.0136
   65SAPC  H12Y 5385   6.558   4.071   8.010  0.2692  0.0054  0.1443
   65SAPC  C313 5386   6.652   4.250   7.944 -0.2831 -0.8327 -0.1764
   65SAPC  H13X 5387   6.567   4.286   7.881 -3.2646 -0.8746  3.4883
   65SAPC  H13Y 5388   6.748   4.275   7.893  0.6683 -3.1975  0.3051
   65SAPC  C314 5389   6.638   4.327   8.074  0.1504  0.0756  0.7021
   65SAPC  H14X 5390   6.530   4.334   8.096  0.4350  2.4279  1.6265
   65SAPC  H14Y 5391   6.683   4.427   8.055  0.4226 -0.3013 -0.8494
   65SAPC  C315 5392   6.715   4.277   8.203  0.3565 -0.5593 -0.3371
   65SAPC  H15X 5393   6.814   4.234   8.180 -0.8559 -2.7908 -1.8127
   65SAPC  H15Y 5394   6.656   4.190   8.239 -0.2415  0.9360  2.5819
   65SAPC  C316 5395   6.737   4.392   8.303  0.5037 -0.4880 -0.7668
   65SAPC  H16X 5396   6.638   4.440   8.318  0.8146 -0.0438 -0.1384
   65SAPC  H16Y 5397   6.806   4.467   8.258 -0.9759  0.5768 -1.3457
   65SAPC  C317 5398   6.792   4.349   8.439 -0.1600 -0.5760  0.2245
   65SAPC  H17X 5399   6.822   4.438   8.498  4.9189 -1.4414 -0.6033
   65SAPC  H17Y 5400   6.890   4.299   8.424 -0.5686 -0.5795 -3.1497
   65SAPC  C318 5401   6.698   4.259   8.510  0.2139  0.1024  0.2277
   65SAPC  H18X 5402   6.660   4.178   8.445  0.5262  1.0958 -1.2488
   65SAPC  H18Y 5403   6.619   4.326   8.551  0.9794  0.5786  0.9596
   65SAPC  H18Z 5404   6.750   4.218   8.599 -0.7774  2.3279  1.9507
   66SAPC     N 5405   3.956   4.833   5.946 -0.3979 -0.0399  0.6153
   66SAPC   C12 5406   4.047   4.903   6.043  0.7315  0.1064  0.4160
   66SAPC  H12A 5407   3.988   4.988   6.074 -1.3909 -1.9504  2.4120
   66SAPC  H12B 5408   4.144   4.930   6.004  1.3596 -0.0346  1.8068
   66SAPC   C13 5409   4.008   4.701   5.904  1.1080  0.7572  0.5199
   66SAPC  H13A 5410   4.105   4.706   5.857  1.3005 -1.2741  0.5908
   66SAPC  H13B 5411   4.028   4.642   5.993 -0.3153  0.5818  0.7575
   66SAPC  H13C 5412   3.934   4.651   5.843  1.4243  1.0706 -0.1212
   66SAPC   C14 5413   3.810   4.836   5.984  0.0833 -0.3510 -0.7080
   66SAPC  H14A 5414   3.794   4.785   6.078  0.5854 -0.6772 -0.8002
   66SAPC  H14B 5415   3.783   4.937   6.011 -2.8515 -1.1114 -0.4301
   66SAPC  H14C 5416   3.747   4.800   5.904 -0.1715  1.1110 -1.2045
   66SAPC   C15 5417   3.963   4.926   5.820  0.0181  0.1981  0.4413
   66SAPC  H15A 5418   3.961   5.031   5.844 -0.8323  0.0864  0.9349
   66SAPC  H15B 5419   4.056   4.909   5.769 -1.0792 -3.0450 -0.7681
   66SAPC  H15C 5420   3.882   4.904   5.752  0.1250  0.6317  0.1675
   66SAPC   C11 5421   4.080   4.817   6.160 -0.2159 -0.1170 -0.6758
   66SAPC  H11A 5422   3.990   4.779   6.213 -0.3068  0.4489 -0.4158
   66SAPC  H11B 5423   4.117   4.889   6.236 -0.3353  0.9706 -1.6156
   66SAPC     P 5424   4.320   4.727   6.125 -0.4466  0.1058  0.2523
   66SAPC   O13 5425   4.382   4.601   6.113 -0.1690  0.5179 -0.9355
   66SAPC   O14 5426   4.342   4.830   6.019 -0.2159  0.3870 -1.1030
   66SAPC   O12 5427   4.165   4.705   6.135 -0.5161 -0.0973 -0.2569
   66SAPC   O11 5428   4.352   4.794   6.269 -0.2384 -0.0933  0.5468
   66SAPC    C1 5429   4.314   4.719   6.386 -1.1441  0.1710 -0.5569
   66SAPC    HA 5430   4.209   4.749   6.410 -1.0470  2.0533 -2.1647
   66SAPC    HB 5431   4.319   4.609   6.374 -1.3464  0.2179 -1.1106
   66SAPC    C2 5432   4.407   4.761   6.506  0.0609  0.0606  0.3139
   66SAPC    HS 5433   4.371   4.715   6.600  0.8178  1.4734  1.3337
   66SAPC   O21 5434   4.414   4.904   6.508 -0.6488  0.7385 -0.0892
   66SAPC   C21 5435   4.306   4.963   6.563 -0.3369  0.3626 -0.4970
   66SAPC   O22 5436   4.213   4.905   6.616  0.4123  0.1570 -0.0050
   66SAPC   C22 5437   4.320   5.114   6.551  0.5206 -0.5608 -0.0117
   66SAPC   H2R 5438   4.427   5.141   6.562  0.0707  1.4015 -0.1107
   66SAPC   H2S 5439   4.282   5.147   6.452 -0.0831 -0.5110  0.2342
   66SAPC    C3 5440   4.550   4.709   6.484 -0.0048 -0.2229  0.3900
   66SAPC    HX 5441   4.594   4.770   6.402 -0.1615  2.4196  2.1670
   66SAPC    HY 5442   4.549   4.602   6.455  0.9577 -1.1890  3.5992
   66SAPC   O31 5443   4.623   4.723   6.608 -0.0753  0.2700  0.3651
   66SAPC   C31 5444   4.655   4.607   6.671  0.0406  0.0397 -0.0578
   66SAPC   O32 5445   4.658   4.493   6.620  0.3488 -0.2142 -0.2226
   66SAPC   C32 5446   4.700   4.650   6.807 -0.0638 -0.1765  0.6713
   66SAPC   H2X 5447   4.605   4.680   6.856 -0.8607 -0.2917 -0.7527
   66SAPC   H2Y 5448   4.767   4.739   6.803  0.9513 -0.9580 -0.4222
   66SAPC   C23 5449   4.235   5.193   6.649  0.5782 -0.2004 -0.2476
   66SAPC   H3R 5450   4.130   5.193   6.610  0.9377  2.3000 -1.4898
   66SAPC   H3S 5451   4.267   5.299   6.637 -0.1019  0.3792  2.4844
   66SAPC   C24 5452   4.241   5.152   6.800  0.6601 -0.3691  1.0134
   66SAPC   H4R 5453   4.345   5.124   6.826  1.2640 -1.6100 -2.2543
   66SAPC   H4S 5454   4.176   5.062   6.810 -1.5957  1.1867  1.2428
   66SAPC   C25 5455   4.177   5.258   6.886  0.0083 -0.3334 -1.1395
   66SAPC   H5R 5456   4.191   5.360   6.848  2.3066  0.1207  0.6536
   66SAPC   C26 5457   4.109   5.234   7.005 -0.2472 -0.0262  0.3087
   66SAPC   H6R 5458   4.074   5.313   7.073 -0.3671 -2.0433  2.7370
   66SAPC   C27 5459   4.090   5.092   7.059  0.4620 -0.5303  0.0754
   66SAPC   H7R 5460   4.078   5.010   6.985  2.1881  0.2294 -1.1182
   66SAPC   H7S 5461   3.995   5.089   7.117  0.0884  0.7078 -0.4431
   66SAPC   C28 5462   4.202   5.048   7.155 -0.0551 -0.0205  0.0926
   66SAPC   H8R 5463   4.289   5.003   7.106 -0.7583 -0.0660 -1.1649
   66SAPC   C29 5464   4.210   5.057   7.289  0.7083 -0.2161  0.4712
   66SAPC   H9R 5465   4.305   5.032   7.338  1.7520  2.4477 -0.0734
   66SAPC  C210 5466   4.103   5.128   7.368  0.0064 -0.8724  0.0228
   66SAPC  H10R 5467   4.037   5.184   7.299 -0.5359  0.2187  1.3891
   66SAPC  H10S 5468   4.150   5.206   7.431  1.0833  0.3735 -2.1886
   66SAPC  C211 5469   4.016   5.034   7.454  0.0786 -0.2486  0.2089
   66SAPC  H11R 5470   3.927   4.996   7.402  0.1963  0.0397 -0.2185
   66SAPC  C212 5471   4.045   5.004   7.582 -0.4819 -0.7314  0.5086
   66SAPC  H12R 5472   3.974   4.932   7.625 -1.3773 -1.0263 -1.3798
   66SAPC  C213 5473   4.160   5.063   7.665  0.1192  0.0724 -0.2060
   66SAPC  H13R 5474   4.186   5.163   7.624 -0.8773  0.1700 -0.6351
   66SAPC  H13S 5475   4.251   5.000   7.653 -0.8710 -1.6994  1.1523
   66SAPC  C214 5476   4.112   5.084   7.810 -0.1333  0.3883  0.3682
   66SAPC  H14R 5477   4.007   5.115   7.813 -0.3433  0.1985 -2.4247
   66SAPC  C215 5478   4.187   5.080   7.920 -0.6124 -0.6641  0.0005
   66SAPC  H15R 5479   4.134   5.117   8.008  0.0758 -0.1800  0.2278
   66SAPC  C216 5480   4.335   5.051   7.940  0.4702  0.3234 -0.6677
   66SAPC  H16R 5481   4.388   5.143   7.972 -0.4340  0.6095  0.0433
   66SAPC  H16S 5482   4.386   5.010   7.850 -0.6562 -2.8541  0.0278
   66SAPC  C217 5483   4.343   4.925   8.045 -0.1828 -0.1967 -0.2907
   66SAPC  H17R 5484   4.453   4.919   8.059 -0.3825 -0.9389  1.1422
   66SAPC  H17S 5485   4.300   4.833   7.998 -0.7657 -1.1583  2.0027
   66SAPC  C218 5486   4.282   4.954   8.180 -0.6358 -0.3248 -0.4205
   66SAPC  H18R 5487   4.323   4.876   8.247  0.5831 -0.1696 -0.9638
   66SAPC  H18S 5488   4.173   4.934   8.180 -0.1998 -3.1299 -0.0299
   66SAPC  C219 5489   4.313   5.094   8.244  0.5850  0.3329  0.4256
   66SAPC  H19R 5490   4.280   5.098   8.350  0.7660 -1.2455  0.5705
   66SAPC  H19S 5491   4.255   5.166   8.184 -0.7834 -0.9690  0.1194
   66SAPC  C220 5492   4.459   5.125   8.249  0.1094 -0.5133  0.2302
   66SAPC  H20R 5493   4.477   5.225   8.293  0.7784 -0.8839  0.8206
   66SAPC  H20S 5494   4.504   5.138   8.148  0.7879 -0.9013  0.4795
   66SAPC  H20T 5495   4.528   5.054   8.299  0.9637 -0.0763 -0.3071
   66SAPC   C33 5496   4.767   4.551   6.902 -0.2110  0.2854  0.3814
   66SAPC   H3X 5497   4.870   4.535   6.865 -0.5138  0.2933 -0.5016
   66SAPC   H3Y 5498   4.711   4.456   6.912 -0.0405  0.1781  0.3140
   66SAPC   C34 5499   4.789   4.609   7.043  0.0714 -0.1783 -0.4831
   66SAPC   H4X 5500   4.834   4.710   7.050 -0.9771  0.1661  2.7662
   66SAPC   H4Y 5501   4.851   4.542   7.106 -0.4200 -0.9064 -0.7606
   66SAPC   C35 5502   4.658   4.628   7.124  0.4848 -0.3285  0.1351
   66SAPC   H5X 5503   4.601   4.533   7.131  1.4473 -1.0643 -1.4964
   66SAPC   H5Y 5504   4.578   4.701   7.098  0.8046  0.6614  1.7347
   66SAPC   C36 5505   4.692   4.664   7.268 -0.3615 -0.2158  0.2286
   66SAPC   H6X 5506   4.741   4.763   7.279  1.8842 -1.1251 -0.9293
   66SAPC   H6Y 5507   4.763   4.587   7.305  0.5705  1.1465  1.3545
   66SAPC   C37 5508   4.565   4.660   7.354 -0.2966  0.9848  0.8823
   66SAPC   H7X 5509   4.538   4.554   7.373 -2.7655  1.1387 -1.1600
   66SAPC   H7Y 5510   4.490   4.709   7.288  1.1911  1.1775 -0.7211
   66SAPC   C38 5511   4.565   4.734   7.482 -0.4944  0.0928 -0.3841
   66SAPC   H8X 5512   4.460   4.753   7.512 -0.8826 -2.9215  0.5109
   66SAPC   H8Y 5513   4.611   4.833   7.458  0.5487 -0.4632 -0.7302
   66SAPC   C39 5514   4.634   4.659   7.593  0.1003 -0.4579  0.8938
   66SAPC   H9X 5515   4.740   4.643   7.565  1.0072  5.3306 -0.2964
   66SAPC   H9Y 5516   4.595   4.558   7.619 -0.9017 -0.5425 -0.7788
   66SAPC  C310 5517   4.639   4.734   7.732  0.1728  0.2305 -0.7353
   66SAPC  H10X 5518   4.543   4.729   7.788 -0.0620  1.8215 -0.9569
   66SAPC  H10Y 5519   4.664   4.840   7.711  0.1101  0.4421  0.2317
   66SAPC  C311 5520   4.744   4.667   7.819 -0.9272  0.9973 -0.1862
   66SAPC  H11X 5521   4.847   4.669   7.776 -0.3693  2.4611  1.1123
   66SAPC  H11Y 5522   4.718   4.559   7.822 -0.4377  0.8881  0.3107
   66SAPC  C312 5523   4.765   4.709   7.965  0.5495 -0.4949  0.4769
   66SAPC  H12X 5524   4.849   4.641   7.992  1.3932 -0.9286 -2.7854
   66SAPC  H12Y 5525   4.678   4.695   8.032 -0.7157  1.0313 -0.7707
   66SAPC  C313 5526   4.816   4.852   7.982 -0.3900 -0.9212  0.5760
   66SAPC  H13X 5527   4.749   4.915   7.919  1.8620  0.2309 -0.8094
   66SAPC  H13Y 5528   4.923   4.863   7.952 -0.8050  1.6407 -0.2479
   66SAPC  C314 5529   4.802   4.892   8.127 -0.0122 -0.4683 -0.8809
   66SAPC  H14X 5530   4.852   4.816   8.191 -0.3068 -1.6261 -1.9964
   66SAPC  H14Y 5531   4.693   4.898   8.149  0.4744  2.5781  1.3677
   66SAPC  C315 5532   4.848   5.039   8.151  0.0753  0.3569  0.3880
   66SAPC  H15X 5533   4.808   5.087   8.243 -0.8492  1.9710 -0.8106
   66SAPC  H15Y 5534   4.804   5.089   8.062 -0.0827 -1.2396 -0.4672
   66SAPC  C316 5535   5.001   5.073   8.153  0.2426  0.4593 -0.7303
   66SAPC  H16X 5536   5.042   5.010   8.071  0.5364  1.2575 -1.2141
   66SAPC  H16Y 5537   5.052   5.043   8.247 -0.9273 -0.2553 -0.3075
   66SAPC  C317 5538   5.034   5.220   8.105 -0.0675  0.8882 -0.2062
   66SAPC  H17X 5539   4.976   5.292   8.167  2.8857  3.0701  0.2220
   66SAPC  H17Y 5540   5.001   5.233   8.000 -0.6724  0.3652 -0.0887
   66SAPC  C318 5541   5.182   5.262   8.119  0.1175 -0.0028  0.1205
   66SAPC  H18X 5542   5.199   5.370   8.098  0.9425  0.1519  1.4750
   66SAPC  H18Y 5543   5.248   5.206   8.049  0.0024  0.9063 -0.7326
   66SAPC  H18Z 5544   5.221   5.260   8.223 -1.3175  2.7427  0.7834
   67SAPC     N 5545   0.142   4.037   6.050  0.0321 -0.3443 -0.2001
   67SAPC   C12 5546   0.139   4.185   6.002 -0.6749  0.1531 -0.5567
   67SAPC  H12A 5547   0.083   4.235   6.079 -3.5672 -2.1330 -0.9918
   67SAPC  H12B 5548   0.084   4.192   5.909 -1.5912 -2.5684 -0.3067
   67SAPC   C13 5549  -0.002   3.990   6.048 -0.1944 -0.4272  0.1352
   67SAPC  H13A 5550  -0.045   4.021   5.954 -0.1927 -0.1491  0.2271
   67SAPC  H13B 5551  -0.019   3.883   6.053 -2.6401 -0.0326  1.9394
   67SAPC  H13C 5552  -0.066   4.038   6.120 -0.2686 -0.7767  0.3043
   67SAPC   C14 5553   0.237   3.954   5.963  0.6369 -0.1066 -0.7460
   67SAPC  H14A 5554   0.334   3.996   5.986 -0.7623  2.3253  1.3077
   67SAPC  H14B 5555   0.232   3.851   5.994  0.3093 -0.0887 -0.7450
   67SAPC  H14C 5556   0.212   3.955   5.858 -0.1241  0.2662 -0.5661
   67SAPC   C15 5557   0.193   4.032   6.187  1.0502  0.1468  0.2968
   67SAPC  H15A 5558   0.143   4.098   6.256 -0.2029  0.7346 -1.1251
   67SAPC  H15B 5559   0.195   3.929   6.221 -3.1893 -0.2976 -0.3010
   67SAPC  H15C 5560   0.295   4.066   6.176  1.6329 -2.1698 -3.1191
   67SAPC   C11 5561   0.281   4.247   5.977 -0.1225 -0.0475 -0.1774
   67SAPC  H11A 5562   0.259   4.333   5.911 -3.3384  0.6497  1.6250
   67SAPC  H11B 5563   0.351   4.182   5.919  1.9985  0.8295  1.2631
   67SAPC     P 5564   0.294   4.419   6.170 -0.0547  0.2116  0.0275
   67SAPC   O13 5565   0.363   4.536   6.110  0.0568 -0.4697  0.0170
   67SAPC   O14 5566   0.146   4.420   6.175 -0.3592 -0.4127  0.0303
   67SAPC   O12 5567   0.343   4.286   6.105  0.2004  0.0085 -0.2871
   67SAPC   O11 5568   0.338   4.402   6.324 -0.3499  0.3531  0.6759
   67SAPC    C1 5569   0.434   4.298   6.357 -0.8553  0.5884 -0.6330
   67SAPC    HA 5570   0.409   4.195   6.323 -1.6839  1.1791 -1.8795
   67SAPC    HB 5571   0.533   4.339   6.329 -0.7547 -0.5005 -1.9994
   67SAPC    C2 5572   0.438   4.277   6.509  0.0627  0.5257 -0.2988
   67SAPC    HS 5573   0.520   4.209   6.540  1.1080  1.6809 -0.4468
   67SAPC   O21 5574   0.312   4.231   6.567  0.3925 -0.1603  0.2659
   67SAPC   C21 5575   0.283   4.100   6.557 -0.3820  0.1276 -0.5343
   67SAPC   O22 5576   0.350   4.020   6.492 -0.0147 -0.3146  0.3866
   67SAPC   C22 5577   0.171   4.063   6.664  0.1341 -0.0871  1.1014
   67SAPC   H2R 5578   0.112   4.155   6.687 -0.4305 -0.2791  0.4578
   67SAPC   H2S 5579   0.108   4.000   6.598  3.2555 -0.3094 -1.9364
   67SAPC    C3 5580   0.462   4.417   6.573 -0.0667  0.1958 -0.3447
   67SAPC    HX 5581   0.388   4.484   6.525  0.9832  2.0414  0.5063
   67SAPC    HY 5582   0.565   4.451   6.548 -1.1639  3.6785 -0.5971
   67SAPC   O31 5583   0.454   4.408   6.715 -0.3461  0.3102 -0.2329
   67SAPC   C31 5584   0.442   4.527   6.775 -0.0170 -0.3157 -0.0569
   67SAPC   O32 5585   0.437   4.632   6.714 -0.1447  0.3475 -0.4499
   67SAPC   C32 5586   0.449   4.504   6.921 -0.1725  0.2873 -0.4492
   67SAPC   H2X 5587   0.553   4.466   6.936 -0.5943 -0.7368 -0.0195
   67SAPC   H2Y 5588   0.375   4.427   6.953 -0.7153  0.9989  0.0473
   67SAPC   C23 5589   0.218   3.994   6.790  0.0565  0.8072  0.0500
   67SAPC   H3R 5590   0.278   4.062   6.854 -0.1560  0.2604  0.8493
   67SAPC   H3S 5591   0.289   3.915   6.756  0.4751  0.6823  1.1866
   67SAPC   C24 5592   0.104   3.929   6.866  0.5302  0.2572  0.3093
   67SAPC   H4R 5593   0.052   3.882   6.780 -1.8736 -0.3127  1.9866
   67SAPC   H4S 5594   0.033   4.003   6.908 -0.2992 -0.4560  0.1940
   67SAPC   C25 5595   0.151   3.822   6.964 -0.0372  0.5074 -1.4509
   67SAPC   H5R 5596   0.195   3.726   6.936 -1.4536 -0.6045 -0.0657
   67SAPC   C26 5597   0.138   3.831   7.101 -0.5870 -0.4018 -0.5634
   67SAPC   H6R 5598   0.174   3.751   7.168 -1.8782  0.1409  0.8611
   67SAPC   C27 5599   0.091   3.957   7.171 -0.4273  0.0119 -0.3589
   67SAPC   H7R 5600   0.041   3.925   7.265  1.4069 -1.0135  0.3308
   67SAPC   H7S 5601   0.024   4.022   7.111 -2.0564 -1.6314 -0.4176
   67SAPC   C28 5602   0.215   4.042   7.204  0.5743  0.0600 -0.2098
   67SAPC   H8R 5603   0.235   4.125   7.135 -2.8055  1.1979 -0.0156
   67SAPC   C29 5604   0.292   4.036   7.316  0.0714  0.4904  1.0082
   67SAPC   H9R 5605   0.381   4.101   7.319 -0.1819  0.9973 -1.1562
   67SAPC  C210 5606   0.283   3.941   7.434  0.0490 -0.2170  0.4459
   67SAPC  H10R 5607   0.386   3.912   7.465 -0.9115 -2.4749  1.7134
   67SAPC  H10S 5608   0.232   3.846   7.407 -0.8095 -0.2244  1.9659
   67SAPC  C211 5609   0.207   3.990   7.560 -0.4977 -0.2474  0.2184
   67SAPC  H11R 5610   0.124   4.061   7.548  1.1702  2.5335  3.3450
   67SAPC  C212 5611   0.231   3.957   7.683  0.4646  0.4391 -0.5509
   67SAPC  H12R 5612   0.164   3.993   7.762 -0.9969  0.3305 -1.6948
   67SAPC  C213 5613   0.339   3.881   7.739 -0.6111 -0.0295 -0.2872
   67SAPC  H13R 5614   0.418   3.949   7.779  1.7532 -1.7441 -1.7516
   67SAPC  H13S 5615   0.387   3.815   7.664  3.0511 -0.1383  1.8781
   67SAPC  C214 5616   0.288   3.782   7.840  0.0559  0.5114  1.0214
   67SAPC  H14R 5617   0.241   3.837   7.923  0.4017  0.8820  0.9804
   67SAPC  C215 5618   0.301   3.647   7.848  0.1133 -0.1171 -0.3395
   67SAPC  H15R 5619   0.271   3.605   7.945  2.2740  0.2059  0.5329
   67SAPC  C216 5620   0.366   3.568   7.741  0.3913 -0.4275  0.1309
   67SAPC  H16R 5621   0.471   3.600   7.724 -0.7735  1.9464 -4.1632
   67SAPC  H16S 5622   0.322   3.590   7.641 -0.6628  1.6635  1.0100
   67SAPC  C217 5623   0.368   3.410   7.755  0.2707  0.3963  0.0978
   67SAPC  H17R 5624   0.401   3.367   7.658  1.5328  0.5496  0.4414
   67SAPC  H17S 5625   0.269   3.369   7.784  1.1730 -1.4435  0.7975
   67SAPC  C218 5626   0.476   3.366   7.860 -0.2536  0.3694  0.4773
   67SAPC  H18R 5627   0.432   3.392   7.959 -2.8731  1.3010 -0.8386
   67SAPC  H18S 5628   0.573   3.416   7.842  0.4805 -0.8652  0.9285
   67SAPC  C219 5629   0.497   3.213   7.866 -0.0043  0.5456 -0.9042
   67SAPC  H19R 5630   0.573   3.193   7.788  1.6156 -0.2822  0.7854
   67SAPC  H19S 5631   0.405   3.158   7.835 -0.6199  0.9805  0.0974
   67SAPC  C220 5632   0.549   3.160   7.999  0.5325  0.2830 -0.2142
   67SAPC  H20R 5633   0.574   3.052   7.996 -1.4560 -0.1975 -0.7509
   67SAPC  H20S 5634   0.461   3.167   8.065  0.2380 -1.2359 -0.4025
   67SAPC  H20T 5635   0.626   3.227   8.042 -1.5984  2.0193  1.0934
   67SAPC   C33 5636   0.407   4.626   7.005  0.4407 -0.1975 -1.4950
   67SAPC   H3X 5637   0.299   4.640   6.979 -0.5493  0.4641  2.3831
   67SAPC   H3Y 5638   0.469   4.713   6.976 -0.9227  1.6836  0.8512
   67SAPC   C34 5639   0.431   4.619   7.159  0.1334 -0.5256  0.9439
   67SAPC   H4X 5640   0.429   4.716   7.214  1.4505 -0.6477  1.2613
   67SAPC   H4Y 5641   0.528   4.574   7.188 -0.9060 -1.4828  3.1399
   67SAPC   C35 5642   0.329   4.527   7.236  0.0652  0.6121 -0.1532
   67SAPC   H5X 5643   0.342   4.422   7.200  1.0067  0.3698  0.8319
   67SAPC   H5Y 5644   0.227   4.556   7.205 -0.7485 -0.9571  0.8874
   67SAPC   C36 5645   0.359   4.519   7.382 -0.3282 -0.3469  1.0535
   67SAPC   H6X 5646   0.330   4.616   7.428 -0.8190 -0.1914  0.4313
   67SAPC   H6Y 5647   0.469   4.512   7.394 -0.0627  0.6059 -0.5781
   67SAPC   C37 5648   0.281   4.403   7.442  0.3610 -0.3441  0.3838
   67SAPC   H7X 5649   0.303   4.310   7.386  0.7768  0.1103 -0.2278
   67SAPC   H7Y 5650   0.172   4.427   7.444  0.8170  1.9275  1.1417
   67SAPC   C38 5651   0.316   4.375   7.590  0.1468  0.4782  0.5299
   67SAPC   H8X 5652   0.426   4.363   7.593 -0.0131 -2.3102 -1.2283
   67SAPC   H8Y 5653   0.276   4.275   7.617 -0.3596  0.8034  1.0090
   67SAPC   C39 5654   0.264   4.474   7.692  0.8218  0.3737 -0.3013
   67SAPC   H9X 5655   0.153   4.468   7.692  0.7461  1.5272  0.3372
   67SAPC   H9Y 5656   0.290   4.579   7.667  2.4629  0.3824  1.2246
   67SAPC  C310 5657   0.329   4.445   7.826  0.2044 -0.0613  1.0871
   67SAPC  H10X 5658   0.439   4.451   7.811 -0.1983 -0.9555 -4.5898
   67SAPC  H10Y 5659   0.319   4.338   7.851  1.1070 -0.7911 -1.3400
   67SAPC  C311 5660   0.269   4.518   7.945  0.3115  0.5651 -0.1065
   67SAPC  H11X 5661   0.166   4.485   7.970  0.7917  0.3792  1.8148
   67SAPC  H11Y 5662   0.250   4.625   7.923 -3.1847 -0.2247 -1.5326
   67SAPC  C312 5663   0.361   4.502   8.063 -0.3895 -0.4597  0.3206
   67SAPC  H12X 5664   0.468   4.516   8.037 -0.7080 -0.1509 -0.8814
   67SAPC  H12Y 5665   0.346   4.400   8.105 -2.7857 -0.5131 -0.4970
   67SAPC  C313 5666   0.325   4.600   8.179 -0.2942  0.4945 -0.2434
   67SAPC  H13X 5667   0.219   4.576   8.203 -0.0490  0.2195  0.6011
   67SAPC  H13Y 5668   0.350   4.704   8.147  0.2051  0.1480 -0.9896
   67SAPC  C314 5669   0.395   4.541   8.307 -0.9022 -0.9238  0.1320
   67SAPC  H14X 5670   0.503   4.557   8.289 -0.7499 -0.8065  1.1348
   67SAPC  H14Y 5671   0.373   4.433   8.319 -3.3435 -0.8540 -2.5509
   67SAPC  C315 5672   0.347   4.610   8.431 -0.3558  1.4316  0.2165
   67SAPC  H15X 5673   0.246   4.571   8.453  1.1369 -2.3183  1.3389
   67SAPC  H15Y 5674   0.347   4.717   8.403 -0.3589  0.7977 -2.4911
   67SAPC  C316 5675   0.421   4.578   8.564 -0.6393 -0.0807 -0.6187
   67SAPC  H16X 5676   0.525   4.614   8.549 -0.3174 -0.6234  0.2676
   67SAPC  H16Y 5677   0.427   4.471   8.590  0.8850 -0.6175 -2.9219
   67SAPC  C317 5678   0.355   4.656   8.680 -0.4782  0.3311 -0.3172
   67SAPC  H17X 5679   0.247   4.644   8.657 -0.4400  0.2885 -0.4729
   67SAPC  H17Y 5680   0.386   4.762   8.668  0.2377  0.0911 -0.6265
   67SAPC  C318 5681   0.387   4.600   8.821 -0.2945 -0.1304 -0.3158
   67SAPC  H18X 5682   0.310   4.624   8.898  0.0663  0.4041 -0.1109
   67SAPC  H18Y 5683   0.487   4.632   8.857 -0.1308 -0.5650 -0.3844
   67SAPC  H18Z 5684   0.377   4.490   8.823 -0.7588 -0.1087  2.5621
   68SAPC     N 5685   4.689   4.970   5.866  0.2385 -0.1003  0.2851
   68SAPC   C12 5686   4.777   4.882   5.956 -0.6681 -0.2348  0.1969
   68SAPC  H12A 5687   4.808   4.796   5.899  1.1407  1.6189 -1.7490
   68SAPC  H12B 5688   4.723   4.840   6.040  0.2893 -0.5901  0.6444
   68SAPC   C13 5689   4.765   5.041   5.761 -0.5754  0.0666 -0.0833
   68SAPC  H13A 5690   4.844   5.097   5.809 -1.0124 -1.0092  2.0265
   68SAPC  H13B 5691   4.804   4.972   5.687 -2.2874 -0.1456 -0.8260
   68SAPC  H13C 5692   4.708   5.121   5.716  1.8092  2.4433  0.8495
   68SAPC   C14 5693   4.579   4.882   5.799  0.1204 -0.0486 -0.1971
   68SAPC  H14A 5694   4.531   4.804   5.856 -1.2301 -0.5191 -1.8849
   68SAPC  H14B 5695   4.504   4.944   5.751 -0.9611 -2.4591 -1.8333
   68SAPC  H14C 5696   4.626   4.813   5.731 -0.8831 -0.5901 -0.3750
   68SAPC   C15 5697   4.611   5.065   5.951 -0.1665  0.0234 -0.3092
   68SAPC  H15A 5698   4.553   5.139   5.898 -1.4978  0.6421  1.8986
   68SAPC  H15B 5699   4.550   5.019   6.027  0.7386  0.7345  0.8879
   68SAPC  H15C 5700   4.692   5.117   6.002  0.3456 -0.9970 -0.0599
   68SAPC   C11 5701   4.908   4.948   6.010  0.0218 -0.0684  0.1411
   68SAPC  H11A 5702   4.966   4.981   5.921  0.2118  0.1989  0.3599
   68SAPC  H11B 5703   4.973   4.872   6.058 -0.8929 -0.9765 -0.0254
   68SAPC     P 5704   4.966   5.130   6.190  0.1488  0.5884 -0.1942
   68SAPC   O13 5705   5.051   5.219   6.119  0.1374 -0.2326  0.6713
   68SAPC   O14 5706   4.883   5.191   6.295  0.8089  0.0845 -0.3964
   68SAPC   O12 5707   4.872   5.063   6.088 -0.0930 -0.3258 -0.6361
   68SAPC   O11 5708   5.047   5.005   6.254  0.3766 -0.3979 -0.8535
   68SAPC    C1 5709   4.996   4.911   6.347  0.1264 -0.1364  0.3288
   68SAPC    HA 5710   4.885   4.908   6.350  0.1696 -2.1432  1.7761
   68SAPC    HB 5711   5.031   4.811   6.314  0.1424 -0.6959  1.9245
   68SAPC    C2 5712   5.056   4.936   6.491  0.4429  0.3417 -0.4370
   68SAPC    HS 5713   5.030   5.040   6.518 -1.0679 -0.4572  1.4147
   68SAPC   O21 5714   5.195   4.906   6.498 -0.4893  0.6927  1.0264
   68SAPC   C21 5715   5.283   4.994   6.464 -0.1960 -0.7450  0.4471
   68SAPC   O22 5716   5.250   5.105   6.429 -0.1748  0.1817  0.5034
   68SAPC   C22 5717   5.424   4.927   6.454  0.1287 -0.2063 -0.0859
   68SAPC   H2R 5718   5.414   4.823   6.492 -0.7178 -0.7710 -1.7606
   68SAPC   H2S 5719   5.446   4.924   6.346  0.1881  2.7233 -0.2341
   68SAPC    C3 5720   4.976   4.842   6.592  0.2651 -0.2596  0.5739
   68SAPC    HX 5721   5.010   4.741   6.560  0.3753  0.2241 -0.9087
   68SAPC    HY 5722   4.865   4.843   6.581 -0.1132 -2.8556  2.9599
   68SAPC   O31 5723   5.014   4.869   6.729 -0.0248  0.0007 -0.3994
   68SAPC   C31 5724   4.962   4.987   6.775 -0.3708  0.7865 -0.6152
   68SAPC   O32 5725   4.874   5.053   6.721  0.1031 -0.4237  0.4823
   68SAPC   C32 5726   5.019   5.018   6.914 -0.1638 -1.1374  0.5725
   68SAPC   H2X 5727   5.123   4.980   6.913 -0.0615 -0.8633  1.0228
   68SAPC   H2Y 5728   4.965   4.967   6.996 -0.9502 -0.7459  0.3104
   68SAPC   C23 5729   5.529   5.003   6.539 -0.1360  0.6340  0.4675
   68SAPC   H3R 5730   5.536   5.110   6.511  1.3938  0.0460 -1.6281
   68SAPC   H3S 5731   5.628   4.958   6.515 -0.1676  0.3194  0.9041
   68SAPC   C24 5732   5.509   5.001   6.697 -0.4629  0.2095 -0.2427
   68SAPC   H4R 5733   5.483   4.896   6.721  1.1905 -0.1192  0.2195
   68SAPC   H4S 5734   5.423   5.067   6.721 -1.0689 -0.8338  0.5309
   68SAPC   C25 5735   5.644   5.033   6.759  0.7267  0.3800  0.6948
   68SAPC   H5R 5736   5.727   4.994   6.699 -1.9305 -2.7568 -1.3288
   68SAPC   C26 5737   5.654   5.116   6.862 -0.6724  1.0154  0.0902
   68SAPC   H6R 5738   5.758   5.147   6.882 -0.3177 -1.0538  1.8027
   68SAPC   C27 5739   5.552   5.176   6.942  0.3514 -0.0452 -0.6723
   68SAPC   H7R 5740   5.586   5.155   7.046  1.9437  1.5543 -0.8279
   68SAPC   H7S 5741   5.449   5.137   6.926 -0.0007  1.5490 -2.7304
   68SAPC   C28 5742   5.543   5.325   6.939  0.4774  0.5347  0.3882
   68SAPC   H8R 5743   5.538   5.364   6.836  1.8871  0.0038  0.1001
   68SAPC   C29 5744   5.542   5.413   7.038  0.0629 -0.0279  0.1813
   68SAPC   H9R 5745   5.562   5.519   7.017  2.4354 -0.1403  1.4469
   68SAPC  C210 5746   5.562   5.387   7.185  0.1678  0.1577  0.1353
   68SAPC  H10R 5747   5.527   5.286   7.213  1.5272 -0.2862  0.2823
   68SAPC  H10S 5748   5.498   5.462   7.237  0.6551  0.9786 -0.4236
   68SAPC  C211 5749   5.702   5.394   7.240 -0.5763 -0.0726  0.2068
   68SAPC  H11R 5750   5.767   5.316   7.197 -2.5415 -1.3969 -0.5300
   68SAPC  C212 5751   5.741   5.457   7.354  0.0663 -0.1459 -0.7314
   68SAPC  H12R 5752   5.844   5.452   7.392 -1.2594 -0.8155  3.3373
   68SAPC  C213 5753   5.654   5.548   7.435 -0.4675  0.2355 -0.0137
   68SAPC  H13R 5754   5.592   5.478   7.494  0.3682 -0.6114 -0.1097
   68SAPC  H13S 5755   5.579   5.606   7.377 -1.0002  0.4359  0.8640
   68SAPC  C214 5756   5.712   5.647   7.525  0.1505  0.0197 -0.9743
   68SAPC  H14R 5757   5.762   5.734   7.480  0.0285  2.0899  2.5666
   68SAPC  C215 5758   5.707   5.659   7.658  0.3191 -1.1873  0.1053
   68SAPC  H15R 5759   5.769   5.742   7.696  1.6198 -1.3625 -1.5284
   68SAPC  C216 5760   5.624   5.577   7.756 -0.3793 -0.1459 -0.3791
   68SAPC  H16R 5761   5.665   5.600   7.857  1.4734 -1.3939 -0.8041
   68SAPC  H16S 5762   5.640   5.470   7.731  2.4582 -0.7950  3.3007
   68SAPC  C217 5763   5.469   5.621   7.747 -0.7607  0.2001 -0.6575
   68SAPC  H17R 5764   5.419   5.542   7.805 -0.9773  0.0703 -1.0151
   68SAPC  H17S 5765   5.427   5.626   7.644  1.8111  1.2997 -1.7417
   68SAPC  C218 5766   5.437   5.760   7.798 -0.0437  0.0344 -0.0993
   68SAPC  H18R 5767   5.328   5.776   7.779  0.0482  3.8271  1.6390
   68SAPC  H18S 5768   5.495   5.838   7.745  0.1680 -0.8638 -1.2313
   68SAPC  C219 5769   5.452   5.774   7.948 -0.0556  0.1396 -0.8590
   68SAPC  H19R 5770   5.455   5.883   7.968  0.8760 -0.1792  0.9189
   68SAPC  H19S 5771   5.549   5.727   7.973 -1.2016 -3.1184 -2.0487
   68SAPC  C220 5772   5.340   5.722   8.030 -0.5726  0.1750 -0.5204
   68SAPC  H20R 5773   5.354   5.612   8.032  0.5107  0.3029 -0.5775
   68SAPC  H20S 5774   5.241   5.748   7.988 -0.0416  2.8462 -0.3117
   68SAPC  H20T 5775   5.342   5.749   8.138 -0.8611 -0.9882 -0.2112
   68SAPC   C33 5776   5.008   5.173   6.953  0.1038 -0.2678 -0.1550
   68SAPC   H3X 5777   4.905   5.188   6.993 -0.2280 -0.8823 -0.7569
   68SAPC   H3Y 5778   5.021   5.226   6.856  1.1267 -0.6441 -0.2276
   68SAPC   C34 5779   5.113   5.217   7.063  0.0845  0.4607 -0.6698
   68SAPC   H4X 5780   5.214   5.224   7.017  0.5762 -2.8442 -0.3169
   68SAPC   H4Y 5781   5.111   5.133   7.135  3.0117 -0.3206 -1.3768
   68SAPC   C35 5782   5.078   5.355   7.132  0.1496  0.5214  0.2311
   68SAPC   H5X 5783   4.968   5.367   7.127  0.0315 -0.4545  0.3869
   68SAPC   H5Y 5784   5.112   5.437   7.065  2.5815 -0.3463  0.2959
   68SAPC   C36 5785   5.127   5.364   7.273  0.4301 -0.2360  0.1569
   68SAPC   H6X 5786   5.236   5.372   7.257  0.1084  0.8672 -1.7567
   68SAPC   H6Y 5787   5.114   5.274   7.336 -0.9795 -0.2401 -0.1050
   68SAPC   C37 5788   5.072   5.489   7.346  0.2308 -1.0041 -0.1502
   68SAPC   H7X 5789   4.961   5.490   7.342  0.2583 -0.9738 -1.4014
   68SAPC   H7Y 5790   5.111   5.581   7.297 -0.0974 -0.7860 -0.0029
   68SAPC   C38 5791   5.103   5.511   7.492 -0.8026 -0.1544 -0.5128
   68SAPC   H8X 5792   5.211   5.536   7.497 -0.3179 -2.2337  1.3057
   68SAPC   H8Y 5793   5.086   5.413   7.541 -2.4971  1.0447  1.5129
   68SAPC   C39 5794   5.023   5.623   7.551  0.0947 -0.6967  0.4558
   68SAPC   H9X 5795   4.916   5.611   7.524  0.2888  1.1233 -1.3815
   68SAPC   H9Y 5796   5.059   5.711   7.492 -0.3309 -2.0727 -1.9863
   68SAPC  C310 5797   5.033   5.650   7.705 -0.4153  0.4056 -0.1804
   68SAPC  H10X 5798   4.972   5.741   7.718 -0.3614  0.3556  0.4217
   68SAPC  H10Y 5799   5.136   5.660   7.746 -0.8751 -0.1827  1.1521
   68SAPC  C311 5800   4.966   5.543   7.799  0.8627 -0.1138  0.0151
   68SAPC  H11X 5801   5.017   5.448   7.771 -0.8707 -0.7509 -1.1782
   68SAPC  H11Y 5802   4.862   5.527   7.762  1.0801  2.0602 -1.7253
   68SAPC  C312 5803   4.976   5.545   7.953  0.4338 -0.3229  0.1186
   68SAPC  H12X 5804   5.086   5.546   7.968  0.1418  0.5603  2.5635
   68SAPC  H12Y 5805   4.927   5.462   8.009 -0.1096 -1.1122 -1.4437
   68SAPC  C313 5806   4.918   5.671   8.010  0.4899  0.6195 -0.0728
   68SAPC  H13X 5807   4.812   5.689   7.980 -0.5511 -2.4609  1.4096
   68SAPC  H13Y 5808   4.974   5.753   7.959  1.7493  1.1824  2.0826
   68SAPC  C314 5809   4.928   5.676   8.162 -0.3524 -0.1433  0.1009
   68SAPC  H14X 5810   5.035   5.655   8.183 -0.4484 -1.0044 -0.2295
   68SAPC  H14Y 5811   4.877   5.583   8.196 -1.9859 -1.0836 -4.3184
   68SAPC  C315 5812   4.881   5.810   8.218  0.0262  0.0567 -1.0706
   68SAPC  H15X 5813   4.792   5.850   8.165 -0.2070  1.3094  0.2015
   68SAPC  H15Y 5814   4.951   5.885   8.175 -1.9263  2.4710 -0.2404
   68SAPC  C316 5815   4.882   5.827   8.371  0.1399 -0.9751 -0.2513
   68SAPC  H16X 5816   4.958   5.755   8.408  2.2358  0.3296 -1.7979
   68SAPC  H16Y 5817   4.787   5.788   8.415 -0.5493  2.7893  2.1145
   68SAPC  C317 5818   4.924   5.963   8.426  0.0187 -0.2489  0.2505
   68SAPC  H17X 5819   5.028   5.983   8.390 -0.0041  0.5335  0.6043
   68SAPC  H17Y 5820   4.945   5.975   8.534  0.7235  0.5674  0.0375
   68SAPC  C318 5821   4.822   6.069   8.379 -0.1333  0.3801 -0.3022
   68SAPC  H18X 5822   4.853   6.165   8.426 -1.4247  0.6681  0.0146
   68SAPC  H18Y 5823   4.727   6.026   8.416  0.3203 -1.3493 -1.0367
   68SAPC  H18Z 5824   4.825   6.079   8.268  2.4032 -2.7539 -0.6655
   69SLPC     N 5825   1.045   1.755  11.364 -0.4209 -0.1469  0.0359
   69SLPC   C13 5826   1.161   1.671  11.413 -0.1781 -0.1061  0.8835
   69SLPC  H13A 5827   1.255   1.685  11.362  1.3884  1.2472  3.9061
   69SLPC  H13B 5828   1.194   1.695  11.513  1.6321  0.0603  0.2732
   69SLPC  H13C 5829   1.135   1.566  11.412  2.6127 -0.8509  0.7075
   69SLPC   C14 5830   1.093   1.899  11.335 -0.3787  0.9556 -0.5108
   69SLPC  H14A 5831   1.014   1.965  11.299 -1.2758 -1.2280 -2.8065
   69SLPC  H14B 5832   1.135   1.944  11.423  1.7958  1.0425 -1.5287
   69SLPC  H14C 5833   1.164   1.885  11.255  1.2979 -2.1780  1.3483
   69SLPC   C15 5834   0.936   1.756  11.469  0.0920  0.3567  0.2769
   69SLPC  H15A 5835   0.853   1.811  11.428 -0.9518 -0.7417  0.8403
   69SLPC  H15B 5836   0.909   1.652  11.481  0.8126  0.2081  0.7125
   69SLPC  H15C 5837   0.960   1.799  11.565  0.8063  0.0580  0.2410
   69SLPC   C12 5838   0.990   1.698  11.231 -0.1102  0.0452 -0.0136
   69SLPC  H12A 5839   1.069   1.717  11.159 -1.4219  1.3616 -1.1670
   69SLPC  H12B 5840   0.904   1.754  11.198  0.4497  0.1088 -1.4437
   69SLPC   C11 5841   0.952   1.544  11.229 -0.2108 -0.5670  0.6666
   69SLPC  H11A 5842   0.896   1.525  11.135 -0.7730 -0.1942  0.9199
   69SLPC  H11B 5843   0.880   1.513  11.308 -1.3129 -1.7797 -0.7509
   69SLPC     P 5844   1.171   1.428  11.124 -0.0903 -0.0972 -0.1122
   69SLPC   O13 5845   1.309   1.474  11.153  0.2413 -0.3024  0.1546
   69SLPC   O14 5846   1.148   1.282  11.104  0.1006  0.3173 -0.1875
   69SLPC   O12 5847   1.075   1.468  11.238  0.0397 -0.0670  0.1657
   69SLPC   O11 5848   1.129   1.501  10.993 -0.2195 -0.3153  0.5024
   69SLPC    C1 5849   1.071   1.444  10.878 -0.6109  0.8882 -0.5820
   69SLPC    HA 5850   0.992   1.373  10.908  0.3709  0.3508  0.8437
   69SLPC    HB 5851   1.013   1.526  10.829 -2.8204  0.1909  0.7338
   69SLPC    C2 5852   1.187   1.395  10.783  0.0106 -0.6241 -0.0226
   69SLPC    HS 5853   1.213   1.293  10.819 -1.0271 -0.6358  0.7119
   69SLPC   O21 5854   1.308   1.479  10.798  0.5219  0.0689  0.7359
   69SLPC   C21 5855   1.296   1.602  10.747 -0.6280 -0.3172 -0.6025
   69SLPC   O22 5856   1.196   1.664  10.713 -1.3471 -0.1811  0.2235
   69SLPC   C22 5857   1.433   1.661  10.733 -0.8356 -0.5931  0.1175
   69SLPC   H2R 5858   1.426   1.771  10.720 -1.1619 -0.5513  0.6236
   69SLPC   H2S 5859   1.488   1.633  10.825  0.6391  1.9740  0.1326
   69SLPC    C3 5860   1.139   1.369  10.629  0.0490 -0.4651 -0.1397
   69SLPC    HX 5861   1.092   1.462  10.592  1.0831  0.6797  1.2745
   69SLPC    HY 5862   1.066   1.286  10.622  0.8875 -1.2230 -0.0399
   69SLPC   O31 5863   1.252   1.345  10.530 -0.2606 -0.5126  0.3168
   69SLPC   C31 5864   1.294   1.218  10.527  0.1935  0.1789  0.5156
   69SLPC   O32 5865   1.242   1.130  10.581  0.0813  0.1711 -0.1903
   69SLPC   C32 5866   1.428   1.211  10.460 -0.0589  0.0989  0.0614
   69SLPC   H2X 5867   1.487   1.121  10.490 -0.0878  0.1941  0.4101
   69SLPC   H2Y 5868   1.499   1.291  10.489  2.2302 -1.5137 -0.7710
   69SLPC   C23 5869   1.513   1.602  10.610  0.7537 -0.2421 -0.0590
   69SLPC   H3R 5870   1.472   1.501  10.591  0.9127 -0.3800  0.3224
   69SLPC   H3S 5871   1.619   1.591  10.642  1.1620  0.0655 -1.2431
   69SLPC   C24 5872   1.525   1.684  10.479 -0.2196  0.3198 -0.3204
   69SLPC   H4R 5873   1.605   1.639  10.417 -1.8960  0.8713 -3.0800
   69SLPC   H4S 5874   1.567   1.786  10.497 -2.3748  1.6346 -2.1605
   69SLPC   C25 5875   1.400   1.695  10.395  0.1516 -0.0539 -0.1429
   69SLPC   H5R 5876   1.320   1.735  10.460  0.7276 -1.0398  1.2400
   69SLPC   H5S 5877   1.361   1.593  10.375 -0.1309 -0.3225  1.5966
   69SLPC   C26 5878   1.401   1.776  10.264 -0.7546  0.0430 -0.6500
   69SLPC   H6R 5879   1.499   1.746  10.221 -1.4126 -2.4296 -0.5661
   69SLPC   H6S 5880   1.414   1.883  10.292  0.6942  0.2909 -2.1426
   69SLPC   C27 5881   1.286   1.747  10.165 -0.8050 -0.0471  0.3758
   69SLPC   H7R 5882   1.307   1.808  10.074  1.9046 -2.6736 -0.9444
   69SLPC   H7S 5883   1.186   1.781  10.200 -0.3828  0.9564  0.6358
   69SLPC   C28 5884   1.266   1.600  10.120  0.1145 -0.6190 -0.0009
   69SLPC   H8R 5885   1.194   1.602  10.035 -0.7561 -0.6899  0.7157
   69SLPC   H8S 5886   1.206   1.549  10.198 -2.4685 -1.1783 -2.2089
   69SLPC   C29 5887   1.389   1.521  10.073 -0.0251  0.2507  0.2755
   69SLPC   H9R 5888   1.455   1.474  10.147  2.2708  1.1274 -1.0954
   69SLPC  C210 5889   1.436   1.511   9.944 -0.0881 -0.0050  0.5205
   69SLPC  H10R 5890   1.521   1.448   9.914  0.0548  1.3050 -2.1307
   69SLPC  C211 5891   1.381   1.568   9.816 -0.2573  0.3484  0.7766
   69SLPC  H11R 5892   1.270   1.556   9.816 -0.1980 -0.2642 -0.2217
   69SLPC  H11S 5893   1.416   1.514   9.726 -1.7961  0.9220 -0.2217
   69SLPC  C212 5894   1.430   1.709   9.799 -0.5281  0.1340 -0.9476
   69SLPC  H12R 5895   1.531   1.732   9.837 -1.6986  3.4909  0.5782
   69SLPC  C213 5896   1.367   1.806   9.732  0.8006  0.3880 -0.3038
   69SLPC  H13R 5897   1.403   1.910   9.730  0.1199  0.6324 -0.2193
   69SLPC  C214 5898   1.236   1.783   9.659  0.7992 -0.2526  0.3013
   69SLPC  H14R 5899   1.167   1.862   9.695  1.6012  0.8581 -0.5339
   69SLPC  H14S 5900   1.191   1.682   9.668 -0.2628 -0.2575 -3.3885
   69SLPC  C215 5901   1.248   1.792   9.506  0.6616  0.8503  0.1627
   69SLPC  H15R 5902   1.317   1.874   9.479  1.1567  0.2575 -0.4253
   69SLPC  H15S 5903   1.152   1.813   9.454 -0.1722 -1.1806  0.7579
   69SLPC  C216 5904   1.319   1.667   9.438 -0.1409  0.0880  0.8091
   69SLPC  H16R 5905   1.260   1.580   9.475 -3.4657  0.5676 -2.8042
   69SLPC  H16S 5906   1.422   1.672   9.479  0.2911  1.1998 -0.3375
   69SLPC  C217 5907   1.302   1.679   9.284 -0.8448  1.1029 -0.2145
   69SLPC  H17R 5908   1.327   1.780   9.244 -1.5813  0.3367 -2.8578
   69SLPC  H17S 5909   1.192   1.682   9.266 -0.6115  1.5357 -1.7091
   69SLPC  C218 5910   1.387   1.584   9.198 -0.0363 -0.2908  0.3014
   69SLPC  H18R 5911   1.495   1.610   9.200  0.1897 -1.1187 -0.5567
   69SLPC  H18S 5912   1.348   1.572   9.094  2.5773 -3.7039 -0.4902
   69SLPC  H18T 5913   1.380   1.483   9.243  0.6275  0.4696  2.2181
   69SLPC   C33 5914   1.414   1.211  10.302  0.2128  0.7218 -0.1541
   69SLPC   H3X 5915   1.506   1.245  10.250  0.0760  0.1075 -0.8177
   69SLPC   H3Y 5916   1.331   1.279  10.272 -1.5775 -1.7267 -1.1349
   69SLPC   C34 5917   1.379   1.066  10.250 -0.0134 -0.1962 -0.1495
   69SLPC   H4X 5918   1.287   1.036  10.304 -1.1122  0.5962 -1.5178
   69SLPC   H4Y 5919   1.451   0.997  10.300 -0.5855  0.9856  2.4704
   69SLPC   C35 5920   1.369   1.066  10.099  0.4363 -0.4558  0.5807
   69SLPC   H5X 5921   1.465   1.052  10.043  1.4583  1.1697  1.8333
   69SLPC   H5Y 5922   1.325   1.163  10.068  1.1606 -0.2479  0.1773
   69SLPC   C36 5923   1.274   0.954  10.053  0.2301  0.0222 -0.0012
   69SLPC   H6X 5924   1.179   0.975  10.108  1.5630 -2.2325  3.4810
   69SLPC   H6Y 5925   1.312   0.851  10.068  2.8497  0.5271 -2.4883
   69SLPC   C37 5926   1.249   0.967   9.904  0.1624 -0.8550 -0.0360
   69SLPC   H7X 5927   1.347   0.961   9.853  0.0327  1.6979 -0.7416
   69SLPC   H7Y 5928   1.202   1.065   9.883  0.4891 -0.6307  0.2721
   69SLPC   C38 5929   1.163   0.855   9.841  0.7889  0.1702  0.6993
   69SLPC   H8X 5930   1.070   0.849   9.901  1.4266  1.4641  1.9043
   69SLPC   H8Y 5931   1.210   0.755   9.851  1.2396  0.3501  0.4238
   69SLPC   C39 5932   1.126   0.875   9.697 -0.0226  1.0424  0.1013
   69SLPC   H9X 5933   1.206   0.880   9.621 -2.1402  2.6318 -2.1937
   69SLPC   H9Y 5934   1.074   0.972   9.684  1.1152  1.5368 -0.8994
   69SLPC  C310 5935   1.011   0.772   9.647  0.1875  0.3799 -0.3935
   69SLPC  H10X 5936   0.927   0.768   9.720  0.0118 -0.1350 -0.6171
   69SLPC  H10Y 5937   1.066   0.675   9.649  0.6699  0.6492 -0.4203
   69SLPC  C311 5938   0.952   0.788   9.511  0.3550 -0.0087  0.4926
   69SLPC  H11X 5939   0.902   0.885   9.489  1.5734  0.1400 -1.9727
   69SLPC  H11Y 5940   0.883   0.703   9.490  1.4999 -0.7593 -0.3829
   69SLPC  C312 5941   1.065   0.760   9.403 -0.4376 -0.7809  1.2705
   69SLPC  H12X 5942   1.166   0.780   9.446  1.5872 -1.9538 -2.4518
   69SLPC  H12Y 5943   1.057   0.849   9.336  3.6534 -1.0705  0.0976
   69SLPC  C313 5944   1.053   0.630   9.339  0.5495  0.4295 -0.7300
   69SLPC  H13X 5945   0.950   0.632   9.296  1.4100  2.0079 -2.9367
   69SLPC  H13Y 5946   1.065   0.549   9.413  1.8987  2.2239  1.1260
   69SLPC  C314 5947   1.161   0.599   9.231 -0.4835 -0.3350 -0.4958
   69SLPC  H14X 5948   1.140   0.504   9.177 -2.9393  0.1732 -0.5613
   69SLPC  H14Y 5949   1.259   0.583   9.280  0.3187  1.4299 -1.4421
   69SLPC  C315 5950   1.173   0.718   9.132  0.9852 -0.1312  0.1689
   69SLPC  H15X 5951   1.226   0.675   9.044 -0.3865  1.8951 -1.7537
   69SLPC  H15Y 5952   1.241   0.799   9.166  2.6502 -0.9210 -1.1597
   69SLPC  C316 5953   1.035   0.756   9.067 -0.4521  0.3932  0.2141
   69SLPC  H16X 5954   0.962   0.777   9.148 -0.0528  0.6296  0.5182
   69SLPC  H16Y 5955   0.999   0.653   9.045 -1.9740  0.8374  0.5385
   69SLPC  C317 5956   1.038   0.842   8.948  0.4367 -0.0325 -0.0975
   69SLPC  H17X 5957   1.092   0.933   8.981  0.7435 -0.8415  1.7016
   69SLPC  H17Y 5958   0.935   0.875   8.922 -1.3776 -2.8676  2.7606
   69SLPC  C318 5959   1.102   0.775   8.828  0.5935  0.1161 -0.1772
   69SLPC  H18X 5960   1.210   0.751   8.840  0.8905  1.9521  1.4093
   69SLPC  H18Y 5961   1.088   0.834   8.735  1.7324 -0.3834 -0.6824
   69SLPC  H18Z 5962   1.043   0.683   8.808 -1.5634  0.9619  1.8344
   70SLPC     N 5963   1.295   5.097  11.112  0.3706 -0.2095  0.2857
   70SLPC   C13 5964   1.436   5.066  11.147 -0.0078 -0.0995 -0.1358
   70SLPC  H13A 5965   1.502   5.152  11.138 -1.5515  1.2324  0.7867
   70SLPC  H13B 5966   1.448   5.039  11.251 -1.0953 -1.0102 -0.2315
   70SLPC  H13C 5967   1.464   4.971  11.105  1.0052 -0.3005  0.9329
   70SLPC   C14 5968   1.273   5.103  10.971 -0.0983 -0.0630  0.2575
   70SLPC  H14A 5969   1.185   5.162  10.948  2.0377  2.9210 -0.9704
   70SLPC  H14B 5970   1.355   5.160  10.930 -0.9645  0.5711 -0.6576
   70SLPC  H14C 5971   1.289   5.006  10.926  0.9555 -0.8086  2.1467
   70SLPC   C15 5972   1.257   5.229  11.183  0.0532 -0.0783 -0.3978
   70SLPC  H15A 5973   1.153   5.257  11.190  0.1278  0.5188 -1.4278
   70SLPC  H15B 5974   1.283   5.230  11.288  0.1711 -0.6693 -0.4200
   70SLPC  H15C 5975   1.315   5.308  11.137 -2.7507  0.7797 -2.7810
   70SLPC   C12 5976   1.195   4.992  11.161 -0.3885 -0.0121  0.6478
   70SLPC  H12A 5977   1.096   5.010  11.123  0.5437  1.3269 -1.3377
   70SLPC  H12B 5978   1.185   4.999  11.268 -0.1114  2.4165  0.5650
   70SLPC   C11 5979   1.215   4.841  11.124  0.5814 -0.0483 -0.5532
   70SLPC  H11A 5980   1.159   4.775  11.194  1.1342 -0.3123 -0.3608
   70SLPC  H11B 5981   1.324   4.826  11.134  0.9291  2.5265  0.4113
   70SLPC     P 5982   1.027   4.823  10.946 -0.2692 -0.3111 -0.0388
   70SLPC   O13 5983   0.985   4.682  10.942 -0.1912 -0.0538  0.7686
   70SLPC   O14 5984   0.946   4.916  11.034  0.0343 -0.1465  0.5422
   70SLPC   O12 5985   1.176   4.822  10.987 -0.4978  0.3689  0.2561
   70SLPC   O11 5986   1.033   4.876  10.797  0.3304 -0.0518  0.3183
   70SLPC    C1 5987   1.134   4.833  10.708  0.0431 -0.0960 -0.0532
   70SLPC    HA 5988   1.225   4.894  10.725  1.0512 -1.3894 -0.6350
   70SLPC    HB 5989   1.165   4.727  10.722 -2.4106 -1.4725 -3.5191
   70SLPC    C2 5990   1.099   4.859  10.555 -0.6261  0.2638 -0.1368
   70SLPC    HS 5991   1.191   4.848  10.495  1.2794 -0.5153  2.7296
   70SLPC   O21 5992   1.054   4.997  10.541  0.2127  0.3984  0.6561
   70SLPC   C21 5993   1.142   5.091  10.538 -0.1888  0.4766 -0.1710
   70SLPC   O22 5994   1.264   5.076  10.540 -0.4606 -0.3285  0.0649
   70SLPC   C22 5995   1.075   5.228  10.519  0.2194 -0.2111 -0.2341
   70SLPC   H2R 5996   0.966   5.232  10.540  0.2773  2.7408  0.0341
   70SLPC   H2S 5997   1.122   5.288  10.601 -0.3523 -2.4053  1.8060
   70SLPC    C3 5998   0.979   4.772  10.511  0.9083  0.4517 -0.0720
   70SLPC    HX 5999   0.894   4.801  10.575 -0.9520  0.4772 -2.4324
   70SLPC    HY 6000   0.988   4.664  10.534  0.0487  0.1399 -1.1021
   70SLPC   O31 6001   0.942   4.792  10.372  0.4665  0.0251  0.1516
   70SLPC   C31 6002   1.019   4.708  10.298  0.0815 -0.6043  0.4501
   70SLPC   O32 6003   1.101   4.627  10.344 -0.4248 -0.4619 -0.5758
   70SLPC   C32 6004   0.980   4.726  10.153 -0.5799 -0.2766 -0.4036
   70SLPC   H2X 6005   1.003   4.831  10.123 -3.7328  0.8445  0.7519
   70SLPC   H2Y 6006   0.872   4.708  10.136 -0.6588 -0.4757  0.3000
   70SLPC   C23 6007   1.117   5.292  10.384  0.9661 -0.3705 -0.6984
   70SLPC   H3R 6008   1.225   5.311  10.366  0.7660  0.5442 -0.9718
   70SLPC   H3S 6009   1.062   5.388  10.381  1.3305 -0.1255  0.0920
   70SLPC   C24 6010   1.075   5.202  10.273  0.3262  0.3488 -0.1537
   70SLPC   H4R 6011   0.964   5.199  10.276  0.0729  0.9936 -3.9123
   70SLPC   H4S 6012   1.127   5.106  10.293  0.4769  0.8688  2.2092
   70SLPC   C25 6013   1.111   5.243  10.129 -0.3866 -0.4135 -1.0671
   70SLPC   H5R 6014   1.088   5.158  10.061 -1.1506  0.6716 -2.2071
   70SLPC   H5S 6015   1.219   5.268  10.131 -0.7686  1.4579 -1.2259
   70SLPC   C26 6016   1.027   5.366  10.074  0.4261  1.1269  0.4653
   70SLPC   H6R 6017   1.050   5.455  10.135  2.3906  1.0874 -0.1626
   70SLPC   H6S 6018   0.921   5.337  10.090  0.3149  0.3689 -1.4029
   70SLPC   C27 6019   1.057   5.389   9.930 -0.2868  0.6271 -0.1443
   70SLPC   H7R 6020   1.061   5.293   9.874 -1.8013  0.9713 -0.9082
   70SLPC   H7S 6021   1.158   5.432   9.916 -0.6435  2.6830  2.7455
   70SLPC   C28 6022   0.955   5.481   9.865 -0.4010  0.1031 -0.3095
   70SLPC   H8R 6023   0.967   5.575   9.922 -0.3907 -1.9236  3.2719
   70SLPC   H8S 6024   0.856   5.442   9.898  0.5804 -0.0325  2.7615
   70SLPC   C29 6025   0.972   5.496   9.716 -0.0875 -0.7050 -0.7318
   70SLPC   H9R 6026   0.954   5.409   9.651  2.0736 -2.4185  0.8359
   70SLPC  C210 6027   1.014   5.607   9.659  0.4318  0.1102  0.1846
   70SLPC  H10R 6028   1.022   5.620   9.550  1.2655  1.2087  0.3556
   70SLPC  C211 6029   1.052   5.737   9.728  0.5508 -0.1993  0.4924
   70SLPC  H11R 6030   1.143   5.775   9.676  0.1084  0.9748  0.5532
   70SLPC  H11S 6031   1.082   5.722   9.834 -0.4425  0.5125  0.8902
   70SLPC  C212 6032   0.948   5.841   9.738  0.1374  1.1133  0.3244
   70SLPC  H12R 6033   0.855   5.801   9.780  0.0206  1.2775  0.2238
   70SLPC  C213 6034   0.957   5.971   9.715  0.1095  0.2550  0.1439
   70SLPC  H13R 6035   0.864   6.031   9.713  0.0940  0.2138 -1.8582
   70SLPC  C214 6036   1.074   6.034   9.641 -0.1545 -0.3633  0.2237
   70SLPC  H14R 6037   1.165   5.974   9.663  0.3804 -0.3748 -1.8559
   70SLPC  H14S 6038   1.098   6.139   9.668 -0.2627 -0.5480  1.0644
   70SLPC  C215 6039   1.052   6.024   9.487 -0.4705  0.1637 -0.2944
   70SLPC  H15R 6040   0.958   6.075   9.455  0.2659  0.6333 -1.7883
   70SLPC  H15S 6041   1.036   5.916   9.464 -0.8813  0.2825 -0.5659
   70SLPC  C216 6042   1.173   6.060   9.407 -0.3779  0.2509 -0.3219
   70SLPC  H16R 6043   1.201   6.163   9.434 -4.6204  1.3509  0.6683
   70SLPC  H16S 6044   1.161   6.068   9.296  0.5846 -0.8665 -0.5283
   70SLPC  C217 6045   1.304   5.972   9.437  0.0129  0.7001 -0.0571
   70SLPC  H17R 6046   1.265   5.869   9.450  1.3386  0.0593 -0.9952
   70SLPC  H17S 6047   1.351   6.012   9.530 -1.7864  4.1753 -0.4776
   70SLPC  C218 6048   1.415   5.980   9.329 -0.5676 -0.2483  0.3314
   70SLPC  H18R 6049   1.383   5.946   9.229  2.1000  0.6639 -0.9321
   70SLPC  H18S 6050   1.512   5.932   9.353  1.2746  0.7542 -4.0870
   70SLPC  H18T 6051   1.430   6.088   9.303  0.0088 -0.5002 -0.4302
   70SLPC   C33 6052   1.054   4.624  10.055 -0.0696 -0.0800  0.4574
   70SLPC   H3X 6053   1.006   4.524  10.063 -0.3751  0.0262  0.0123
   70SLPC   H3Y 6054   1.159   4.627  10.092 -0.9945  0.6504  3.2271
   70SLPC   C34 6055   1.045   4.673   9.911 -0.7266  0.2005  0.3343
   70SLPC   H4X 6056   1.102   4.765   9.888 -0.3421 -0.3548 -1.0560
   70SLPC   H4Y 6057   0.937   4.694   9.904 -0.8798 -0.4708  0.5726
   70SLPC   C35 6058   1.100   4.570   9.816  0.2420  0.7801  0.7198
   70SLPC   H5X 6059   1.040   4.477   9.819 -0.6202  1.0639 -2.7185
   70SLPC   H5Y 6060   1.205   4.540   9.836  0.8748  0.7172 -2.2218
   70SLPC   C36 6061   1.093   4.621   9.668  0.3389 -0.5807  0.3715
   70SLPC   H6X 6062   1.188   4.625   9.610  0.7780 -0.8273  1.0496
   70SLPC   H6Y 6063   1.037   4.716   9.668 -0.0417 -0.7762  2.2315
   70SLPC   C37 6064   0.990   4.528   9.593 -0.3001  0.3343 -0.0225
   70SLPC   H7X 6065   0.896   4.541   9.650  0.4108  0.9849  1.0325
   70SLPC   H7Y 6066   1.012   4.420   9.612 -0.0961  0.7960  2.8925
   70SLPC   C38 6067   0.967   4.552   9.442 -0.8583 -0.0308 -0.8303
   70SLPC   H8X 6068   0.885   4.485   9.406 -1.0563 -2.0411  2.8390
   70SLPC   H8Y 6069   1.058   4.506   9.400  0.2173  0.5820  0.7452
   70SLPC   C39 6070   0.959   4.696   9.394 -0.0212  0.3652 -0.3045
   70SLPC   H9X 6071   1.052   4.753   9.417 -0.9368  1.1003  1.9230
   70SLPC   H9Y 6072   0.875   4.745   9.449  1.3749  0.2504  2.0695
   70SLPC  C310 6073   0.941   4.691   9.242 -0.0316  0.3887 -0.2686
   70SLPC  H10X 6074   0.863   4.614   9.226  1.3319 -1.3397  0.9740
   70SLPC  H10Y 6075   1.037   4.653   9.200 -2.3921 -2.5553 -3.5928
   70SLPC  C311 6076   0.912   4.826   9.164  0.0864  0.3611 -0.5634
   70SLPC  H11X 6077   0.997   4.898   9.166 -1.6214  2.5126  1.1293
   70SLPC  H11Y 6078   0.831   4.868   9.227  0.8693 -1.6697  1.9741
   70SLPC  C312 6079   0.854   4.820   9.023 -0.0484 -0.1521 -0.1716
   70SLPC  H12X 6080   0.750   4.785   9.039 -0.3992  1.1746  0.6270
   70SLPC  H12Y 6081   0.912   4.751   8.958 -0.6721 -0.8865  0.0475
   70SLPC  C313 6082   0.859   4.953   8.940  0.8686  0.6305 -0.4596
   70SLPC  H13X 6083   0.966   4.982   8.929  1.8156 -2.1205  0.5858
   70SLPC  H13Y 6084   0.813   5.040   8.992 -2.9948 -1.8709  0.6726
   70SLPC  C314 6085   0.790   4.920   8.813  0.1585  1.0205 -0.5360
   70SLPC  H14X 6086   0.689   4.875   8.828 -0.7402  3.3793  1.2514
   70SLPC  H14Y 6087   0.856   4.855   8.753  1.9962  1.6767  0.6987
   70SLPC  C315 6088   0.757   5.039   8.723  0.0045  0.9029  0.2688
   70SLPC  H15X 6089   0.855   5.076   8.683  1.0704 -0.4584  1.5071
   70SLPC  H15Y 6090   0.708   5.117   8.785 -0.7705  0.8446 -0.2644
   70SLPC  C316 6091   0.655   5.011   8.607  0.0837  0.1757  0.1985
   70SLPC  H16X 6092   0.639   5.104   8.549 -1.1066 -0.0815  0.0947
   70SLPC  H16Y 6093   0.563   4.974   8.656 -0.1777 -0.4986 -0.7763
   70SLPC  C317 6094   0.713   4.901   8.512  1.0700  0.3345 -0.2659
   70SLPC  H17X 6095   0.685   4.804   8.560 -1.1349  0.9664 -0.1395
   70SLPC  H17Y 6096   0.824   4.896   8.509  1.0300 -1.8266  0.2934
   70SLPC  C318 6097   0.659   4.913   8.370  0.1768  0.3774 -0.0112
   70SLPC  H18X 6098   0.624   4.812   8.340 -1.4724  1.5475 -2.4406
   70SLPC  H18Y 6099   0.723   4.960   8.291 -0.4614  2.7084  0.7850
   70SLPC  H18Z 6100   0.564   4.970   8.373  0.5345  1.0038 -0.2847
   71SLPC     N 6101   1.220   3.395  10.772  0.6889 -0.0130  0.2580
   71SLPC   C13 6102   1.277   3.457  10.892  0.1027 -0.1201  0.3773
   71SLPC  H13A 6103   1.370   3.506  10.868 -0.7899  2.0470  1.1499
   71SLPC  H13B 6104   1.208   3.521  10.944 -0.7159 -0.3357 -0.4121
   71SLPC  H13C 6105   1.286   3.377  10.964 -0.2125 -0.1828  0.3493
   71SLPC   C14 6106   1.084   3.337  10.811  0.5394  0.5942  0.2567
   71SLPC  H14A 6107   1.024   3.297  10.731  0.9491  0.8931 -0.2013
   71SLPC  H14B 6108   1.113   3.255  10.875  0.3913  0.8543  0.6582
   71SLPC  H14C 6109   1.017   3.395  10.873 -3.1440 -2.3775 -0.6118
   71SLPC   C15 6110   1.309   3.277  10.739 -0.2274 -0.1307  0.2369
   71SLPC  H15A 6111   1.404   3.318  10.709 -0.4581  2.3313  2.4414
   71SLPC  H15B 6112   1.302   3.194  10.808  1.3800 -0.4332  0.0860
   71SLPC  H15C 6113   1.260   3.233  10.654  2.5031 -1.0028 -1.0159
   71SLPC   C12 6114   1.205   3.493  10.653  0.1114  0.5695 -0.5890
   71SLPC  H12A 6115   1.147   3.579  10.683 -1.6469 -1.4369  2.2531
   71SLPC  H12B 6116   1.146   3.439  10.581 -1.9043  0.6127  0.9519
   71SLPC   C11 6117   1.337   3.540  10.575 -0.3271 -0.4939 -0.1016
   71SLPC  H11A 6118   1.303   3.611  10.497  1.7989  0.0658 -0.5610
   71SLPC  H11B 6119   1.390   3.453  10.532  0.7635  0.6480 -1.1409
   71SLPC     P 6120   1.581   3.583  10.671  0.1266  0.5163 -0.2255
   71SLPC   O13 6121   1.637   3.682  10.763 -0.1810  0.3794  0.5247
   71SLPC   O14 6122   1.589   3.443  10.713 -0.1578 -0.1575  0.4659
   71SLPC   O12 6123   1.425   3.612  10.657 -0.8308 -0.5535  0.3683
   71SLPC   O11 6124   1.636   3.590  10.528 -0.2088 -0.3389  0.2700
   71SLPC    C1 6125   1.651   3.725  10.463  0.4118 -0.9508  0.2351
   71SLPC    HA 6126   1.594   3.807  10.511 -1.2195 -1.4349 -0.8232
   71SLPC    HB 6127   1.757   3.759  10.473 -0.0221  1.3857 -2.0784
   71SLPC    C2 6128   1.611   3.721  10.314 -0.0207  0.1225  0.7371
   71SLPC    HS 6129   1.500   3.724  10.322 -0.1435  1.9897 -0.9520
   71SLPC   O21 6130   1.655   3.603  10.241  0.4313  0.1376  0.0149
   71SLPC   C21 6131   1.783   3.582  10.226 -0.0541  0.0564 -0.3125
   71SLPC   O22 6132   1.875   3.641  10.288  0.4639 -0.3330 -0.1027
   71SLPC   C22 6133   1.809   3.475  10.118 -1.4762 -0.3347 -0.0507
   71SLPC   H2R 6134   1.920   3.469  10.129 -1.5810  0.3448  1.6458
   71SLPC   H2S 6135   1.756   3.380  10.141  0.3783 -0.9800  1.9573
   71SLPC    C3 6136   1.651   3.850  10.233  0.4530 -0.3289  0.5426
   71SLPC    HX 6137   1.762   3.850  10.222  0.4371  0.9628  0.1429
   71SLPC    HY 6138   1.629   3.936  10.300 -0.7625  0.7147 -1.1047
   71SLPC   O31 6139   1.595   3.865  10.098 -0.0576 -0.7527 -0.2698
   71SLPC   C31 6140   1.471   3.909  10.108  0.3763 -0.3144  0.7401
   71SLPC   O32 6141   1.411   3.950  10.208 -0.1696 -0.4105  0.2399
   71SLPC   C32 6142   1.408   3.899   9.970  0.5671  0.3738  0.1624
   71SLPC   H2X 6143   1.384   3.790   9.961 -1.2872  0.8606 -1.9403
   71SLPC   H2Y 6144   1.479   3.944   9.897  2.6510 -0.5190  1.5494
   71SLPC   C23 6145   1.756   3.519   9.986 -0.6278 -0.2328  0.6608
   71SLPC   H3R 6146   1.645   3.517   9.975 -0.5672 -4.1082 -0.7866
   71SLPC   H3S 6147   1.788   3.428   9.931 -0.4974 -0.4298  1.0577
   71SLPC   C24 6148   1.822   3.640   9.922 -0.2690  0.2071  0.0692
   71SLPC   H4R 6149   1.933   3.634   9.919 -0.2924 -0.0724 -0.6292
   71SLPC   H4S 6150   1.801   3.730   9.983  0.0937 -0.4688  1.2204
   71SLPC   C25 6151   1.780   3.659   9.774 -0.4339 -0.0360  0.4089
   71SLPC   H5R 6152   1.809   3.572   9.712  0.7502 -0.4389  1.4893
   71SLPC   H5S 6153   1.824   3.746   9.721 -0.6884  0.3823  0.8756
   71SLPC   C26 6154   1.634   3.673   9.742  0.0316  0.0674 -0.5140
   71SLPC   H6R 6155   1.601   3.768   9.789  2.6492  2.1304 -2.5050
   71SLPC   H6S 6156   1.568   3.590   9.774 -2.8531  1.6725 -1.8642
   71SLPC   C27 6157   1.607   3.688   9.594  0.4870  0.0671  0.3490
   71SLPC   H7R 6158   1.497   3.695   9.579  0.4959  0.3817  0.4243
   71SLPC   H7S 6159   1.632   3.596   9.537  1.2201  0.6880 -0.3691
   71SLPC   C28 6160   1.668   3.815   9.533  0.1023  0.3963  0.0676
   71SLPC   H8R 6161   1.779   3.810   9.532  0.2482  2.0189  1.8639
   71SLPC   H8S 6162   1.633   3.903   9.592  1.2281  0.6570  0.3674
   71SLPC   C29 6163   1.619   3.811   9.384  0.1711 -0.7431 -0.3795
   71SLPC   H9R 6164   1.534   3.878   9.363  1.0394 -0.0918 -2.0382
   71SLPC  C210 6165   1.675   3.742   9.279 -0.1861 -0.0317 -0.4141
   71SLPC  H10R 6166   1.633   3.767   9.180  1.4978 -1.6635 -1.6122
   71SLPC  C211 6167   1.800   3.656   9.276  0.1546  0.1558 -0.4263
   71SLPC  H11R 6168   1.816   3.630   9.383 -0.9622  0.7736 -0.0953
   71SLPC  H11S 6169   1.887   3.721   9.254 -1.2630  2.6532  0.9113
   71SLPC  C212 6170   1.787   3.536   9.188  0.1169 -0.0200 -0.0024
   71SLPC  H12R 6171   1.728   3.452   9.227  0.9672 -0.6144  0.0276
   71SLPC  C213 6172   1.843   3.527   9.062  0.0803  0.2885 -0.1513
   71SLPC  H13R 6173   1.828   3.433   9.007  3.1804 -1.0318  0.9779
   71SLPC  C214 6174   1.939   3.627   8.994  0.3582 -0.0774  0.2544
   71SLPC  H14R 6175   2.002   3.693   9.058 -0.0213  0.9121 -0.3719
   71SLPC  H14S 6176   1.882   3.694   8.926  2.9019  0.6511 -1.3282
   71SLPC  C215 6177   2.042   3.555   8.902  0.2673  0.2378 -0.4061
   71SLPC  H15R 6178   1.981   3.481   8.846 -1.2303 -0.3141  1.7970
   71SLPC  H15S 6179   2.101   3.502   8.979  0.2697  0.0204 -0.5565
   71SLPC  C216 6180   2.120   3.650   8.814  0.7468 -0.1128  0.3568
   71SLPC  H16R 6181   2.189   3.706   8.880 -1.6044  0.6178  2.3320
   71SLPC  H16S 6182   2.060   3.730   8.764  0.2078  1.2306  2.9343
   71SLPC  C217 6183   2.214   3.573   8.717 -0.5755 -1.2140 -0.1266
   71SLPC  H17R 6184   2.159   3.492   8.663  0.2014 -0.3905 -2.2794
   71SLPC  H17S 6185   2.285   3.521   8.785 -1.4837 -0.2291  1.6120
   71SLPC  C218 6186   2.295   3.656   8.613  0.6666  0.5186 -0.6037
   71SLPC  H18R 6187   2.372   3.717   8.665  1.0937 -1.6002  1.4025
   71SLPC  H18S 6188   2.243   3.722   8.540 -0.2618  0.0161 -0.4159
   71SLPC  H18T 6189   2.347   3.578   8.553  1.5624  0.8412 -0.2737
   71SLPC   C33 6190   1.272   3.971   9.977 -0.4986  0.5327  0.4460
   71SLPC   H3X 6191   1.263   4.081   9.990 -0.7904  0.6722 -0.8149
   71SLPC   H3Y 6192   1.208   3.918  10.051  2.1390 -2.4407  0.7648
   71SLPC   C34 6193   1.198   3.947   9.843 -0.2280  0.1612  0.2653
   71SLPC   H4X 6194   1.088   3.959   9.858 -0.1605  0.2363  0.7186
   71SLPC   H4Y 6195   1.233   3.849   9.806  1.8325  1.4788 -1.4934
   71SLPC   C35 6196   1.242   4.052   9.741 -0.0504  0.5610 -0.4240
   71SLPC   H5X 6197   1.353   4.044   9.738 -0.1231 -2.8032  0.8911
   71SLPC   H5Y 6198   1.213   4.154   9.773 -2.6678 -0.0233 -0.7465
   71SLPC   C36 6199   1.173   4.046   9.607  1.0558 -0.5145  0.1321
   71SLPC   H6X 6200   1.062   4.055   9.613  0.8524  0.0668 -2.9343
   71SLPC   H6Y 6201   1.205   3.953   9.556  2.1410 -0.5004  0.7556
   71SLPC   C37 6202   1.211   4.156   9.510 -0.0282 -0.2640  0.1524
   71SLPC   H7X 6203   1.321   4.143   9.513  0.2247  1.3947 -0.9592
   71SLPC   H7Y 6204   1.190   4.252   9.562 -1.0462 -1.7648  2.7616
   71SLPC   C38 6205   1.156   4.158   9.366 -0.3895  0.3782  0.0584
   71SLPC   H8X 6206   1.187   4.252   9.316  0.2450 -0.5920 -1.4508
   71SLPC   H8Y 6207   1.045   4.150   9.368 -0.3596 -0.0012  1.4249
   71SLPC   C39 6208   1.227   4.042   9.290  0.1829  0.7546  0.5846
   71SLPC   H9X 6209   1.192   3.941   9.317 -1.0364  0.6716 -1.1559
   71SLPC   H9Y 6210   1.334   4.047   9.319 -0.1952 -0.5992  2.3801
   71SLPC  C310 6211   1.211   4.047   9.135 -0.9452  0.2931  0.2852
   71SLPC  H10X 6212   1.241   4.150   9.105  1.7506  0.5308  3.2385
   71SLPC  H10Y 6213   1.107   4.021   9.107 -0.0098 -2.7100 -0.7431
   71SLPC  C311 6214   1.322   3.949   9.079 -0.2797  0.4954  0.5313
   71SLPC  H11X 6215   1.296   3.842   9.098  0.7519  0.0089 -0.6735
   71SLPC  H11Y 6216   1.418   3.973   9.129  0.4082  1.0457 -1.0050
   71SLPC  C312 6217   1.341   3.957   8.930  0.3871 -0.0397  0.4288
   71SLPC  H12X 6218   1.416   3.883   8.895 -0.6163  0.0276 -2.0759
   71SLPC  H12Y 6219   1.371   4.057   8.892  0.8140 -0.7072 -1.0747
   71SLPC  C313 6220   1.218   3.911   8.842 -0.4736  0.4323 -0.1955
   71SLPC  H13X 6221   1.123   3.964   8.865  0.1234  0.8956  1.3226
   71SLPC  H13Y 6222   1.193   3.803   8.849  1.4391 -0.0845 -0.8400
   71SLPC  C314 6223   1.243   3.920   8.692  0.2772  0.5815  0.0174
   71SLPC  H14X 6224   1.160   3.873   8.636  1.1435 -1.4280  0.3244
   71SLPC  H14Y 6225   1.321   3.842   8.677 -2.1713 -2.5400  2.2185
   71SLPC  C315 6226   1.286   4.053   8.623  0.3811  0.0456 -0.2431
   71SLPC  H15X 6227   1.298   4.036   8.514 -0.8081  1.6459 -0.6467
   71SLPC  H15Y 6228   1.385   4.083   8.663  0.7089 -0.0210 -0.9829
   71SLPC  C316 6229   1.183   4.164   8.640  0.3368  0.1686 -1.1025
   71SLPC  H16X 6230   1.228   4.263   8.615 -1.7676  1.3192 -0.5728
   71SLPC  H16Y 6231   1.163   4.159   8.749  2.4698 -2.5034 -0.7396
   71SLPC  C317 6232   1.050   4.146   8.568  0.3414 -0.0499  0.5847
   71SLPC  H17X 6233   0.980   4.227   8.597  1.4373  1.2648 -0.3302
   71SLPC  H17Y 6234   0.998   4.060   8.615 -1.3107  0.8242  0.4329
   71SLPC  C318 6235   1.065   4.138   8.423 -0.5089  0.0387  0.2508
   71SLPC  H18X 6236   1.096   4.037   8.391  2.2198  0.1620  2.2003
   71SLPC  H18Y 6237   1.140   4.215   8.392 -0.6145  0.7120  1.5702
   71SLPC  H18Z 6238   0.969   4.146   8.367 -0.6026  1.3416  0.5534
   72SLPC     N 6239   2.520   3.209  10.796  0.2361  0.1571  0.5197
   72SLPC   C13 6240   2.504   3.105  10.899 -0.1397  0.4024  0.1897
   72SLPC  H13A 6241   2.598   3.095  10.951 -0.7256  2.7280  1.8416
   72SLPC  H13B 6242   2.433   3.148  10.967  0.3760  0.7649  0.5049
   72SLPC  H13C 6243   2.466   3.013  10.856  1.2288  0.6404 -1.6709
   72SLPC   C14 6244   2.582   3.140  10.672  0.6198 -0.6765  0.0009
   72SLPC  H14A 6245   2.512   3.066  10.633  0.6598 -0.7649  0.0961
   72SLPC  H14B 6246   2.617   3.208  10.596  0.7137 -1.0590 -0.3041
   72SLPC  H14C 6247   2.670   3.086  10.705  1.9522  0.6856 -1.1689
   72SLPC   C15 6248   2.631   3.299  10.827 -0.3861  0.2451  0.4565
   72SLPC  H15A 6249   2.602   3.365  10.908  1.3294  1.4165  0.1609
   72SLPC  H15B 6250   2.726   3.268  10.868 -0.8483  0.9709  2.1482
   72SLPC  H15C 6251   2.640   3.368  10.745  1.7078 -0.5294 -0.0354
   72SLPC   C12 6252   2.390   3.268  10.761 -0.6241  0.1140  0.2603
   72SLPC  H12A 6253   2.417   3.342  10.687  0.0293 -0.5316 -0.1522
   72SLPC  H12B 6254   2.351   3.316  10.850 -0.1837 -1.9711  1.6399
   72SLPC   C11 6255   2.282   3.161  10.719  0.0452 -0.4713  0.1596
   72SLPC  H11A 6256   2.335   3.090  10.652  2.2165  1.0968  0.1042
   72SLPC  H11B 6257   2.203   3.211  10.659 -1.3503  2.1617  3.8287
   72SLPC     P 6258   2.117   3.171  10.917  0.0459 -0.1319  0.1296
   72SLPC   O13 6259   2.090   3.087  11.041  0.5830 -0.2999  0.2950
   72SLPC   O14 6260   2.149   3.308  10.952 -0.4828  0.5020  0.2112
   72SLPC   O12 6261   2.226   3.106  10.832  0.0279  0.5864 -0.5521
   72SLPC   O11 6262   1.992   3.171  10.826  0.2755  0.5068  0.0186
   72SLPC    C1 6263   1.917   3.049  10.803  0.8073 -0.1942 -0.3899
   72SLPC    HA 6264   1.928   2.980  10.890 -3.4391 -1.4951 -0.6338
   72SLPC    HB 6265   1.808   3.070  10.809  0.7869 -0.1505 -0.8786
   72SLPC    C2 6266   1.946   2.984  10.663 -0.4146  0.4235 -0.4434
   72SLPC    HS 6267   2.052   2.953  10.653 -0.0593 -0.1497  3.6320
   72SLPC   O21 6268   1.912   3.083  10.564  0.0577 -0.3408  0.2171
   72SLPC   C21 6269   1.994   3.096  10.459  0.1426  0.2186 -0.0944
   72SLPC   O22 6270   2.101   3.049  10.445 -0.2803  0.1674 -0.3459
   72SLPC   C22 6271   1.923   3.173  10.354 -0.0454 -0.2594  1.3600
   72SLPC   H2R 6272   1.835   3.113  10.322  1.0947 -0.5597 -1.5194
   72SLPC   H2S 6273   1.891   3.272  10.393 -0.9620 -0.4787  1.2049
   72SLPC    C3 6274   1.864   2.845  10.644  0.2491 -0.5796  0.1007
   72SLPC    HX 6275   1.758   2.875  10.655  0.7416  1.2012  0.2650
   72SLPC    HY 6276   1.895   2.778  10.727  1.1541  2.3273  2.2987
   72SLPC   O31 6277   1.876   2.789  10.512 -0.7219  0.7946 -0.1078
   72SLPC   C31 6278   1.993   2.741  10.471 -1.0052 -0.7780 -0.2716
   72SLPC   O32 6279   2.096   2.748  10.537  0.6242  0.5370 -0.3800
   72SLPC   C32 6280   1.985   2.674  10.336 -0.2505 -0.0131  0.0088
   72SLPC   H2X 6281   1.887   2.708  10.296 -0.4143  0.4787  0.8214
   72SLPC   H2Y 6282   1.983   2.569  10.371 -1.3819 -0.0208 -0.0444
   72SLPC   C23 6283   1.992   3.198  10.217  0.4881 -0.1303  0.2839
   72SLPC   H3R 6284   2.086   3.256  10.229  0.2897  0.6485 -1.5899
   72SLPC   H3S 6285   1.920   3.254  10.154  0.4055 -0.8070 -0.2476
   72SLPC   C24 6286   2.017   3.072  10.135  0.6226  0.1626  0.1005
   72SLPC   H4R 6287   1.930   3.007  10.157 -0.0520  0.8694 -0.4379
   72SLPC   H4S 6288   2.099   3.011  10.178 -0.0136 -0.4044  0.5362
   72SLPC   C25 6289   2.024   3.093   9.985 -1.0236 -0.1533 -0.7885
   72SLPC   H5R 6290   1.933   3.145   9.949 -2.4996  0.9542  3.8364
   72SLPC   H5S 6291   2.025   2.990   9.944 -0.9508 -0.4425 -0.0747
   72SLPC   C26 6292   2.145   3.164   9.929  0.3483 -0.2509  0.2693
   72SLPC   H6R 6293   2.236   3.113   9.968 -1.1238 -2.8311  0.5997
   72SLPC   H6S 6294   2.150   3.270   9.959 -2.5193  0.6866 -2.0854
   72SLPC   C27 6295   2.155   3.164   9.775 -0.6614 -0.3746 -0.1290
   72SLPC   H7R 6296   2.169   3.062   9.732 -2.3988 -0.8584  0.3729
   72SLPC   H7S 6297   2.251   3.213   9.748 -0.4837 -1.3746 -1.4160
   72SLPC   C28 6298   2.040   3.232   9.691 -0.6390  0.0242  0.6189
   72SLPC   H8R 6299   1.940   3.214   9.736 -1.0009  0.8180  0.1545
   72SLPC   H8S 6300   2.049   3.187   9.589  1.2228 -1.7256  1.4747
   72SLPC   C29 6301   2.075   3.378   9.706 -0.0439 -0.9193  0.3762
   72SLPC   H9R 6302   2.060   3.428   9.803  0.4463  0.8140 -0.3917
   72SLPC  C210 6303   2.112   3.456   9.602 -1.0594  0.6328  0.1873
   72SLPC  H10R 6304   2.118   3.565   9.621 -3.5862  0.8724  0.0067
   72SLPC  C211 6305   2.146   3.406   9.465 -0.1696 -0.3275 -0.1878
   72SLPC  H11R 6306   2.059   3.347   9.430  0.4557 -0.2604 -1.9289
   72SLPC  H11S 6307   2.229   3.333   9.467 -1.1604 -1.4911  1.4777
   72SLPC  C212 6308   2.172   3.519   9.372  0.2519 -0.2587  0.3527
   72SLPC  H12R 6309   2.106   3.599   9.408 -0.4106 -1.8778  3.0022
   72SLPC  C213 6310   2.259   3.535   9.265  0.6515 -0.6555  0.1479
   72SLPC  H13R 6311   2.268   3.638   9.227  2.6129  1.0087  4.5068
   72SLPC  C214 6312   2.361   3.445   9.209 -0.3030  0.9308 -0.1399
   72SLPC  H14R 6313   2.394   3.356   9.266  2.6099  2.2382  0.4234
   72SLPC  H14S 6314   2.448   3.512   9.193  0.6930 -0.6588 -1.7019
   72SLPC  C215 6315   2.327   3.378   9.070  0.3379  0.9327 -0.0676
   72SLPC  H15R 6316   2.309   3.458   8.995  0.5219 -1.5502 -2.9462
   72SLPC  H15S 6317   2.232   3.321   9.076  0.3190  1.0242  0.5932
   72SLPC  C216 6318   2.438   3.291   9.002  1.0282  0.1418  0.0114
   72SLPC  H16R 6319   2.418   3.281   8.893 -1.4923 -0.1044  0.4286
   72SLPC  H16S 6320   2.437   3.194   9.055 -0.6476  0.9016  1.5167
   72SLPC  C217 6321   2.581   3.351   9.018 -0.6324  0.0181 -0.2039
   72SLPC  H17R 6322   2.598   3.379   9.124 -0.4380  0.7022 -0.4129
   72SLPC  H17S 6323   2.587   3.441   8.953  1.6587  0.6512  0.7736
   72SLPC  C218 6324   2.689   3.255   8.964  0.1105  0.2768 -0.4199
   72SLPC  H18R 6325   2.681   3.160   9.020 -1.6791  0.3496 -0.4739
   72SLPC  H18S 6326   2.792   3.297   8.964  0.5083 -0.5591  2.3367
   72SLPC  H18T 6327   2.658   3.241   8.858  1.3920  0.8915 -0.8951
   72SLPC   C33 6328   2.105   2.696  10.242 -0.2119  0.1186  0.7925
   72SLPC   H3X 6329   2.193   2.669  10.304 -0.1187 -1.4202  0.0204
   72SLPC   H3Y 6330   2.122   2.801  10.210 -0.4616  0.5938  2.1424
   72SLPC   C34 6331   2.097   2.617  10.104 -0.0926  0.1718 -0.3058
   72SLPC   H4X 6332   2.075   2.510  10.124  0.2667  0.0374 -0.6290
   72SLPC   H4Y 6333   2.190   2.628  10.045 -0.2168 -0.0697 -0.5518
   72SLPC   C35 6334   1.993   2.686  10.016  0.2653 -0.7982 -0.0083
   72SLPC   H5X 6335   2.016   2.795  10.017  0.1590 -0.7682 -0.5302
   72SLPC   H5Y 6336   1.889   2.667  10.049  0.6323 -0.9429  1.0894
   72SLPC   C36 6337   2.014   2.628   9.871 -0.2666  0.1420 -0.2822
   72SLPC   H6X 6338   2.006   2.519   9.857 -0.0849  0.3023 -1.8294
   72SLPC   H6Y 6339   2.115   2.671   9.854 -0.4173  1.2258  1.3159
   72SLPC   C37 6340   1.914   2.695   9.774  0.3382 -0.4379 -0.5890
   72SLPC   H7X 6341   1.929   2.805   9.777  1.5828 -0.5970 -0.4986
   72SLPC   H7Y 6342   1.822   2.671   9.831  1.1481 -2.5916 -0.0777
   72SLPC   C38 6343   1.926   2.631   9.638 -0.0536 -0.1179 -0.1592
   72SLPC   H8X 6344   1.884   2.528   9.628  2.8393 -1.3037 -1.1270
   72SLPC   H8Y 6345   2.033   2.617   9.615  0.0835 -2.0684  1.3657
   72SLPC   C39 6346   1.863   2.703   9.521 -0.3143 -1.0119 -0.2287
   72SLPC   H9X 6347   1.885   2.810   9.540  0.8132 -1.3937  0.7026
   72SLPC   H9Y 6348   1.752   2.692   9.530 -0.5625  1.1089 -0.1386
   72SLPC  C310 6349   1.913   2.667   9.372  0.6276  0.3662  0.3878
   72SLPC  H10X 6350   2.019   2.700   9.370  0.0201  2.4715  0.3566
   72SLPC  H10Y 6351   1.852   2.724   9.299 -0.0436 -0.0876  0.5900
   72SLPC  C311 6352   1.925   2.511   9.335  0.2041 -0.8372 -0.5813
   72SLPC  H11X 6353   1.826   2.470   9.362 -0.3567  1.8521  2.0409
   72SLPC  H11Y 6354   2.003   2.475   9.405  0.4969 -1.0905 -1.0362
   72SLPC  C312 6355   1.950   2.485   9.186 -0.1722 -0.2600 -0.6736
   72SLPC  H12X 6356   1.852   2.508   9.138  0.0727  0.8262 -0.6874
   72SLPC  H12Y 6357   1.969   2.376   9.177 -0.8392 -0.2198 -4.3721
   72SLPC  C313 6358   2.067   2.567   9.117  0.3034 -0.2892 -0.4664
   72SLPC  H13X 6359   2.157   2.564   9.181 -2.3439  0.1997  3.6306
   72SLPC  H13Y 6360   2.043   2.675   9.116 -1.0017 -0.4177  3.0122
   72SLPC  C314 6361   2.096   2.538   8.973  0.0629 -0.2623  0.5387
   72SLPC  H14X 6362   2.110   2.428   8.969 -1.0875 -0.3767 -0.9833
   72SLPC  H14Y 6363   2.191   2.583   8.936 -0.5051 -1.1401 -2.1348
   72SLPC  C315 6364   1.991   2.581   8.867  0.2718 -0.2208 -0.1885
   72SLPC  H15X 6365   1.965   2.687   8.889  0.3794  0.2801 -2.1989
   72SLPC  H15Y 6366   1.898   2.524   8.885 -1.4178  2.3003 -0.4316
   72SLPC  C316 6367   2.059   2.574   8.726  1.0609 -0.0103 -0.6341
   72SLPC  H16X 6368   2.113   2.478   8.738  0.6311 -0.2534 -0.6259
   72SLPC  H16Y 6369   2.115   2.668   8.705  0.9270 -0.3212 -2.5364
   72SLPC  C317 6370   1.948   2.568   8.620  0.5062  0.8914  0.3659
   72SLPC  H17X 6371   1.864   2.632   8.654  0.2625  0.5364  0.4371
   72SLPC  H17Y 6372   1.910   2.464   8.613  0.1930  1.1266 -2.9552
   72SLPC  C318 6373   1.981   2.610   8.477 -0.5821 -0.2149  0.2909
   72SLPC  H18X 6374   1.893   2.595   8.410  0.6351 -1.1046 -1.1717
   72SLPC  H18Y 6375   2.061   2.548   8.432 -0.6033 -0.7487  0.9722
   72SLPC  H18Z 6376   2.012   2.717   8.471  2.3691 -0.9033  1.7640
   73SLPC     N 6377   2.719   0.680  11.519  0.2187 -0.3567  0.1558
   73SLPC   C13 6378   2.578   0.733  11.535  0.0759  0.0543  0.2918
   73SLPC  H13A 6379   2.588   0.822  11.595  0.4817 -1.9117  3.4110
   73SLPC  H13B 6380   2.538   0.753  11.437 -0.2126  0.8626  0.5672
   73SLPC  H13C 6381   2.520   0.650  11.572 -0.8025  0.3276 -0.4449
   73SLPC   C14 6382   2.772   0.646  11.653 -0.6175 -0.3314 -0.2813
   73SLPC  H14A 6383   2.776   0.734  11.715  0.7487  0.8800 -1.9792
   73SLPC  H14B 6384   2.724   0.563  11.703  0.0794  0.1729  1.2935
   73SLPC  H14C 6385   2.873   0.608  11.651 -0.9806 -1.3021 -1.4436
   73SLPC   C15 6386   2.794   0.793  11.455  0.3092 -0.6067  0.1482
   73SLPC  H15A 6387   2.762   0.795  11.352 -1.3113 -0.5799  0.6278
   73SLPC  H15B 6388   2.764   0.887  11.499  1.5951  0.1096 -0.4439
   73SLPC  H15C 6389   2.902   0.791  11.456  0.3523  0.6609  1.4151
   73SLPC   C12 6390   2.727   0.557  11.432 -0.4246 -0.1362  0.6105
   73SLPC  H12A 6391   2.680   0.481  11.493  0.3915  1.5406  3.4894
   73SLPC  H12B 6392   2.831   0.534  11.416 -0.1239  1.4138  0.2114
   73SLPC   C11 6393   2.651   0.557  11.294  0.1151  0.1839  0.0971
   73SLPC  H11A 6394   2.546   0.584  11.319 -0.5871 -2.0686 -0.1940
   73SLPC  H11B 6395   2.653   0.454  11.252 -1.0183 -0.4561  1.5251
   73SLPC     P 6396   2.615   0.730  11.106 -0.3642  0.4525 -0.1691
   73SLPC   O13 6397   2.520   0.809  11.187 -0.6326  0.0452  0.6979
   73SLPC   O14 6398   2.702   0.808  11.012 -0.4372  0.0697  0.1909
   73SLPC   O12 6399   2.711   0.651  11.207 -1.0135  0.3215 -0.4308
   73SLPC   O11 6400   2.537   0.617  11.033 -0.0041  0.0781 -0.1763
   73SLPC    C1 6401   2.598   0.546  10.923  0.1348 -0.0494  0.0371
   73SLPC    HA 6402   2.707   0.568  10.918  0.0349  0.3103 -0.8312
   73SLPC    HB 6403   2.583   0.437  10.936  0.1150  0.1061  1.4882
   73SLPC    C2 6404   2.546   0.601  10.783 -0.4434  0.1648 -0.4283
   73SLPC    HS 6405   2.547   0.712  10.779 -1.0987  0.2187  0.3998
   73SLPC   O21 6406   2.418   0.551  10.766 -0.8046 -0.3020  0.1078
   73SLPC   C21 6407   2.322   0.642  10.769  0.3252  0.4410 -0.0852
   73SLPC   O22 6408   2.331   0.757  10.803  0.2190 -0.8613  0.0777
   73SLPC   C22 6409   2.193   0.587  10.701  0.1656  0.0827  0.0831
   73SLPC   H2R 6410   2.214   0.488  10.655 -0.4110 -0.4340  0.9054
   73SLPC   H2S 6411   2.125   0.566  10.786 -0.9473 -0.1983 -0.8568
   73SLPC    C3 6412   2.636   0.555  10.674  0.3129  0.0397  0.3880
   73SLPC    HX 6413   2.670   0.451  10.696 -0.6054 -0.7281 -1.6084
   73SLPC    HY 6414   2.724   0.622  10.671 -1.1044  1.9496 -2.0624
   73SLPC   O31 6415   2.560   0.542  10.554  0.2735 -0.1340  0.0426
   73SLPC   C31 6416   2.576   0.646  10.474 -0.5397  0.3340 -0.6809
   73SLPC   O32 6417   2.652   0.745  10.495 -0.2894  0.4946 -0.4239
   73SLPC   C32 6418   2.502   0.624  10.348 -0.1556 -0.6199 -0.7685
   73SLPC   H2X 6419   2.400   0.640  10.389  0.9788 -0.5105  2.2870
   73SLPC   H2Y 6420   2.516   0.519  10.317 -2.0292 -1.5709  1.3131
   73SLPC   C23 6421   2.145   0.698  10.598 -0.0439 -0.0337 -0.3960
   73SLPC   H3R 6422   2.223   0.707  10.519 -0.6179 -0.2784 -0.9992
   73SLPC   H3S 6423   2.151   0.796  10.650  0.6681  0.8692 -2.0930
   73SLPC   C24 6424   2.006   0.679  10.535  0.3685  0.2085 -0.1606
   73SLPC   H4R 6425   1.982   0.771  10.478 -3.2441 -2.0593 -2.7178
   73SLPC   H4S 6426   1.923   0.668  10.607 -0.7684  3.2560 -0.8541
   73SLPC   C25 6427   2.009   0.551  10.455  0.1390  0.2094  0.6355
   73SLPC   H5R 6428   1.906   0.536  10.417  0.5086  0.7692 -0.6423
   73SLPC   H5S 6429   2.035   0.472  10.528  0.7066  2.3318  2.8431
   73SLPC   C26 6430   2.085   0.570  10.333 -0.3673  0.1540 -0.7270
   73SLPC   H6R 6431   2.193   0.571  10.359 -0.3417 -0.4609 -0.8008
   73SLPC   H6S 6432   2.067   0.661  10.271 -1.8405 -1.6343 -3.0821
   73SLPC   C27 6433   2.071   0.444  10.240 -0.0501  0.2239  0.1235
   73SLPC   H7R 6434   1.964   0.417  10.234 -0.5666  2.2519 -0.8001
   73SLPC   H7S 6435   2.120   0.362  10.296  0.5821  0.4231 -0.1257
   73SLPC   C28 6436   2.124   0.466  10.096 -0.3007 -0.1274 -0.7553
   73SLPC   H8R 6437   2.076   0.553  10.047 -1.1071 -1.1486 -1.8344
   73SLPC   H8S 6438   2.110   0.377  10.031  0.0251 -0.6420 -0.1298
   73SLPC   C29 6439   2.272   0.477  10.116 -0.4087  1.1419 -0.2898
   73SLPC   H9R 6440   2.321   0.434  10.205 -1.5749  3.2152  1.4473
   73SLPC  C210 6441   2.362   0.520  10.025  0.4502 -0.2995  0.2848
   73SLPC  H10R 6442   2.469   0.537  10.043  0.5218 -2.0197  1.7457
   73SLPC  C211 6443   2.311   0.571   9.890 -0.0996  0.6585  0.2280
   73SLPC  H11R 6444   2.280   0.676   9.906 -3.7659 -0.0522 -1.2436
   73SLPC  H11S 6445   2.231   0.505   9.851  0.4226  0.8992 -1.2933
   73SLPC  C212 6446   2.408   0.564   9.772  0.0120 -0.0827 -0.0181
   73SLPC  H12R 6447   2.450   0.659   9.736 -0.5898 -0.3428 -1.4689
   73SLPC  C213 6448   2.453   0.461   9.698 -0.4120  0.2491 -0.0459
   73SLPC  H13R 6449   2.534   0.483   9.627 -0.9699 -1.8271 -1.4223
   73SLPC  C214 6450   2.428   0.314   9.726  0.1240  0.0806 -0.1208
   73SLPC  H14R 6451   2.341   0.269   9.675 -0.6269  0.7364  0.5485
   73SLPC  H14S 6452   2.399   0.301   9.833 -0.2176  1.1824 -0.0598
   73SLPC  C215 6453   2.561   0.234   9.715  0.3757  0.4044 -0.1653
   73SLPC  H15R 6454   2.596   0.229   9.610  0.8167 -1.2642  0.0299
   73SLPC  H15S 6455   2.535   0.130   9.743  0.4566  0.4709  0.1596
   73SLPC  C216 6456   2.676   0.284   9.809  0.1224 -0.2040  0.2327
   73SLPC  H16R 6457   2.634   0.253   9.907 -0.2046  0.6776  0.3795
   73SLPC  H16S 6458   2.690   0.394   9.801  0.9680 -0.3226  0.0135
   73SLPC  C217 6459   2.803   0.212   9.778 -0.0430  0.2873  0.4954
   73SLPC  H17R 6460   2.826   0.229   9.671 -0.4492 -2.6923 -0.1607
   73SLPC  H17S 6461   2.785   0.103   9.793 -2.0130  0.8414  2.7190
   73SLPC  C218 6462   2.925   0.246   9.866 -0.1037  0.1915  0.0162
   73SLPC  H18R 6463   2.994   0.159   9.876  0.6521  0.9760  2.3706
   73SLPC  H18S 6464   2.892   0.269   9.970 -0.7850 -1.8531  0.2940
   73SLPC  H18T 6465   2.979   0.332   9.822 -0.0772 -0.0670 -0.4621
   73SLPC   C33 6466   2.542   0.732  10.245 -0.1571  0.1284  0.2268
   73SLPC   H3X 6467   2.538   0.834  10.289 -3.4237 -0.1066  0.7513
   73SLPC   H3Y 6468   2.460   0.740  10.171 -0.7368  0.3408  0.8761
   73SLPC   C34 6469   2.674   0.712  10.167 -0.9412  0.2173 -0.1084
   73SLPC   H4X 6470   2.660   0.622  10.103  0.2245 -0.0962  0.0480
   73SLPC   H4Y 6471   2.758   0.699  10.239 -0.4038  1.0702 -0.5650
   73SLPC   C35 6472   2.706   0.829  10.083  0.3716  0.8761 -0.1160
   73SLPC   H5X 6473   2.804   0.805  10.037  0.3570 -0.1538  0.3544
   73SLPC   H5Y 6474   2.732   0.919  10.143  2.9168  1.0502 -1.3575
   73SLPC   C36 6475   2.602   0.873   9.975 -0.1893  0.1008 -0.1614
   73SLPC   H6X 6476   2.508   0.899  10.029  0.1300 -1.8372  1.4350
   73SLPC   H6Y 6477   2.592   0.778   9.919 -0.0004 -0.4198  0.6827
   73SLPC   C37 6478   2.654   0.986   9.884 -0.4404 -0.1557  0.0115
   73SLPC   H7X 6479   2.674   1.072   9.951 -1.8121 -1.6504  2.4545
   73SLPC   H7Y 6480   2.573   1.035   9.826 -0.9050  0.5503  1.2306
   73SLPC   C38 6481   2.773   0.967   9.792 -0.3135 -0.6278 -0.2918
   73SLPC   H8X 6482   2.766   0.875   9.730  0.4497  0.5458 -2.2163
   73SLPC   H8Y 6483   2.871   0.956   9.844 -1.1854 -1.0703  1.3294
   73SLPC   C39 6484   2.778   1.074   9.680 -0.1491 -0.4269 -0.1551
   73SLPC   H9X 6485   2.812   1.168   9.729 -0.6972 -0.2489 -0.1084
   73SLPC   H9Y 6486   2.675   1.087   9.640 -0.6609 -0.9443  0.9499
   73SLPC  C310 6487   2.878   1.049   9.559 -0.6531 -0.6867 -0.2354
   73SLPC  H10X 6488   2.858   0.951   9.510 -0.6907  0.4140 -2.5537
   73SLPC  H10Y 6489   2.981   1.047   9.601 -1.9683 -1.4525  3.2576
   73SLPC  C311 6490   2.860   1.155   9.443  0.1469  0.1842 -0.5060
   73SLPC  H11X 6491   2.876   1.254   9.492  0.8142 -0.2412  0.1696
   73SLPC  H11Y 6492   2.759   1.140   9.402 -1.3502  0.5418  2.7100
   73SLPC  C312 6493   2.962   1.137   9.338 -0.4580  0.1023 -0.2821
   73SLPC  H12X 6494   2.954   1.036   9.292 -0.0152  0.2799 -0.7541
   73SLPC  H12Y 6495   3.063   1.136   9.384  0.1534  0.3208 -1.5627
   73SLPC  C313 6496   2.963   1.234   9.220 -0.0842 -0.1227  0.1551
   73SLPC  H13X 6497   3.051   1.221   9.153 -1.4270 -1.2172 -1.4666
   73SLPC  H13Y 6498   2.953   1.339   9.254 -0.4327 -0.1699  0.2015
   73SLPC  C314 6499   2.846   1.195   9.126 -0.5202  0.6307  0.3096
   73SLPC  H14X 6500   2.752   1.227   9.176 -0.4604 -1.3098  1.8133
   73SLPC  H14Y 6501   2.848   1.084   9.114  0.6261  0.6576  0.1333
   73SLPC  C315 6502   2.857   1.257   8.990 -0.5029  0.4485  0.8621
   73SLPC  H15X 6503   2.793   1.208   8.913  0.8568 -1.2696  0.7826
   73SLPC  H15Y 6504   2.963   1.247   8.960 -0.6937 -1.2085  0.6434
   73SLPC  C316 6505   2.820   1.411   8.991  0.4915  0.1194 -0.1795
   73SLPC  H16X 6506   2.908   1.472   9.023  0.0057  1.3791 -1.1344
   73SLPC  H16Y 6507   2.722   1.431   9.038 -0.0989  0.1664 -1.3820
   73SLPC  C317 6508   2.786   1.455   8.850 -0.4466 -0.5400 -0.6526
   73SLPC  H17X 6509   2.707   1.384   8.820 -0.2561 -1.9615  1.8783
   73SLPC  H17Y 6510   2.882   1.442   8.796  0.2891  0.1974  0.4120
   73SLPC  C318 6511   2.737   1.598   8.838  0.7345 -0.3325 -0.0806
   73SLPC  H18X 6512   2.811   1.670   8.879  3.3680 -1.9815 -1.6350
   73SLPC  H18Y 6513   2.637   1.607   8.886  0.5726 -0.9361 -0.2959
   73SLPC  H18Z 6514   2.721   1.630   8.732 -2.0986  0.5920  0.5343
   74SLPC     N 6515   4.737   2.385  11.154 -0.0375 -0.3202 -0.0808
   74SLPC   C13 6516   4.624   2.398  11.247 -0.2485 -1.2310  0.0914
   74SLPC  H13A 6517   4.527   2.417  11.205 -1.0333 -0.9001  1.9498
   74SLPC  H13B 6518   4.601   2.312  11.307 -2.4230 -0.4702  0.4239
   74SLPC  H13C 6519   4.634   2.494  11.297 -0.7237 -0.3294 -1.4767
   74SLPC   C14 6520   4.709   2.272  11.066 -0.0200 -0.8036 -0.1083
   74SLPC  H14A 6521   4.766   2.266  10.974 -0.4238 -1.7240 -0.3066
   74SLPC  H14B 6522   4.704   2.180  11.123 -1.2646 -0.4795  0.3423
   74SLPC  H14C 6523   4.610   2.289  11.027  0.2790 -0.0744 -0.5637
   74SLPC   C15 6524   4.868   2.370  11.232  0.3151  0.5756 -0.6078
   74SLPC  H15A 6525   4.850   2.290  11.302  0.5133  0.0939 -1.0955
   74SLPC  H15B 6526   4.940   2.342  11.156  0.2027 -0.0319 -0.4943
   74SLPC  H15C 6527   4.896   2.465  11.275 -2.6256  0.9571  0.6333
   74SLPC   C12 6528   4.736   2.517  11.072  0.3046  0.9602  0.2740
   74SLPC  H12A 6529   4.818   2.531  11.004  0.2919  0.2777  0.1090
   74SLPC  H12B 6530   4.758   2.588  11.150 -0.3271  3.3204 -1.5785
   74SLPC   C11 6531   4.606   2.565  11.008  0.3032  0.1621 -0.3950
   74SLPC  H11A 6532   4.599   2.673  10.984 -2.9895  0.2737  0.5806
   74SLPC  H11B 6533   4.519   2.550  11.075  1.0633 -0.6003  0.4528
   74SLPC     P 6534   4.674   2.516  10.758  0.1049 -0.3016 -0.2264
   74SLPC   O13 6535   4.710   2.658  10.751  0.2046 -0.2327  0.2978
   74SLPC   O14 6536   4.785   2.421  10.784  0.3587 -0.3094 -0.2451
   74SLPC   O12 6537   4.573   2.496  10.882  0.4371 -0.0257 -0.1256
   74SLPC   O11 6538   4.593   2.462  10.635 -0.7104 -0.0628 -0.4863
   74SLPC    C1 6539   4.567   2.328  10.607  0.1002 -0.5003  0.1402
   74SLPC    HA 6540   4.586   2.263  10.695  3.6395  2.6502  2.0237
   74SLPC    HB 6541   4.459   2.312  10.588  0.6520 -3.1112 -1.2291
   74SLPC    C2 6542   4.648   2.283  10.482  0.5679  0.7600  0.6571
   74SLPC    HS 6543   4.753   2.266  10.517  0.2935  0.2839  1.2712
   74SLPC   O21 6544   4.664   2.384  10.376  0.2299  0.9503 -0.0803
   74SLPC   C21 6545   4.548   2.440  10.328 -0.6760  0.0196  0.9622
   74SLPC   O22 6546   4.434   2.419  10.368 -0.1347 -0.3196 -0.3654
   74SLPC   C22 6547   4.600   2.534  10.219  0.1519  0.0452  0.2065
   74SLPC   H2R 6548   4.648   2.624  10.264 -0.1609 -0.6288  1.9844
   74SLPC   H2S 6549   4.686   2.483  10.172  0.1174  0.6572 -0.5517
   74SLPC    C3 6550   4.598   2.141  10.422 -0.0914 -0.6509 -0.3570
   74SLPC    HX 6551   4.487   2.145  10.414 -0.1365 -3.2958 -2.1891
   74SLPC    HY 6552   4.605   2.057  10.494  1.1249 -0.4877 -0.2511
   74SLPC   O31 6553   4.648   2.113  10.292 -0.1005 -0.5376 -0.1577
   74SLPC   C31 6554   4.739   2.020  10.280  0.0919  1.2439 -0.7029
   74SLPC   O32 6555   4.789   1.957  10.378 -0.1001  0.1016  0.0945
   74SLPC   C32 6556   4.776   1.993  10.133  0.0786  0.9880 -0.9663
   74SLPC   H2X 6557   4.798   1.884  10.131  0.0005  0.9509 -0.1185
   74SLPC   H2Y 6558   4.864   2.057  10.114 -0.5733  1.6162 -1.9634
   74SLPC   C23 6559   4.489   2.567  10.111 -0.2387 -0.0723 -0.4370
   74SLPC   H3R 6560   4.529   2.652  10.053  0.6431 -0.0100  0.2375
   74SLPC   H3S 6561   4.406   2.617  10.165  1.1692 -0.7694  2.5737
   74SLPC   C24 6562   4.449   2.456  10.009 -0.1600  0.0752 -0.8530
   74SLPC   H4R 6563   4.434   2.366  10.073  0.2191  0.7268  0.1854
   74SLPC   H4S 6564   4.534   2.432   9.942  1.6342  1.8203  0.6473
   74SLPC   C25 6565   4.318   2.480   9.934  0.4137  0.3743  1.3350
   74SLPC   H5R 6566   4.313   2.560   9.858 -2.5351 -1.0567 -0.1582
   74SLPC   H5S 6567   4.252   2.511  10.018  0.7731 -1.0204  2.1719
   74SLPC   C26 6568   4.256   2.352   9.862 -0.0194 -0.4355 -0.2917
   74SLPC   H6R 6569   4.154   2.370   9.821  0.7889  0.1438 -2.1820
   74SLPC   H6S 6570   4.244   2.287   9.950  1.5206 -0.1982  0.1248
   74SLPC   C27 6571   4.356   2.291   9.766  0.0641  0.5322 -0.1240
   74SLPC   H7R 6572   4.302   2.199   9.735 -0.9329  0.2833  2.1630
   74SLPC   H7S 6573   4.449   2.266   9.821 -1.1877 -0.8772  1.4590
   74SLPC   C28 6574   4.382   2.374   9.638  0.2301  0.6085  0.9157
   74SLPC   H8R 6575   4.451   2.309   9.581  0.5899 -1.0275  3.0872
   74SLPC   H8S 6576   4.430   2.473   9.656  1.5397 -0.0118  0.9641
   74SLPC   C29 6577   4.253   2.402   9.565  0.0443 -0.7853  0.2985
   74SLPC   H9R 6578   4.179   2.463   9.619 -0.9259  0.9083 -2.6652
   74SLPC  C210 6579   4.209   2.359   9.441 -0.3839 -0.3440 -1.3959
   74SLPC  H10R 6580   4.104   2.381   9.419 -0.8201  0.4964  1.1545
   74SLPC  C211 6581   4.304   2.279   9.349 -0.0803 -0.7052  0.5630
   74SLPC  H11R 6582   4.250   2.188   9.317 -1.3693  1.0644 -2.7728
   74SLPC  H11S 6583   4.402   2.234   9.378  1.3255 -0.3542 -3.0545
   74SLPC  C212 6584   4.338   2.359   9.222 -0.0774  0.3242 -0.1168
   74SLPC  H12R 6585   4.389   2.454   9.245  1.8176 -0.1742 -1.9243
   74SLPC  C213 6586   4.303   2.349   9.091  0.0050  0.2247 -0.1483
   74SLPC  H13R 6587   4.330   2.436   9.030 -0.2086  1.0411  0.8951
   74SLPC  C214 6588   4.233   2.234   9.025 -0.4284  0.0266 -0.0056
   74SLPC  H14R 6589   4.123   2.242   9.040 -0.9532  1.6361 -3.6192
   74SLPC  H14S 6590   4.255   2.136   9.072  1.3018 -0.1457 -1.0868
   74SLPC  C215 6591   4.268   2.211   8.878 -0.0737 -0.6592 -0.3760
   74SLPC  H15R 6592   4.209   2.125   8.838  0.8613 -1.8600  0.7402
   74SLPC  H15S 6593   4.376   2.191   8.866  0.3235  0.9257  0.3812
   74SLPC  C216 6594   4.243   2.330   8.784 -0.8597 -0.0235  0.2163
   74SLPC  H16R 6595   4.279   2.426   8.827 -2.1172  1.0138 -0.9461
   74SLPC  H16S 6596   4.136   2.340   8.757 -0.4061 -1.0628 -2.2475
   74SLPC  C217 6597   4.314   2.314   8.645  0.5904  0.1122 -0.3598
   74SLPC  H17R 6598   4.420   2.292   8.669  1.0336  2.8816  0.5328
   74SLPC  H17S 6599   4.309   2.401   8.576  2.0754  0.8212  0.3980
   74SLPC  C218 6600   4.233   2.208   8.562 -0.0540 -0.2880 -0.2338
   74SLPC  H18R 6601   4.123   2.221   8.573  0.1559  2.1002 -0.4727
   74SLPC  H18S 6602   4.257   2.111   8.610  1.5162  1.0103  1.7677
   74SLPC  H18T 6603   4.254   2.199   8.454 -0.8500  1.4210 -0.5636
   74SLPC   C33 6604   4.667   2.007  10.026 -0.2816  0.6573  0.5523
   74SLPC   H3X 6605   4.631   2.112  10.032 -0.1964  0.6466  1.2425
   74SLPC   H3Y 6606   4.588   1.932  10.046 -1.5461  1.7340 -0.2521
   74SLPC   C34 6607   4.721   1.979   9.886  0.3707  0.4533  0.3931
   74SLPC   H4X 6608   4.754   1.874   9.869 -2.2008 -0.9573  3.1513
   74SLPC   H4Y 6609   4.810   2.039   9.858  1.4051 -0.7099  1.0425
   74SLPC   C35 6610   4.611   1.997   9.775  0.0013  0.6018 -0.4282
   74SLPC   H5X 6611   4.576   2.102   9.783 -1.6986  0.3535 -3.3972
   74SLPC   H5Y 6612   4.531   1.922   9.792 -1.7079  2.4531  0.1074
   74SLPC   C36 6613   4.668   1.984   9.631 -0.1620  0.1673 -0.2571
   74SLPC   H6X 6614   4.726   1.890   9.616  0.8589  0.8234 -0.5053
   74SLPC   H6Y 6615   4.747   2.061   9.621  1.2897 -1.0350  1.3024
   74SLPC   C37 6616   4.562   1.981   9.517  0.0699 -0.3346  0.0463
   74SLPC   H7X 6617   4.506   2.077   9.522 -0.7879 -0.8533  0.7820
   74SLPC   H7Y 6618   4.495   1.893   9.527  2.0393 -1.7512  1.8827
   74SLPC   C38 6619   4.635   1.976   9.374 -0.2025 -0.2463 -0.2615
   74SLPC   H8X 6620   4.696   1.883   9.372 -0.3204 -0.3290 -0.0488
   74SLPC   H8Y 6621   4.702   2.063   9.356 -0.5566 -0.1269 -1.0452
   74SLPC   C39 6622   4.541   1.961   9.266  0.3951  1.3880  0.6694
   74SLPC   H9X 6623   4.502   2.063   9.249 -0.1450  0.8414 -1.7405
   74SLPC   H9Y 6624   4.458   1.898   9.304  0.0793  2.3069  1.5337
   74SLPC  C310 6625   4.601   1.905   9.137  0.3010 -0.9739  0.3023
   74SLPC  H10X 6626   4.641   1.802   9.148  2.2861 -0.4372 -1.3112
   74SLPC  H10Y 6627   4.694   1.964   9.119  0.7926 -1.7581  0.2133
   74SLPC  C311 6628   4.521   1.928   9.006  0.0933 -0.0193 -0.3391
   74SLPC  H11X 6629   4.510   2.038   8.995 -3.9478 -0.4484 -2.9385
   74SLPC  H11Y 6630   4.424   1.873   9.016 -0.2997  0.3223 -1.9571
   74SLPC  C312 6631   4.596   1.884   8.884  0.3132  0.3839 -0.4132
   74SLPC  H12X 6632   4.624   1.779   8.909 -1.4055 -0.0621 -0.2686
   74SLPC  H12Y 6633   4.690   1.943   8.874  0.1063  0.8061  0.0542
   74SLPC  C313 6634   4.511   1.876   8.756 -0.0562  0.2941 -0.3193
   74SLPC  H13X 6635   4.503   1.977   8.712 -0.0963 -0.5195 -2.2572
   74SLPC  H13Y 6636   4.412   1.837   8.786 -0.0693 -0.2511 -1.0373
   74SLPC  C314 6637   4.573   1.783   8.653  0.5645  0.1393  0.2051
   74SLPC  H14X 6638   4.516   1.776   8.557  0.9206 -0.3644  0.0266
   74SLPC  H14Y 6639   4.575   1.678   8.689  2.0884 -0.0109 -0.2598
   74SLPC  C315 6640   4.724   1.818   8.620  0.1844  0.3632  0.7761
   74SLPC  H15X 6641   4.797   1.793   8.699 -0.5130  1.9317  1.9918
   74SLPC  H15Y 6642   4.717   1.929   8.626 -2.4862  0.2272  1.3932
   74SLPC  C316 6643   4.759   1.787   8.472 -0.5066 -0.6587  0.6019
   74SLPC  H16X 6644   4.669   1.801   8.409 -2.0250  1.0137  2.9528
   74SLPC  H16Y 6645   4.796   1.682   8.482  1.4007  0.0817  1.7762
   74SLPC  C317 6646   4.880   1.870   8.427 -0.3810 -0.1680 -0.0226
   74SLPC  H17X 6647   4.930   1.809   8.349  1.9404  0.6987  0.7279
   74SLPC  H17Y 6648   4.942   1.891   8.516  0.3479 -0.4960 -0.4434
   74SLPC  C318 6649   4.831   1.999   8.365  0.1562  0.0756 -0.2034
   74SLPC  H18X 6650   4.920   2.060   8.339 -0.4675  0.9261 -0.3702
   74SLPC  H18Y 6651   4.766   2.058   8.433 -0.1580  0.6024 -0.9570
   74SLPC  H18Z 6652   4.779   1.980   8.269  0.8568  1.3415 -0.8650
   75SLPC     N 6653   0.478   6.414   6.098  0.2918  0.1469  0.4834
   75SLPC   C13 6654   0.433   6.299   6.184 -0.0447  0.4806  0.2782
   75SLPC  H13A 6655   0.487   6.206   6.171 -1.7634 -0.2999 -1.8539
   75SLPC  H13B 6656   0.452   6.331   6.285 -0.6384 -0.8937  0.8565
   75SLPC  H13C 6657   0.327   6.288   6.167 -0.3857 -2.4815  3.2463
   75SLPC   C14 6658   0.464   6.371   5.953 -0.0957  0.5321 -0.5675
   75SLPC  H14A 6659   0.358   6.354   5.941 -0.2417 -0.0362  1.1892
   75SLPC  H14B 6660   0.482   6.449   5.880 -2.9047 -0.0099 -2.0062
   75SLPC  H14C 6661   0.530   6.288   5.933  1.4253  0.6576  3.0555
   75SLPC   C15 6662   0.624   6.434   6.129 -0.6955 -0.8338 -0.1394
   75SLPC  H15A 6663   0.634   6.466   6.231  0.4616 -0.8032 -0.2446
   75SLPC  H15B 6664   0.678   6.340   6.135  0.3785 -0.2040  0.2838
   75SLPC  H15C 6665   0.677   6.500   6.062 -1.2598 -0.5431 -0.3054
   75SLPC   C12 6666   0.401   6.535   6.131  0.1835 -0.3453 -0.5382
   75SLPC  H12A 6667   0.297   6.517   6.110  0.0380 -1.0571  0.7204
   75SLPC  H12B 6668   0.432   6.614   6.064  0.9350 -2.7369 -3.2511
   75SLPC   C11 6669   0.392   6.581   6.280  0.0722 -0.5629 -0.4125
   75SLPC  H11A 6670   0.320   6.516   6.332  0.7230  0.5727  2.0700
   75SLPC  H11B 6671   0.326   6.670   6.277 -0.6012 -0.9842  1.1946
   75SLPC     P 6672   0.584   6.742   6.360  0.2234  0.2551 -0.0259
   75SLPC   O13 6673   0.727   6.726   6.391  0.2852 -0.0692  0.1073
   75SLPC   O14 6674   0.558   6.825   6.243 -0.3933  0.3019  0.2189
   75SLPC   O12 6675   0.519   6.594   6.346  0.4116 -0.0235  0.1263
   75SLPC   O11 6676   0.502   6.803   6.482  0.3003 -0.4957  0.0027
   75SLPC    C1 6677   0.483   6.741   6.609 -0.3017  0.2174  0.4105
   75SLPC    HA 6678   0.374   6.734   6.628 -0.5164  1.1004 -0.4582
   75SLPC    HB 6679   0.506   6.632   6.605  0.2660  0.3174  0.7792
   75SLPC    C2 6680   0.545   6.805   6.736 -0.3134 -0.2753 -0.0215
   75SLPC    HS 6681   0.641   6.749   6.745  0.0757  0.3156 -0.3904
   75SLPC   O21 6682   0.458   6.785   6.849 -0.1118  0.5873  0.1458
   75SLPC   C21 6683   0.462   6.671   6.909  0.0044  0.1819 -0.2917
   75SLPC   O22 6684   0.505   6.567   6.855 -0.0444 -0.3928 -0.5665
   75SLPC   C22 6685   0.415   6.683   7.060 -0.5393 -0.0043  0.4596
   75SLPC   H2R 6686   0.434   6.789   7.085  0.4487  0.3609 -1.5587
   75SLPC   H2S 6687   0.309   6.656   7.074 -0.7777  1.0986  0.8212
   75SLPC    C3 6688   0.576   6.959   6.693  0.0001  0.0729  0.1161
   75SLPC    HX 6689   0.499   7.003   6.626  1.2611 -0.1174 -1.5259
   75SLPC    HY 6690   0.663   6.947   6.625 -0.5213 -1.3920 -0.3297
   75SLPC   O31 6691   0.614   7.036   6.807  0.1729 -0.2091 -0.1930
   75SLPC   C31 6692   0.525   7.132   6.839  0.1253 -0.1329 -0.6702
   75SLPC   O32 6693   0.430   7.160   6.771  0.3946 -0.0768 -0.2567
   75SLPC   C32 6694   0.564   7.191   6.968  0.0501  0.7136  0.3225
   75SLPC   H2X 6695   0.485   7.265   6.993 -0.1363  0.3811  0.7201
   75SLPC   H2Y 6696   0.667   7.234   6.965  0.5687 -0.1194  3.2716
   75SLPC   C23 6697   0.514   6.615   7.151  0.7345  0.3530  0.8614
   75SLPC   H3R 6698   0.615   6.653   7.127 -0.0945  0.5803 -3.0149
   75SLPC   H3S 6699   0.515   6.509   7.118  0.4839  0.5564  0.1776
   75SLPC   C24 6700   0.467   6.643   7.295  0.1447 -0.2256  1.3151
   75SLPC   H4R 6701   0.364   6.605   7.310 -1.8782  2.3539 -3.6735
   75SLPC   H4S 6702   0.458   6.754   7.295 -1.6998 -0.3485  1.3095
   75SLPC   C25 6703   0.568   6.589   7.397  0.5163  0.3748  0.2351
   75SLPC   H5R 6704   0.671   6.619   7.370  0.7364 -0.0982  0.5315
   75SLPC   H5S 6705   0.564   6.478   7.391  1.1209  0.4000 -0.7822
   75SLPC   C26 6706   0.535   6.637   7.537 -0.2209  0.3254 -0.5537
   75SLPC   H6R 6707   0.434   6.617   7.578  0.6371  1.5888  2.3964
   75SLPC   H6S 6708   0.535   6.748   7.532 -0.0321  0.2897 -1.6147
   75SLPC   C27 6709   0.635   6.595   7.641  1.0429  0.1538 -0.3472
   75SLPC   H7R 6710   0.739   6.626   7.617  1.4031 -1.7150 -1.3850
   75SLPC   H7S 6711   0.635   6.485   7.635 -5.2470 -0.2147 -0.9371
   75SLPC   C28 6712   0.591   6.641   7.783  0.1328  0.3174  0.2990
   75SLPC   H8R 6713   0.495   6.588   7.803  1.6165 -2.3117  0.9208
   75SLPC   H8S 6714   0.578   6.751   7.772 -0.2964  0.1100 -1.8557
   75SLPC   C29 6715   0.703   6.598   7.874 -0.5977 -0.2065 -0.1620
   75SLPC   H9R 6716   0.796   6.565   7.825 -1.0899  0.0851 -1.3316
   75SLPC  C210 6717   0.700   6.604   8.007  0.1956 -0.1694 -0.4413
   75SLPC  H10R 6718   0.790   6.566   8.059  0.4020 -2.5872 -2.3782
   75SLPC  C211 6719   0.584   6.659   8.086  0.2351 -0.5098 -0.8606
   75SLPC  H11R 6720   0.503   6.686   8.014  2.6049  3.1608 -2.4371
   75SLPC  H11S 6721   0.617   6.750   8.140  4.1162 -1.6734 -0.9565
   75SLPC  C212 6722   0.537   6.551   8.180 -0.0302 -0.3338  1.0348
   75SLPC  H12R 6723   0.467   6.480   8.133  1.1945 -1.0349  0.1923
   75SLPC  C213 6724   0.601   6.524   8.300  0.1909 -0.0968  0.3827
   75SLPC  H13R 6725   0.557   6.445   8.362  0.5004 -0.8019 -0.2657
   75SLPC  C214 6726   0.719   6.604   8.354  0.4773 -0.3869  0.2110
   75SLPC  H14R 6727   0.721   6.709   8.317 -1.2814  0.0062  1.1048
   75SLPC  H14S 6728   0.819   6.561   8.330  1.5472  1.4284  1.2618
   75SLPC  C215 6729   0.702   6.622   8.501  0.0491  0.6486  0.2457
   75SLPC  H15R 6730   0.654   6.530   8.538 -0.2445  0.8248  0.3036
   75SLPC  H15S 6731   0.629   6.700   8.533  0.4455  0.1198  2.5543
   75SLPC  C216 6732   0.835   6.627   8.584 -0.3220  0.0249 -0.6624
   75SLPC  H16R 6733   0.897   6.713   8.552 -1.6987  1.0968 -0.5330
   75SLPC  H16S 6734   0.887   6.530   8.569 -0.7751 -0.3740  0.2514
   75SLPC  C217 6735   0.813   6.624   8.732 -0.2363  0.2396 -0.5193
   75SLPC  H17R 6736   0.757   6.531   8.758  3.8650 -2.2401  0.4625
   75SLPC  H17S 6737   0.749   6.709   8.762 -2.1454 -0.6213 -1.9306
   75SLPC  C218 6738   0.949   6.615   8.806  0.6837 -0.0421  0.4320
   75SLPC  H18R 6739   1.001   6.712   8.790  0.8514 -0.1805  0.1358
   75SLPC  H18S 6740   1.012   6.533   8.767 -0.7584 -0.6512 -0.7055
   75SLPC  H18T 6741   0.924   6.606   8.914  0.1433 -2.0610  0.1679
   75SLPC   C33 6742   0.556   7.078   7.074 -0.5078 -0.0639  0.0064
   75SLPC   H3X 6743   0.454   7.090   7.116 -0.2591  1.0740  0.3221
   75SLPC   H3Y 6744   0.564   6.977   7.027  0.1271  0.7228 -1.6645
   75SLPC   C34 6745   0.664   7.097   7.174 -0.0058  0.2253  0.5503
   75SLPC   H4X 6746   0.660   7.205   7.202 -0.3297  0.1657  0.7510
   75SLPC   H4Y 6747   0.762   7.072   7.130 -0.4346 -1.3362  0.4364
   75SLPC   C35 6748   0.647   7.013   7.309  0.5847  0.2717 -0.1026
   75SLPC   H5X 6749   0.646   6.905   7.286 -0.5739  0.4621 -1.0831
   75SLPC   H5Y 6750   0.542   7.036   7.340  0.3021 -0.3568 -0.5806
   75SLPC   C36 6751   0.739   7.050   7.426 -0.3315  0.0780  0.3515
   75SLPC   H6X 6752   0.744   7.161   7.415 -2.3576  0.0140 -2.5413
   75SLPC   H6Y 6753   0.844   7.019   7.407 -0.7928 -1.6363  0.4816
   75SLPC   C37 6754   0.699   7.020   7.568 -0.0021  0.0733 -0.7360
   75SLPC   H7X 6755   0.788   7.010   7.633 -0.4370 -0.0745 -0.1555
   75SLPC   H7Y 6756   0.665   6.915   7.581  0.8615 -0.2248 -0.8082
   75SLPC   C38 6757   0.590   7.117   7.624 -0.0033 -0.1853 -0.1676
   75SLPC   H8X 6758   0.490   7.083   7.592 -0.7165 -0.3943  2.1087
   75SLPC   H8Y 6759   0.605   7.221   7.590 -1.5640  0.4352  0.9279
   75SLPC   C39 6760   0.595   7.110   7.779  0.0576 -0.3322  0.4571
   75SLPC   H9X 6761   0.568   7.009   7.817  0.6868 -0.1102  1.5259
   75SLPC   H9Y 6762   0.518   7.184   7.810 -0.0989 -0.6544  0.8442
   75SLPC  C310 6763   0.733   7.167   7.832  0.1797 -0.9041 -1.1244
   75SLPC  H10X 6764   0.773   7.258   7.781 -0.7146  0.8689  1.1711
   75SLPC  H10Y 6765   0.812   7.090   7.818  0.0820 -1.0885 -0.6834
   75SLPC  C311 6766   0.733   7.198   7.990  0.0951  0.6196  0.0444
   75SLPC  H11X 6767   0.640   7.255   8.013 -1.0613 -0.9821 -0.4698
   75SLPC  H11Y 6768   0.820   7.261   8.017 -0.7307  1.8107 -0.0112
   75SLPC  C312 6769   0.720   7.072   8.086 -0.6445 -0.4890  0.0823
   75SLPC  H12X 6770   0.813   7.012   8.070  0.3660  0.9747  0.2255
   75SLPC  H12Y 6771   0.629   7.014   8.061 -1.2724  1.6068 -3.0359
   75SLPC  C313 6772   0.714   7.125   8.238 -0.7317 -0.0375 -0.2482
   75SLPC  H13X 6773   0.635   7.201   8.254 -1.3903 -0.7063 -0.2609
   75SLPC  H13Y 6774   0.803   7.186   8.264 -1.0844 -0.6475  2.8733
   75SLPC  C314 6775   0.713   7.001   8.326 -0.4180  0.1113  0.1087
   75SLPC  H14X 6776   0.801   6.938   8.304 -1.4021 -0.5521 -2.2907
   75SLPC  H14Y 6777   0.629   6.938   8.287  0.7172 -1.0553 -0.5191
   75SLPC  C315 6778   0.706   7.031   8.475  0.5749  0.4766  0.0263
   75SLPC  H15X 6779   0.713   6.934   8.529 -2.8751 -0.0048 -0.1369
   75SLPC  H15Y 6780   0.606   7.077   8.493 -0.8551 -2.2788 -0.2894
   75SLPC  C316 6781   0.819   7.131   8.520  0.4087  0.0064 -0.0162
   75SLPC  H16X 6782   0.787   7.235   8.496 -1.6034 -0.8300 -1.2086
   75SLPC  H16Y 6783   0.903   7.115   8.448  1.8584  0.4819  1.5051
   75SLPC  C317 6784   0.884   7.115   8.649  0.7391 -0.2230  0.8509
   75SLPC  H17X 6785   0.814   7.124   8.735  1.2834 -1.5094  1.4551
   75SLPC  H17Y 6786   0.960   7.194   8.667  1.2416 -0.2897 -0.8234
   75SLPC  C318 6787   0.953   6.979   8.666 -0.3146  0.5088 -0.8618
   75SLPC  H18X 6788   0.879   6.898   8.680  0.4660 -0.0755  0.0011
   75SLPC  H18Y 6789   1.010   6.976   8.761 -2.6339  0.6630  0.6037
   75SLPC  H18Z 6790   1.011   6.954   8.574 -0.5072 -0.9303 -0.6136
   76SLPC     N 6791   4.304   5.735   5.810 -0.3484  0.2066 -0.5485
   76SLPC   C13 6792   4.232   5.817   5.903  0.2268 -0.1371 -0.0169
   76SLPC  H13A 6793   4.293   5.859   5.982 -3.6582  0.3375  3.0175
   76SLPC  H13B 6794   4.185   5.895   5.846  0.1735 -1.2007 -1.4818
   76SLPC  H13C 6795   4.149   5.767   5.951 -0.0167 -1.7683 -2.0064
   76SLPC   C14 6796   4.419   5.814   5.762 -0.0432  0.1385 -0.3987
   76SLPC  H14A 6797   4.498   5.817   5.836 -0.8065  2.1908  0.4146
   76SLPC  H14B 6798   4.465   5.774   5.673 -0.9331 -0.6507 -0.5122
   76SLPC  H14C 6799   4.390   5.914   5.733  1.3272 -0.0867 -2.8053
   76SLPC   C15 6800   4.220   5.716   5.684  0.2023  0.3414 -1.0682
   76SLPC  H15A 6801   4.175   5.809   5.653 -2.4734 -0.5550 -0.2304
   76SLPC  H15B 6802   4.277   5.673   5.603  2.3954  2.2239 -0.6120
   76SLPC  H15C 6803   4.133   5.656   5.707  1.0893 -0.1693  1.1456
   76SLPC   C12 6804   4.345   5.601   5.866  0.0043 -1.1958 -0.1094
   76SLPC  H12A 6805   4.418   5.564   5.796  3.0839  3.2862  0.3307
   76SLPC  H12B 6806   4.258   5.537   5.874 -0.8434  0.1199  2.2515
   76SLPC   C11 6807   4.406   5.615   6.009 -0.2893 -0.8087 -0.0243
   76SLPC  H11A 6808   4.409   5.509   6.043  0.0730 -0.8937 -0.3076
   76SLPC  H11B 6809   4.338   5.668   6.078 -0.2533 -1.0812  0.2222
   76SLPC     P 6810   4.590   5.765   6.120  0.0494 -0.1378 -0.2139
   76SLPC   O13 6811   4.735   5.742   6.147 -0.3077  0.1487  0.5403
   76SLPC   O14 6812   4.560   5.905   6.087  0.5013  0.0352  0.2587
   76SLPC   O12 6813   4.538   5.671   6.010  0.1308 -0.2131 -0.1070
   76SLPC   O11 6814   4.517   5.727   6.252  0.1981  0.7735 -0.5039
   76SLPC    C1 6815   4.533   5.601   6.320 -0.4174 -0.1133 -0.8953
   76SLPC    HA 6816   4.495   5.515   6.261  0.4842 -0.4563 -0.9884
   76SLPC    HB 6817   4.640   5.582   6.344 -0.7851 -1.8295 -0.4226
   76SLPC    C2 6818   4.462   5.611   6.451  0.3156  0.1742 -0.1137
   76SLPC    HS 6819   4.477   5.709   6.501  0.7634  0.0196  0.0600
   76SLPC   O21 6820   4.518   5.504   6.532  0.4263 -0.2945  0.1205
   76SLPC   C21 6821   4.549   5.536   6.653  0.4387  0.1108  0.1949
   76SLPC   O22 6822   4.546   5.647   6.703 -0.2192 -1.0095 -0.0201
   76SLPC   C22 6823   4.591   5.411   6.729 -0.3549  0.4173 -0.3159
   76SLPC   H2R 6824   4.535   5.324   6.689  0.2730  0.4816 -1.3564
   76SLPC   H2S 6825   4.698   5.390   6.706 -0.2241  1.0071 -0.2894
   76SLPC    C3 6826   4.311   5.572   6.448 -0.0233 -0.4236 -0.1954
   76SLPC    HX 6827   4.305   5.470   6.404 -2.1593  0.4097 -2.0282
   76SLPC    HY 6828   4.257   5.648   6.387  1.7927  1.4128  0.3530
   76SLPC   O31 6829   4.249   5.552   6.579 -0.5744  0.1435 -0.5847
   76SLPC   C31 6830   4.205   5.670   6.632 -0.6526  0.0551 -0.1636
   76SLPC   O32 6831   4.222   5.778   6.575  0.5132  0.1516 -0.0068
   76SLPC   C32 6832   4.124   5.646   6.761  0.6542 -0.1347  0.2490
   76SLPC   H2X 6833   4.187   5.564   6.803 -0.9358  0.0269  3.2674
   76SLPC   H2Y 6834   4.029   5.605   6.722  1.9832 -1.9997 -1.2245
   76SLPC   C23 6835   4.552   5.419   6.878 -0.3344  0.6755 -0.4002
   76SLPC   H3R 6836   4.445   5.389   6.889 -0.7794  2.0772 -0.6201
   76SLPC   H3S 6837   4.545   5.515   6.933  0.2049  0.3521  0.2419
   76SLPC   C24 6838   4.637   5.312   6.949 -0.4660  0.2655 -0.8404
   76SLPC   H4R 6839   4.744   5.340   6.962  0.1552 -2.6887  1.6050
   76SLPC   H4S 6840   4.639   5.215   6.895  0.6194 -0.2857  0.1481
   76SLPC   C25 6841   4.574   5.284   7.088 -0.5503 -0.4067 -0.1469
   76SLPC   H5R 6842   4.476   5.233   7.080 -0.8861 -0.0754  1.5977
   76SLPC   H5S 6843   4.557   5.380   7.141  0.4352 -0.9901  1.2835
   76SLPC   C26 6844   4.661   5.202   7.187  0.0543  0.0242  0.6900
   76SLPC   H6R 6845   4.748   5.262   7.221  0.3046  0.7973 -1.2050
   76SLPC   H6S 6846   4.702   5.111   7.138  1.4741  0.7642  0.4706
   76SLPC   C27 6847   4.574   5.154   7.308 -1.2963  0.0623 -0.2750
   76SLPC   H7R 6848   4.642   5.110   7.385 -1.3630 -0.2549 -0.3957
   76SLPC   H7S 6849   4.521   5.063   7.272 -1.3493  1.3109 -3.7468
   76SLPC   C28 6850   4.483   5.252   7.383  0.0329  0.1516 -0.1525
   76SLPC   H8R 6851   4.410   5.294   7.310 -1.4048 -2.5853 -0.4369
   76SLPC   H8S 6852   4.422   5.196   7.457  0.7015  0.1650  0.4078
   76SLPC   C29 6853   4.546   5.358   7.463 -0.3196 -0.2712 -0.0412
   76SLPC   H9R 6854   4.554   5.459   7.421 -0.7994 -0.7351 -1.2908
   76SLPC  C210 6855   4.577   5.340   7.592  0.4863 -0.1624  0.2711
   76SLPC  H10R 6856   4.634   5.417   7.646  0.4785  0.1272 -0.1304
   76SLPC  C211 6857   4.569   5.210   7.664  0.4040 -0.3884  0.2554
   76SLPC  H11R 6858   4.597   5.128   7.594  0.3951  0.4598 -0.7628
   76SLPC  H11S 6859   4.464   5.201   7.698 -0.0922  1.0799 -0.8287
   76SLPC  C212 6860   4.665   5.202   7.777 -0.3386  0.1342  0.6826
   76SLPC  H12R 6861   4.613   5.195   7.873 -0.1212  1.9746  0.9703
   76SLPC  C213 6862   4.798   5.189   7.775  0.8383 -0.7141  0.5206
   76SLPC  H13R 6863   4.853   5.175   7.869 -1.3220  1.5588  2.2447
   76SLPC  C214 6864   4.885   5.176   7.654 -1.1700  0.1853 -0.2616
   76SLPC  H14R 6865   4.973   5.244   7.642  0.9956 -1.6801  3.2713
   76SLPC  H14S 6866   4.828   5.194   7.561 -1.4027  1.5984  0.1205
   76SLPC  C215 6867   4.941   5.028   7.655  0.2762  0.1987  0.2704
   76SLPC  H15R 6868   4.856   4.957   7.659  1.0787 -0.8836 -1.2385
   76SLPC  H15S 6869   5.003   5.011   7.746 -1.3747 -0.7610  1.2720
   76SLPC  C216 6870   5.018   4.995   7.527  0.6496 -0.3934 -0.1492
   76SLPC  H16R 6871   5.106   5.063   7.525 -0.0942  0.6085  0.2922
   76SLPC  H16S 6872   4.948   5.013   7.443  1.3326 -1.1125 -0.8852
   76SLPC  C217 6873   5.054   4.847   7.533 -0.0362 -0.1834 -0.2060
   76SLPC  H17R 6874   4.971   4.782   7.567 -0.9830  0.6635 -0.8262
   76SLPC  H17S 6875   5.135   4.839   7.608  0.8096 -2.8335 -1.2942
   76SLPC  C218 6876   5.107   4.787   7.410  0.1917  0.8880  0.4593
   76SLPC  H18R 6877   5.016   4.779   7.347 -0.6177 -3.1805  1.7862
   76SLPC  H18S 6878   5.155   4.688   7.428  1.6663  1.5344  0.1909
   76SLPC  H18T 6879   5.192   4.839   7.362  1.1737  1.0730  2.2976
   76SLPC   C33 6880   4.110   5.778   6.837 -0.3180 -0.2084 -1.0954
   76SLPC   H3X 6881   4.053   5.849   6.774  1.4813 -0.1640 -2.7369
   76SLPC   H3Y 6882   4.209   5.824   6.854 -0.1687 -1.0092  0.3916
   76SLPC   C34 6883   4.025   5.761   6.967  0.0149  0.3659  0.1745
   76SLPC   H4X 6884   3.921   5.738   6.935  0.3221  0.1606 -0.7024
   76SLPC   H4Y 6885   4.022   5.853   7.030  3.2794  2.4114 -2.2942
   76SLPC   C35 6886   4.083   5.651   7.053 -0.0972  0.3767 -0.1834
   76SLPC   H5X 6887   4.061   5.554   7.004  1.2980  0.4873 -1.0992
   76SLPC   H5Y 6888   4.017   5.651   7.142 -0.5141 -0.8105 -0.4777
   76SLPC   C36 6889   4.231   5.663   7.082 -0.2595  0.1061  0.4792
   76SLPC   H6X 6890   4.246   5.761   7.133  0.6549 -0.6840  1.8001
   76SLPC   H6Y 6891   4.295   5.664   6.991  3.3334  1.7760  2.7579
   76SLPC   C37 6892   4.278   5.553   7.173  0.5174 -0.9799  0.1707
   76SLPC   H7X 6893   4.378   5.585   7.210  0.0152  2.3364 -0.9767
   76SLPC   H7Y 6894   4.299   5.456   7.122 -0.8051 -1.3167  0.2502
   76SLPC   C38 6895   4.186   5.524   7.289  0.8803 -0.1399 -0.2515
   76SLPC   H8X 6896   4.236   5.457   7.362  0.1762  0.8596  1.1976
   76SLPC   H8Y 6897   4.095   5.467   7.259  1.1471 -1.7593  1.7653
   76SLPC   C39 6898   4.137   5.647   7.371  0.0190 -0.6154 -0.7789
   76SLPC   H9X 6899   4.081   5.724   7.314 -0.5744  0.4790  1.1593
   76SLPC   H9Y 6900   4.220   5.686   7.434 -2.1216  0.6507  1.4308
   76SLPC  C310 6901   4.032   5.604   7.480  0.1886 -0.2835 -0.2219
   76SLPC  H10X 6902   3.936   5.569   7.436 -0.5475 -0.9251  1.8049
   76SLPC  H10Y 6903   3.998   5.693   7.539 -1.7860 -1.3883  0.4027
   76SLPC  C311 6904   4.079   5.501   7.584  0.2943  0.0064  0.0856
   76SLPC  H11X 6905   4.189   5.488   7.599  0.0141 -1.2454  1.2440
   76SLPC  H11Y 6906   4.041   5.404   7.546  2.1971 -0.7078 -0.1421
   76SLPC  C312 6907   4.021   5.520   7.725  0.2301  0.4183  0.3340
   76SLPC  H12X 6908   4.038   5.428   7.784 -0.4301 -1.3310 -2.0666
   76SLPC  H12Y 6909   3.911   5.530   7.714  0.4443  1.1846 -1.3673
   76SLPC  C313 6910   4.072   5.635   7.801  0.7437  0.6673 -0.0569
   76SLPC  H13X 6911   3.999   5.718   7.805  0.4348  0.4142 -0.3927
   76SLPC  H13Y 6912   4.158   5.674   7.742  0.3786 -2.3886 -2.8932
   76SLPC  C314 6913   4.128   5.609   7.938  0.5488 -0.2684  0.2094
   76SLPC  H14X 6914   4.181   5.702   7.966  1.1535 -0.3754 -0.5484
   76SLPC  H14Y 6915   4.207   5.531   7.931  1.3058  0.6215 -1.8709
   76SLPC  C315 6916   4.018   5.574   8.046  0.2709 -0.2200  0.4011
   76SLPC  H15X 6917   3.971   5.477   8.019  4.1906 -2.2253  0.1456
   76SLPC  H15Y 6918   3.950   5.661   8.029 -0.4098 -0.7353  0.4424
   76SLPC  C316 6919   4.066   5.566   8.191 -0.3394 -0.6660  0.3037
   76SLPC  H16X 6920   3.970   5.559   8.247 -0.8861 -0.2682 -0.5726
   76SLPC  H16Y 6921   4.121   5.661   8.207 -0.8490 -0.1033 -1.1853
   76SLPC  C317 6922   4.157   5.449   8.210 -0.5393  0.4295  0.4072
   76SLPC  H17X 6923   4.252   5.475   8.159 -0.0349 -0.0266  1.0955
   76SLPC  H17Y 6924   4.110   5.361   8.162 -0.9482  0.6439  0.4139
   76SLPC  C318 6925   4.191   5.416   8.359 -0.5743 -0.6870 -0.0849
   76SLPC  H18X 6926   4.210   5.506   8.421  0.3048 -1.3812  0.6919
   76SLPC  H18Y 6927   4.287   5.360   8.367 -0.8562 -0.9643  1.5780
   76SLPC  H18Z 6928   4.118   5.352   8.412 -0.4976 -0.3722  0.3993
   77SLPC     N 6929   0.456   5.193   6.009  0.0097 -0.0034  0.2507
   77SLPC   C13 6930   0.495   5.330   6.046 -0.3278 -1.2988  0.2809
   77SLPC  H13A 6931   0.528   5.386   5.959 -1.1023  0.1035  0.8640
   77SLPC  H13B 6932   0.402   5.366   6.086 -1.4541 -4.1854  0.4708
   77SLPC  H13C 6933   0.565   5.336   6.128 -0.8293  4.3768  0.6722
   77SLPC   C14 6934   0.561   5.147   5.924  0.2968  0.8841  0.3200
   77SLPC  H14A 6935   0.542   5.043   5.902 -1.7364  1.1586  0.5764
   77SLPC  H14B 6936   0.573   5.194   5.828  2.0314  0.4798  0.3043
   77SLPC  H14C 6937   0.662   5.146   5.963  1.0725 -0.0087 -1.5712
   77SLPC   C15 6938   0.327   5.186   5.937  0.2391 -0.2516 -0.1324
   77SLPC  H15A 6939   0.335   5.222   5.836  1.4057  1.1876  0.4366
   77SLPC  H15B 6940   0.307   5.083   5.909  0.8675 -0.3404 -0.2794
   77SLPC  H15C 6941   0.246   5.223   5.998  1.0996  1.3724  0.0687
   77SLPC   C12 6942   0.438   5.107   6.137 -0.6797  0.4278  0.6500
   77SLPC  H12A 6943   0.440   5.006   6.099  0.0479  1.5065 -2.5531
   77SLPC  H12B 6944   0.348   5.130   6.191 -1.7741 -0.9232 -0.5214
   77SLPC   C11 6945   0.551   5.119   6.253 -0.4648  0.2335 -0.6173
   77SLPC  H11A 6946   0.653   5.098   6.215 -0.0326  1.0680  0.0452
   77SLPC  H11B 6947   0.542   5.042   6.332 -1.6745  0.2492 -0.7224
   77SLPC     P 6948   0.449   5.286   6.445 -0.4119  0.3289  0.3563
   77SLPC   O13 6949   0.493   5.415   6.513  0.0108  0.3811  0.3197
   77SLPC   O14 6950   0.311   5.290   6.387  0.1415  0.4950  0.1792
   77SLPC   O12 6951   0.546   5.250   6.323 -0.0451 -0.4568  0.2453
   77SLPC   O11 6952   0.472   5.159   6.531 -0.6552 -0.3121 -0.0823
   77SLPC    C1 6953   0.383   5.050   6.555 -0.3540 -0.3433 -0.4119
   77SLPC    HA 6954   0.300   5.044   6.482 -0.2633  1.6144 -0.7170
   77SLPC    HB 6955   0.441   4.957   6.534 -0.2369  0.0234 -1.7443
   77SLPC    C2 6956   0.323   5.055   6.704  0.1252  0.4587  0.4499
   77SLPC    HS 6957   0.251   5.139   6.697 -1.2413 -0.7656 -1.0015
   77SLPC   O21 6958   0.424   5.090   6.806 -0.6443 -0.0331 -0.4772
   77SLPC   C21 6959   0.535   5.018   6.810  0.5353 -0.0217  0.1991
   77SLPC   O22 6960   0.556   4.916   6.747  0.2355  0.2798  0.3544
   77SLPC   C22 6961   0.630   5.079   6.913  0.3605 -0.2128  0.2873
   77SLPC   H2R 6962   0.700   5.147   6.860 -0.7878  0.1227 -0.8348
   77SLPC   H2S 6963   0.571   5.145   6.981  0.8022  0.8803 -0.3641
   77SLPC    C3 6964   0.252   4.916   6.734  0.2151  0.4032  0.1578
   77SLPC    HX 6965   0.333   4.847   6.703 -0.1470 -0.4031  0.9491
   77SLPC    HY 6966   0.165   4.900   6.667 -0.5602  0.2797  1.1700
   77SLPC   O31 6967   0.235   4.894   6.876 -0.5334  0.2151 -0.1696
   77SLPC   C31 6968   0.111   4.914   6.922 -0.7899 -0.5334 -0.3944
   77SLPC   O32 6969   0.009   4.926   6.857  0.1426 -0.7842  0.2218
   77SLPC   C32 6970   0.115   4.883   7.074 -0.0957 -1.0148  0.3483
   77SLPC   H2X 6971   0.186   4.947   7.130  0.3951 -0.8853 -0.4021
   77SLPC   H2Y 6972   0.140   4.775   7.084 -0.0905 -0.9943  0.5664
   77SLPC   C23 6973   0.713   4.981   6.991 -0.5647  0.5559  0.7689
   77SLPC   H3R 6974   0.760   4.910   6.919  1.3875  0.8030  1.7111
   77SLPC   H3S 6975   0.652   4.918   7.059 -1.2536 -0.8678 -1.0702
   77SLPC   C24 6976   0.836   5.043   7.054  0.0020 -0.1492 -0.1075
   77SLPC   H4R 6977   0.889   5.102   6.976  1.1526 -2.7662 -1.4458
   77SLPC   H4S 6978   0.912   4.967   7.080  0.9269  0.5090 -0.8223
   77SLPC   C25 6979   0.793   5.117   7.180 -0.0781  0.3914  0.2482
   77SLPC   H5R 6980   0.758   5.033   7.243 -1.6508 -0.1534 -1.2854
   77SLPC   H5S 6981   0.713   5.188   7.149 -1.5863 -1.4837 -0.3037
   77SLPC   C26 6982   0.898   5.198   7.256 -1.0248  0.0673  0.4087
   77SLPC   H6R 6983   0.927   5.286   7.194 -0.8213 -0.6289 -0.5124
   77SLPC   H6S 6984   0.987   5.131   7.250 -0.4376  0.9074 -0.8030
   77SLPC   C27 6985   0.857   5.238   7.394  0.9622 -0.1917 -0.5396
   77SLPC   H7R 6986   0.817   5.153   7.454  0.0984 -0.6477 -1.7026
   77SLPC   H7S 6987   0.763   5.297   7.393  0.3100 -1.1971 -0.5413
   77SLPC   C28 6988   0.958   5.320   7.481  0.0901 -0.3048 -0.3780
   77SLPC   H8R 6989   0.896   5.364   7.561 -0.6135 -2.5635  0.3946
   77SLPC   H8S 6990   0.976   5.411   7.420  2.3271 -0.6395 -0.3195
   77SLPC   C29 6991   1.075   5.249   7.537 -0.1529 -0.2570 -0.0376
   77SLPC   H9R 6992   1.161   5.236   7.470  0.2184  0.3035  0.3245
   77SLPC  C210 6993   1.080   5.191   7.653 -0.8604 -0.1481 -1.0258
   77SLPC  H10R 6994   1.177   5.153   7.688 -0.4016  3.3518  2.0446
   77SLPC  C211 6995   0.967   5.179   7.754 -0.3544 -0.0555 -0.0850
   77SLPC  H11R 6996   0.942   5.071   7.762  2.0886 -0.7285 -0.7561
   77SLPC  H11S 6997   0.868   5.226   7.737 -2.3218 -3.9396 -0.3663
   77SLPC  C212 6998   1.014   5.209   7.894 -0.3823  0.0576  0.4436
   77SLPC  H12R 6999   1.115   5.251   7.905 -0.1625 -0.6024  1.0681
   77SLPC  C213 7000   0.948   5.197   8.006 -0.1540  0.0867  0.1014
   77SLPC  H13R 7001   1.009   5.214   8.095 -0.4918  0.6306  0.2385
   77SLPC  C214 7002   0.809   5.146   8.027 -0.1484  0.5094  0.6379
   77SLPC  H14R 7003   0.809   5.039   8.058  0.6993 -0.3285 -1.9524
   77SLPC  H14S 7004   0.751   5.140   7.933 -1.2432  0.3793  1.3032
   77SLPC  C215 7005   0.739   5.234   8.131  0.6202  1.1679 -0.5241
   77SLPC  H15R 7006   0.760   5.340   8.107 -0.6754  0.7713 -4.0151
   77SLPC  H15S 7007   0.787   5.200   8.225 -0.1992 -0.0814 -0.5384
   77SLPC  C216 7008   0.591   5.202   8.155  0.2730 -0.7874 -0.2399
   77SLPC  H16R 7009   0.567   5.099   8.188  1.3269 -0.3909  1.9530
   77SLPC  H16S 7010   0.536   5.232   8.063  0.1557 -0.2318  0.0069
   77SLPC  C217 7011   0.548   5.291   8.270 -0.1123 -0.1985  0.1870
   77SLPC  H17R 7012   0.531   5.394   8.231  1.2575 -0.2588 -0.6564
   77SLPC  H17S 7013   0.627   5.298   8.348  0.2381 -0.9483 -0.0886
   77SLPC  C218 7014   0.412   5.244   8.329 -0.3190 -0.3126  0.1389
   77SLPC  H18R 7015   0.430   5.146   8.378  2.8740  0.2273  0.2557
   77SLPC  H18S 7016   0.338   5.237   8.246 -0.3876  2.7110 -0.1423
   77SLPC  H18T 7017   0.357   5.311   8.398 -0.5464  1.1331 -1.3860
   77SLPC   C33 7018  -0.031   4.892   7.140 -0.2772  0.0464 -0.1371
   77SLPC   H3X 7019  -0.105   4.850   7.068  1.2109 -0.4885 -1.4184
   77SLPC   H3Y 7020  -0.056   4.999   7.155  2.4295  0.7326  0.0230
   77SLPC   C34 7021  -0.030   4.820   7.277  0.0500 -0.2846  0.7398
   77SLPC   H4X 7022  -0.023   4.712   7.252  0.3625  0.1220 -1.1334
   77SLPC   H4Y 7023  -0.135   4.833   7.311 -0.6718  0.4851 -1.5856
   77SLPC   C35 7024   0.080   4.876   7.369  0.4628  0.5762  0.3235
   77SLPC   H5X 7025   0.074   4.987   7.369 -0.5617  0.5301 -0.1669
   77SLPC   H5Y 7026   0.175   4.825   7.341 -0.7017 -1.0983 -0.6896
   77SLPC   C36 7027   0.053   4.825   7.511  0.2997 -0.5326  0.3439
   77SLPC   H6X 7028   0.114   4.733   7.524  0.0321 -0.7557  0.0573
   77SLPC   H6Y 7029  -0.051   4.784   7.505  0.2391 -0.4567  0.8422
   77SLPC   C37 7030   0.085   4.928   7.621  0.3055  0.7377 -0.0951
   77SLPC   H7X 7031   0.036   5.026   7.600  1.4155  1.1804 -0.6794
   77SLPC   H7Y 7032   0.191   4.959   7.609 -0.0317  1.9198 -0.1530
   77SLPC   C38 7033   0.047   4.877   7.756 -0.2124 -0.0078  0.1567
   77SLPC   H8X 7034   0.110   4.794   7.793  1.0785  2.0175  2.8282
   77SLPC   H8Y 7035  -0.058   4.839   7.750  0.0116 -0.7504  0.8022
   77SLPC   C39 7036   0.044   4.991   7.856 -0.1592 -0.2145  0.5268
   77SLPC   H9X 7037  -0.047   5.054   7.858  0.4007  0.6431 -0.0546
   77SLPC   H9Y 7038   0.120   5.069   7.836 -0.4030 -0.1288 -0.1033
   77SLPC  C310 7039   0.067   4.942   8.000  0.3007  0.1203  0.2894
   77SLPC  H10X 7040   0.173   4.910   8.006  0.3330 -0.0344 -0.8813
   77SLPC  H10Y 7041   0.007   4.848   8.012 -0.4938  0.6239  0.3541
   77SLPC  C311 7042   0.026   5.036   8.113 -0.1767 -0.0163 -0.0573
   77SLPC  H11X 7043   0.076   5.004   8.207  1.1729 -0.1729 -0.8032
   77SLPC  H11Y 7044  -0.083   5.023   8.130 -0.4498  0.6602 -1.1900
   77SLPC  C312 7045   0.036   5.186   8.090  0.1041  0.3272  1.0074
   77SLPC  H12X 7046  -0.037   5.213   8.010  1.7464  1.4837 -0.1688
   77SLPC  H12Y 7047   0.138   5.215   8.058 -0.7094  0.9925 -1.1697
   77SLPC  C313 7048   0.002   5.261   8.218  0.6730  0.0418 -1.8711
   77SLPC  H13X 7049   0.027   5.368   8.202 -3.1629  1.4909  0.4388
   77SLPC  H13Y 7050   0.070   5.232   8.301 -1.6383  1.7710  0.8283
   77SLPC  C314 7051  -0.144   5.240   8.269 -0.5855  0.6122  0.1690
   77SLPC  H14X 7052  -0.165   5.139   8.310  1.0352 -0.4773 -1.4956
   77SLPC  H14Y 7053  -0.215   5.256   8.185 -0.8391  1.3486  0.5141
   77SLPC  C315 7054  -0.181   5.351   8.363 -0.2736  0.2919 -0.5569
   77SLPC  H15X 7055  -0.153   5.449   8.318  0.7984  0.3252  0.1453
   77SLPC  H15Y 7056  -0.109   5.332   8.446 -0.2634  1.3728 -0.3028
   77SLPC  C316 7057  -0.327   5.338   8.413 -0.5367 -0.4948  0.1981
   77SLPC  H16X 7058  -0.342   5.230   8.438  0.7911 -0.9483 -0.8793
   77SLPC  H16Y 7059  -0.396   5.368   8.331  2.6403  0.4502 -2.3169
   77SLPC  C317 7060  -0.343   5.424   8.536  0.2304 -0.1811  0.2789
   77SLPC  H17X 7061  -0.263   5.398   8.609 -0.2035 -1.7596  0.2199
   77SLPC  H17Y 7062  -0.437   5.392   8.584  1.1196 -0.0165  2.2424
   77SLPC  C318 7063  -0.362   5.573   8.504  0.6411 -0.3186  0.4323
   77SLPC  H18X 7064  -0.453   5.573   8.440  1.2278 -1.0444 -0.4267
   77SLPC  H18Y 7065  -0.271   5.612   8.454  1.1781 -2.1150 -0.0653
   77SLPC  H18Z 7066  -0.387   5.639   8.590  2.7591  1.6708 -0.3736
   78SLPC     N 7067   1.568   4.660   6.628  0.7539 -0.3145 -0.5432
   78SLPC   C13 7068   1.579   4.731   6.497  0.1987 -0.6754  0.4331
   78SLPC  H13A 7069   1.627   4.664   6.427  2.7348 -2.1520  3.3292
   78SLPC  H13B 7070   1.488   4.782   6.470 -0.7263 -2.5592 -0.2297
   78SLPC  H13C 7071   1.651   4.810   6.514 -0.8596  0.3299  0.3659
   78SLPC   C14 7072   1.502   4.743   6.736 -0.2054 -0.4423  0.5774
   78SLPC  H14A 7073   1.547   4.841   6.738 -0.0522 -0.4319 -1.4069
   78SLPC  H14B 7074   1.397   4.756   6.713 -0.6191  0.6401  2.8124
   78SLPC  H14C 7075   1.517   4.695   6.832  1.6426  0.3119  0.7093
   78SLPC   C15 7076   1.705   4.631   6.672  0.2225  0.1702 -0.1024
   78SLPC  H15A 7077   1.707   4.576   6.764 -1.3786 -1.2776 -0.8661
   78SLPC  H15B 7078   1.745   4.568   6.594 -1.7529  2.6537 -3.4594
   78SLPC  H15C 7079   1.761   4.724   6.677  0.8704 -0.1295 -1.3185
   78SLPC   C12 7080   1.487   4.530   6.606 -0.1531  0.0602 -0.5513
   78SLPC  H12A 7081   1.385   4.557   6.581 -0.6685 -1.1231  0.1518
   78SLPC  H12B 7082   1.490   4.477   6.700  0.1407  0.7040 -0.1947
   78SLPC   C11 7083   1.538   4.445   6.492  1.4247 -0.1199 -0.3521
   78SLPC  H11A 7084   1.516   4.339   6.517  0.9486  0.5618  2.4637
   78SLPC  H11B 7085   1.649   4.449   6.483  1.3116  0.8624 -1.6556
   78SLPC     P 7086   1.320   4.514   6.340  0.3086 -0.1914 -0.1831
   78SLPC   O13 7087   1.303   4.655   6.299 -0.4650  0.2980  0.0011
   78SLPC   O14 7088   1.264   4.429   6.238 -0.3428  0.2460  0.7069
   78SLPC   O12 7089   1.476   4.484   6.369 -0.7574 -0.3713 -0.5200
   78SLPC   O11 7090   1.240   4.483   6.477  0.4668  0.7927 -0.4060
   78SLPC    C1 7091   1.216   4.344   6.521  0.1980 -0.1044 -0.7620
   78SLPC    HA 7092   1.254   4.269   6.448  0.1423  1.3055 -2.3058
   78SLPC    HB 7093   1.275   4.323   6.613  0.9611 -0.5294 -1.3329
   78SLPC    C2 7094   1.063   4.312   6.532  0.0875  0.4114 -0.5956
   78SLPC    HS 7095   1.015   4.347   6.438 -2.4843  2.1772  1.2228
   78SLPC   O21 7096   1.016   4.376   6.649 -0.2569 -0.3992 -0.0927
   78SLPC   C21 7097   0.887   4.409   6.650 -0.0734  0.6004 -0.7330
   78SLPC   O22 7098   0.816   4.396   6.549 -0.1622 -0.0099 -0.1615
   78SLPC   C22 7099   0.839   4.484   6.778  0.3758 -0.0648 -0.0240
   78SLPC   H2R 7100   0.862   4.591   6.763  4.0066 -0.6010  0.6399
   78SLPC   H2S 7101   0.729   4.472   6.783  0.3504  0.4064  0.5859
   78SLPC    C3 7102   1.031   4.158   6.535 -0.5265  0.0174 -0.3677
   78SLPC    HX 7103   1.104   4.093   6.483  2.4381  1.6182  1.5110
   78SLPC    HY 7104   0.939   4.135   6.477 -1.7228  0.3228  1.3384
   78SLPC   O31 7105   1.011   4.111   6.673 -0.0863  0.4246 -0.1584
   78SLPC   C31 7106   1.118   4.068   6.734 -0.2829 -0.3552 -0.2404
   78SLPC   O32 7107   1.227   4.045   6.677 -0.2155  0.3491  0.2075
   78SLPC   C32 7108   1.097   4.066   6.895  0.0657 -0.4140 -0.2151
   78SLPC   H2X 7109   1.139   3.968   6.925  2.6197  1.2233  2.1399
   78SLPC   H2Y 7110   0.990   4.068   6.923  0.1885  0.8678  0.2627
   78SLPC   C23 7111   0.892   4.432   6.908  0.2773 -0.8361  0.0715
   78SLPC   H3R 7112   0.998   4.459   6.927  0.4439 -1.6480  0.3585
   78SLPC   H3S 7113   0.887   4.322   6.924 -1.4780 -0.6954  0.6373
   78SLPC   C24 7114   0.821   4.500   7.028 -0.1024  0.1187  0.2914
   78SLPC   H4R 7115   0.727   4.443   7.044  0.1202 -0.5975 -0.8759
   78SLPC   H4S 7116   0.797   4.602   6.991 -1.4066 -0.1237  0.4230
   78SLPC   C25 7117   0.909   4.504   7.154 -0.6721  0.2133 -0.1936
   78SLPC   H5R 7118   0.997   4.563   7.120 -0.1488  0.2395  1.1423
   78SLPC   H5S 7119   0.943   4.399   7.170  1.2161  0.9313  0.8671
   78SLPC   C26 7120   0.857   4.554   7.287  0.0242  0.2656 -0.0538
   78SLPC   H6R 7121   0.946   4.548   7.353  0.8407  3.7701 -0.6592
   78SLPC   H6S 7122   0.775   4.490   7.328  0.3554 -0.0177  0.1749
   78SLPC   C27 7123   0.805   4.697   7.276  0.5043 -0.8439 -0.4938
   78SLPC   H7R 7124   0.727   4.691   7.198 -0.2536  1.5881  0.0171
   78SLPC   H7S 7125   0.881   4.774   7.251 -1.2600  1.4378  0.8693
   78SLPC   C28 7126   0.738   4.759   7.401 -0.0607 -0.0958 -0.1437
   78SLPC   H8R 7127   0.651   4.696   7.432  2.1190 -2.4686  1.5083
   78SLPC   H8S 7128   0.696   4.852   7.357  0.7859  0.8868  1.0725
   78SLPC   C29 7129   0.838   4.789   7.510  0.2074  0.1462 -0.5589
   78SLPC   H9R 7130   0.921   4.859   7.492  1.2390 -0.8951 -0.0335
   78SLPC  C210 7131   0.840   4.727   7.630 -1.0413 -0.3493 -0.4038
   78SLPC  H10R 7132   0.908   4.758   7.711 -2.6412 -0.2297  0.9519
   78SLPC  C211 7133   0.736   4.638   7.672  1.0270  1.3205 -0.0520
   78SLPC  H11R 7134   0.770   4.537   7.638 -1.2310  0.2757  0.5906
   78SLPC  H11S 7135   0.637   4.665   7.630  0.0311  0.5417  1.6914
   78SLPC  C212 7136   0.710   4.614   7.821  0.2980 -0.2828  0.1296
   78SLPC  H12R 7137   0.721   4.507   7.848 -0.8402  0.1743  2.6763
   78SLPC  C213 7138   0.658   4.700   7.912 -0.0500  0.6320  0.6206
   78SLPC  H13R 7139   0.633   4.664   8.013  1.9585 -3.3743 -0.1445
   78SLPC  C214 7140   0.619   4.841   7.874  0.1784  0.0324 -0.3653
   78SLPC  H14R 7141   0.697   4.893   7.814 -1.1374 -0.4240 -2.5798
   78SLPC  H14S 7142   0.613   4.895   7.971 -0.0716  1.1453 -0.9880
   78SLPC  C215 7143   0.485   4.863   7.793  1.1893  0.2653  0.4944
   78SLPC  H15R 7144   0.406   4.815   7.853  0.1379  0.2436 -0.8631
   78SLPC  H15S 7145   0.481   4.825   7.688  1.5654  2.7498 -0.4899
   78SLPC  C216 7146   0.441   5.016   7.776 -0.4615  0.1311 -0.1906
   78SLPC  H16R 7147   0.466   5.055   7.877  0.5740  1.0375 -0.7700
   78SLPC  H16S 7148   0.333   5.044   7.771 -0.4430  0.9197  2.3425
   78SLPC  C217 7149   0.526   5.101   7.670  0.0388  0.2669  0.0317
   78SLPC  H17R 7150   0.630   5.067   7.693 -0.7591 -2.4228  0.0657
   78SLPC  H17S 7151   0.512   5.209   7.694  2.5279  0.3599  1.4542
   78SLPC  C218 7152   0.510   5.074   7.521  0.3106 -0.1567 -0.1532
   78SLPC  H18R 7153   0.497   4.967   7.495  2.6440 -0.6547  0.5295
   78SLPC  H18S 7154   0.606   5.102   7.472  0.9475 -0.2545  1.0087
   78SLPC  H18T 7155   0.424   5.137   7.490 -0.0158  0.7044  2.2694
   78SLPC   C33 7156   1.168   4.182   6.971 -0.4600  0.1766  0.1926
   78SLPC   H3X 7157   1.122   4.278   6.941 -0.3388 -0.2719 -1.5117
   78SLPC   H3Y 7158   1.274   4.189   6.937  0.0131  0.6113  1.6471
   78SLPC   C34 7159   1.172   4.188   7.123 -0.1474  0.2381 -0.0382
   78SLPC   H4X 7160   1.198   4.083   7.150 -1.1697 -0.0014  0.0811
   78SLPC   H4Y 7161   1.072   4.215   7.163 -0.3873  2.3376 -1.9109
   78SLPC   C35 7162   1.268   4.290   7.195  0.4314  0.4373  0.2183
   78SLPC   H5X 7163   1.237   4.391   7.162  1.9639  0.5276 -1.1091
   78SLPC   H5Y 7164   1.370   4.268   7.157 -0.3438  0.0628 -1.7724
   78SLPC   C36 7165   1.269   4.279   7.349 -0.2018 -0.3198  0.2993
   78SLPC   H6X 7166   1.348   4.345   7.392 -1.0166  1.7315 -1.2097
   78SLPC   H6Y 7167   1.289   4.174   7.381  0.6378  0.3690  2.2216
   78SLPC   C37 7168   1.138   4.323   7.408 -0.0134  0.5877 -0.0458
   78SLPC   H7X 7169   1.048   4.285   7.355  0.7051 -1.2574 -0.0036
   78SLPC   H7Y 7170   1.141   4.434   7.419 -0.2490  0.4821  1.1835
   78SLPC   C38 7171   1.126   4.253   7.550  0.4841  0.6309 -0.0581
   78SLPC   H8X 7172   1.139   4.144   7.535 -1.1900  0.6297 -1.8557
   78SLPC   H8Y 7173   1.025   4.279   7.589  0.4888  0.2402  0.2261
   78SLPC   C39 7174   1.231   4.299   7.652 -0.3488  0.4038 -0.0943
   78SLPC   H9X 7175   1.224   4.409   7.650  1.4306  0.5689  0.8314
   78SLPC   H9Y 7176   1.334   4.275   7.617 -0.5509 -0.5542 -0.0641
   78SLPC  C310 7177   1.196   4.246   7.796 -0.3704 -0.0450  0.1043
   78SLPC  H10X 7178   1.279   4.185   7.838 -0.2930 -0.9024 -1.2426
   78SLPC  H10Y 7179   1.104   4.186   7.778 -0.5236  0.3652 -0.5257
   78SLPC  C311 7180   1.171   4.359   7.901  0.1087 -0.1658  0.0429
   78SLPC  H11X 7181   1.103   4.442   7.872 -0.4882 -0.7468 -0.2356
   78SLPC  H11Y 7182   1.273   4.399   7.922  0.0102 -0.3322  0.8611
   78SLPC  C312 7183   1.117   4.291   8.032 -0.3362  0.9748 -0.8559
   78SLPC  H12X 7184   1.035   4.223   8.000 -1.3522  0.3965  2.5293
   78SLPC  H12Y 7185   1.079   4.370   8.100 -0.3698  0.3905 -0.1898
   78SLPC  C313 7186   1.221   4.199   8.097  0.1794  0.8108 -0.0348
   78SLPC  H13X 7187   1.249   4.116   8.029  2.3120 -0.7378  2.5180
   78SLPC  H13Y 7188   1.159   4.147   8.174  0.1806  2.0543  0.8329
   78SLPC  C314 7189   1.342   4.274   8.155 -0.4581 -0.2642 -0.5686
   78SLPC  H14X 7190   1.311   4.371   8.199  1.3957 -0.0466  0.3684
   78SLPC  H14Y 7191   1.410   4.296   8.070  0.3450  2.3690  0.6462
   78SLPC  C315 7192   1.423   4.197   8.255  0.2412  0.1593  0.4445
   78SLPC  H15X 7193   1.471   4.109   8.207 -1.7780 -1.3270  1.0155
   78SLPC  H15Y 7194   1.354   4.160   8.334  0.0564  0.8224  0.5991
   78SLPC  C316 7195   1.518   4.295   8.325  0.1867 -0.0699 -0.0198
   78SLPC  H16X 7196   1.460   4.375   8.376  1.7288  0.5008  0.9218
   78SLPC  H16Y 7197   1.580   4.344   8.246 -2.9519  2.7744 -0.9510
   78SLPC  C317 7198   1.606   4.230   8.435 -0.0528  0.7607  0.2343
   78SLPC  H17X 7199   1.641   4.131   8.399  2.0637  1.3870  0.4038
   78SLPC  H17Y 7200   1.534   4.211   8.517 -0.8834 -0.3000 -0.7168
   78SLPC  C318 7201   1.731   4.312   8.486  0.0801  0.5278 -0.0861
   78SLPC  H18X 7202   1.704   4.401   8.546  2.1517  0.8979  0.3647
   78SLPC  H18Y 7203   1.786   4.355   8.400 -0.4897  0.4733 -0.4881
   78SLPC  H18Z 7204   1.814   4.265   8.543  1.4157  2.7998 -0.0367
   79SLPC     N 7205   6.655   0.970   6.230  0.2851  0.5575  0.0615
   79SLPC   C13 7206   6.716   1.039   6.108  0.4877  0.6301 -0.0240
   79SLPC  H13A 7207   6.823   1.031   6.111  0.4798  0.4308 -0.2417
   79SLPC  H13B 7208   6.679   0.992   6.018  2.6637 -0.3850 -0.4574
   79SLPC  H13C 7209   6.705   1.147   6.108 -1.6213  0.4633 -1.1232
   79SLPC   C14 7210   6.722   0.844   6.247  0.0837  0.4031 -0.1463
   79SLPC  H14A 7211   6.692   0.799   6.340 -1.9708  1.3080 -0.3061
   79SLPC  H14B 7212   6.693   0.770   6.173  1.6193  0.4012 -0.7737
   79SLPC  H14C 7213   6.829   0.854   6.254 -0.0542  1.9040  0.0461
   79SLPC   C15 7214   6.511   0.962   6.218 -0.1339  0.2097  0.1895
   79SLPC  H15A 7215   6.465   1.053   6.182 -0.5262  0.6541  1.7344
   79SLPC  H15B 7216   6.477   0.886   6.149 -3.1486  0.0480  1.6979
   79SLPC  H15C 7217   6.462   0.933   6.310  1.1743 -2.3729  0.1632
   79SLPC   C12 7218   6.696   1.047   6.358  0.0452 -0.2847 -0.5904
   79SLPC  H12A 7219   6.643   1.005   6.442 -0.9195 -0.2223 -1.1514
   79SLPC  H12B 7220   6.662   1.149   6.357  1.6199  0.3875  2.2884
   79SLPC   C11 7221   6.845   1.076   6.389  0.0251  0.0947 -0.0527
   79SLPC  H11A 7222   6.893   0.976   6.385  0.8178  0.4703 -3.5893
   79SLPC  H11B 7223   6.865   1.102   6.495  1.6089 -0.5573 -0.1466
   79SLPC     P 7224   7.059   1.215   6.324  0.2621 -0.3120  0.1967
   79SLPC   O13 7225   7.159   1.117   6.297 -0.6397  0.1131 -0.1678
   79SLPC   O14 7226   7.078   1.333   6.242 -0.3238  0.0542  0.2845
   79SLPC   O12 7227   6.911   1.161   6.295  0.0299  0.3160  0.1549
   79SLPC   O11 7228   7.063   1.256   6.473  0.0854  0.3554  0.4375
   79SLPC    C1 7229   6.975   1.348   6.534  0.1260  0.3413  0.4523
   79SLPC    HA 7230   6.881   1.375   6.481  1.5013  4.9405 -0.0114
   79SLPC    HB 7231   6.945   1.305   6.632  0.5210  3.0226  1.8229
   79SLPC    C2 7232   7.059   1.475   6.570  0.1896 -0.3669  0.1703
   79SLPC    HS 7233   7.111   1.500   6.476 -1.6093 -1.8318 -1.3006
   79SLPC   O21 7234   7.146   1.439   6.673 -0.0872  0.5002 -0.5695
   79SLPC   C21 7235   7.256   1.511   6.666  0.5029 -0.1699  0.1916
   79SLPC   O22 7236   7.270   1.595   6.581 -0.6752  0.3774  0.2641
   79SLPC   C22 7237   7.354   1.469   6.773 -0.5826  0.2568 -0.1553
   79SLPC   H2R 7238   7.300   1.409   6.849  0.0827  0.3358  0.3839
   79SLPC   H2S 7239   7.429   1.412   6.714 -2.3008 -0.6809 -1.5498
   79SLPC    C3 7240   6.961   1.595   6.594  0.4951  0.3601 -0.1485
   79SLPC    HX 7241   6.879   1.573   6.522 -0.4234 -0.9036  1.2481
   79SLPC    HY 7242   7.004   1.689   6.551  0.7470 -0.6939 -2.3718
   79SLPC   O31 7243   6.892   1.591   6.721  0.2016 -0.0822  0.5824
   79SLPC   C31 7244   6.973   1.651   6.816  0.6956 -0.8464 -0.1272
   79SLPC   O32 7245   7.066   1.721   6.790  0.2992 -0.7714  0.9376
   79SLPC   C32 7246   6.938   1.607   6.957  0.8218  0.2465  0.5657
   79SLPC   H2X 7247   6.944   1.496   6.955  0.2115  0.2190 -0.3725
   79SLPC   H2Y 7248   6.836   1.639   6.987 -0.9951 -1.4784 -3.1027
   79SLPC   C23 7249   7.410   1.601   6.845 -0.1384 -0.4720  0.1887
   79SLPC   H3R 7250   7.318   1.652   6.884 -0.6299  0.0787 -1.5973
   79SLPC   H3S 7251   7.439   1.684   6.777  0.4827  0.8400  1.9714
   79SLPC   C24 7252   7.511   1.565   6.956  0.4047  0.0422 -0.1929
   79SLPC   H4R 7253   7.536   1.657   7.012  2.6889 -0.2141 -0.6955
   79SLPC   H4S 7254   7.608   1.530   6.915  0.5687 -2.7320  2.2053
   79SLPC   C25 7255   7.468   1.450   7.049  0.5367  0.2404 -0.1333
   79SLPC   H5R 7256   7.478   1.365   6.978 -1.8365  0.4242 -0.7749
   79SLPC   H5S 7257   7.361   1.455   7.078 -0.1058 -1.7885 -1.9614
   79SLPC   C26 7258   7.548   1.428   7.184  0.4826 -0.6463  0.1647
   79SLPC   H6R 7259   7.653   1.405   7.153 -0.4111 -1.0949 -2.8008
   79SLPC   H6S 7260   7.505   1.342   7.239 -1.2035 -0.3169 -0.6030
   79SLPC   C27 7261   7.551   1.546   7.284 -0.6492 -0.5428 -0.0267
   79SLPC   H7R 7262   7.446   1.577   7.303  0.0672  1.6660  0.6515
   79SLPC   H7S 7263   7.593   1.635   7.232 -2.7475 -1.2140 -3.1018
   79SLPC   C28 7264   7.632   1.521   7.414 -1.0363 -0.9668  0.2107
   79SLPC   H8R 7265   7.636   1.616   7.472 -1.1928 -0.7559 -0.1207
   79SLPC   H8S 7266   7.735   1.509   7.374 -1.7549 -1.3774 -1.6066
   79SLPC   C29 7267   7.583   1.410   7.495 -0.3206  0.0885  0.1525
   79SLPC   H9R 7268   7.581   1.311   7.448  0.8263 -0.9489  2.1724
   79SLPC  C210 7269   7.526   1.426   7.615 -0.1370  0.7588 -0.1648
   79SLPC  H10R 7270   7.488   1.334   7.662 -0.7252  0.9688 -0.2199
   79SLPC  C211 7271   7.494   1.546   7.694  0.1454 -0.7431 -0.2172
   79SLPC  H11R 7272   7.460   1.624   7.622 -2.4141 -1.1906  0.4335
   79SLPC  H11S 7273   7.579   1.602   7.740  0.1060 -0.1527 -0.8437
   79SLPC  C212 7274   7.382   1.515   7.786 -0.0208  0.2188 -0.2251
   79SLPC  H12R 7275   7.292   1.485   7.729 -0.8963 -0.1525  1.2934
   79SLPC  C213 7276   7.374   1.522   7.918  0.4038  0.5292 -0.0055
   79SLPC  H13R 7277   7.279   1.483   7.957  0.3580  0.6029 -0.0422
   79SLPC  C214 7278   7.478   1.562   8.018  0.8834 -0.3957 -0.2347
   79SLPC  H14R 7279   7.428   1.638   8.082  2.4254  0.0907  0.4210
   79SLPC  H14S 7280   7.569   1.613   7.980  3.2671 -3.2327  1.2980
   79SLPC  C215 7281   7.529   1.451   8.104  0.4741  0.2722 -0.2773
   79SLPC  H15R 7282   7.445   1.382   8.126 -0.7374  1.7557 -0.0881
   79SLPC  H15S 7283   7.571   1.480   8.202 -0.8897 -1.0485  0.7449
   79SLPC  C216 7284   7.638   1.371   8.028  0.0336 -0.5374 -0.2933
   79SLPC  H16R 7285   7.730   1.431   8.013 -1.1314  1.8486  1.4917
   79SLPC  H16S 7286   7.596   1.348   7.928  1.5967  1.1867 -1.4058
   79SLPC  C217 7287   7.685   1.239   8.091  0.3034  0.9918 -0.1438
   79SLPC  H17R 7288   7.749   1.182   8.020  0.8120  0.8586  0.4249
   79SLPC  H17S 7289   7.610   1.170   8.136 -0.8784  1.4410 -1.3439
   79SLPC  C218 7290   7.778   1.267   8.212 -0.1975  0.4330  0.8086
   79SLPC  H18R 7291   7.860   1.332   8.173  0.5163 -0.1527  1.3055
   79SLPC  H18S 7292   7.812   1.165   8.241 -1.1727 -0.9516 -2.4638
   79SLPC  H18T 7293   7.720   1.318   8.292  1.5183  2.1031  1.0498
   79SLPC   C33 7294   7.052   1.652   7.055  0.7708  0.9633 -0.1156
   79SLPC   H3X 7295   7.018   1.754   7.082  0.9077  0.9244  0.2125
   79SLPC   H3Y 7296   7.151   1.655   7.005 -0.4965  2.0457 -2.7299
   79SLPC   C34 7297   7.048   1.570   7.187 -0.1695 -0.0986  0.6036
   79SLPC   H4X 7298   7.118   1.485   7.171  0.8826  0.6422  1.1974
   79SLPC   H4Y 7299   6.944   1.532   7.202 -0.8051  1.5830  0.6391
   79SLPC   C35 7300   7.098   1.645   7.311 -0.0087  0.6722 -0.0085
   79SLPC   H5X 7301   7.032   1.734   7.322 -1.0241 -0.1145  0.4225
   79SLPC   H5Y 7302   7.199   1.682   7.283 -0.6435  1.9855 -0.6773
   79SLPC   C36 7303   7.126   1.562   7.438 -0.5908  0.0743  0.8323
   79SLPC   H6X 7304   7.189   1.623   7.507  1.4423 -1.1768  0.1785
   79SLPC   H6Y 7305   7.196   1.481   7.408 -2.0606 -0.9723  0.1154
   79SLPC   C37 7306   7.001   1.505   7.506  0.8594 -0.1270  0.1497
   79SLPC   H7X 7307   7.019   1.412   7.563  2.0195  0.1055  0.1858
   79SLPC   H7Y 7308   6.930   1.482   7.424  0.9025  2.1495 -0.5914
   79SLPC   C38 7309   6.932   1.590   7.613 -0.2768  0.0543 -0.1284
   79SLPC   H8X 7310   6.834   1.541   7.627  0.1619 -1.1378 -1.0788
   79SLPC   H8Y 7311   6.903   1.690   7.573  0.8795 -0.0765 -1.3826
   79SLPC   C39 7312   7.004   1.589   7.752  0.9419  0.1392 -0.3179
   79SLPC   H9X 7313   7.087   1.656   7.723 -0.9310  1.6753 -2.5446
   79SLPC   H9Y 7314   7.029   1.485   7.783 -0.5241 -0.4592 -1.0447
   79SLPC  C310 7315   6.924   1.661   7.859  0.0963  0.5253 -0.0054
   79SLPC  H10X 7316   6.828   1.613   7.887  0.5978 -0.5368 -0.0835
   79SLPC  H10Y 7317   6.905   1.766   7.826  1.8527  1.4556  1.7262
   79SLPC  C311 7318   7.007   1.674   7.992  0.2973  0.2494  0.2822
   79SLPC  H11X 7319   6.963   1.764   8.041 -0.7448  0.5585 -1.1472
   79SLPC  H11Y 7320   7.110   1.690   7.955  0.2559  0.7220  0.3657
   79SLPC  C312 7321   6.996   1.542   8.069 -0.4320 -0.0227  0.3312
   79SLPC  H12X 7322   7.097   1.525   8.112 -0.7172 -1.1459  0.5847
   79SLPC  H12Y 7323   6.978   1.451   8.007  1.1418 -0.6187  0.6921
   79SLPC  C313 7324   6.891   1.543   8.180 -0.0940 -0.1077 -0.7167
   79SLPC  H13X 7325   6.796   1.532   8.124 -0.2132 -0.2416 -0.4926
   79SLPC  H13Y 7326   6.880   1.640   8.232 -2.2065  0.9045 -2.8554
   79SLPC  C314 7327   6.927   1.431   8.286 -0.0510  0.6074 -0.3759
   79SLPC  H14X 7328   6.945   1.338   8.226 -0.8982  0.7815 -0.9156
   79SLPC  H14Y 7329   6.835   1.431   8.347 -1.8808  0.5153 -2.9559
   79SLPC  C315 7330   7.040   1.473   8.384  0.0740 -0.5748 -0.3036
   79SLPC  H15X 7331   7.005   1.566   8.432  0.1736  0.5070 -2.2420
   79SLPC  H15Y 7332   7.142   1.496   8.346  0.5546  0.0778  1.2701
   79SLPC  C316 7333   7.049   1.362   8.494 -0.2983  0.8023  0.2618
   79SLPC  H16X 7334   7.071   1.259   8.460  0.9736  1.4152 -0.8570
   79SLPC  H16Y 7335   6.950   1.365   8.546 -0.9469 -1.2821 -0.7534
   79SLPC  C317 7336   7.156   1.393   8.602 -0.0089 -0.3399 -0.5079
   79SLPC  H17X 7337   7.134   1.499   8.626 -0.1423 -0.1481 -1.4290
   79SLPC  H17Y 7338   7.259   1.378   8.564 -0.4359 -2.7802 -0.8758
   79SLPC  C318 7339   7.134   1.316   8.732 -0.5534 -0.2973  0.1431
   79SLPC  H18X 7340   7.024   1.322   8.744 -1.0140 -0.2152 -3.1786
   79SLPC  H18Y 7341   7.175   1.376   8.816 -3.3034 -0.3256  1.6315
   79SLPC  H18Z 7342   7.171   1.211   8.729  2.0665  0.5494  0.3848
   80SLPC     N 7343   0.398   5.756   6.280  0.1030  0.4058 -0.0872
   80SLPC   C13 7344   0.306   5.780   6.165  1.2153  0.7392 -0.2329
   80SLPC  H13A 7345   0.285   5.687   6.114 -0.9741  1.7199 -1.2549
   80SLPC  H13B 7346   0.204   5.806   6.189 -0.9962 -3.0418 -3.9921
   80SLPC  H13C 7347   0.338   5.866   6.107  1.5339  0.8765  0.1391
   80SLPC   C14 7348   0.540   5.744   6.238  0.8558  0.7599 -0.1924
   80SLPC  H14A 7349   0.581   5.832   6.191  0.5219  0.8694 -0.2816
   80SLPC  H14B 7350   0.601   5.725   6.325  1.3810 -0.1928 -0.7444
   80SLPC  H14C 7351   0.551   5.660   6.170  1.4883  0.5685  0.1302
   80SLPC   C15 7352   0.369   5.622   6.343  0.1918  0.2881 -0.5850
   80SLPC  H15A 7353   0.272   5.627   6.391 -0.5140 -1.2305 -1.7807
   80SLPC  H15B 7354   0.365   5.541   6.272  0.6977 -0.3971  0.1513
   80SLPC  H15C 7355   0.432   5.600   6.428 -2.6364  1.6059  2.0482
   80SLPC   C12 7356   0.381   5.879   6.376  0.1406 -0.8387 -0.1384
   80SLPC  H12A 7357   0.425   5.964   6.325  0.1609 -0.6272  0.2342
   80SLPC  H12B 7358   0.444   5.868   6.462 -0.0992  1.3557  0.3770
   80SLPC   C11 7359   0.242   5.934   6.417 -0.5791  0.1978 -0.4102
   80SLPC  H11A 7360   0.270   6.001   6.502  0.7416  0.2206 -0.8434
   80SLPC  H11B 7361   0.176   5.853   6.454  0.3706 -0.3159  0.1882
   80SLPC     P 7362   0.098   6.126   6.309 -0.0003 -0.2437  0.3333
   80SLPC   O13 7363   0.121   6.207   6.188  0.4674  0.2041 -0.5125
   80SLPC   O14 7364  -0.041   6.087   6.331  0.2762  0.4651 -0.7636
   80SLPC   O12 7365   0.190   6.002   6.305  0.4292  0.2591 -0.0423
   80SLPC   O11 7366   0.137   6.212   6.429 -0.1850  0.0546 -0.0707
   80SLPC    C1 7367   0.057   6.312   6.490 -0.1836 -0.0115 -0.8542
   80SLPC    HA 7368   0.118   6.391   6.538 -0.8196 -0.6193  1.0354
   80SLPC    HB 7369  -0.001   6.365   6.411 -1.0558 -0.0254 -0.2307
   80SLPC    C2 7370  -0.033   6.260   6.609  0.1999  0.8255 -0.7309
   80SLPC    HS 7371  -0.023   6.342   6.683  0.8874 -1.0800  1.4055
   80SLPC   O21 7372   0.016   6.135   6.652  0.3605  0.5001  0.2588
   80SLPC   C21 7373   0.057   6.122   6.779  0.3524 -0.4821 -0.5112
   80SLPC   O22 7374   0.035   6.200   6.872 -0.2987 -0.2242 -0.1838
   80SLPC   C22 7375   0.131   5.991   6.800 -0.1822  0.8983 -0.3488
   80SLPC   H2R 7376   0.168   5.957   6.701  0.1486 -2.5822  0.8560
   80SLPC   H2S 7377   0.223   6.016   6.857 -0.3962 -1.0467  0.9365
   80SLPC    C3 7378  -0.180   6.232   6.559  0.2100  0.4914 -0.9446
   80SLPC    HX 7379  -0.191   6.132   6.513  0.8843 -0.4197  0.7754
   80SLPC    HY 7380  -0.194   6.311   6.483  1.5784  0.7957 -0.9126
   80SLPC   O31 7381  -0.269   6.252   6.670  0.5851 -0.0887 -0.4120
   80SLPC   C31 7382  -0.292   6.136   6.738  0.5219 -0.1932 -0.0916
   80SLPC   O32 7383  -0.252   6.028   6.707  0.2826  0.5890  0.2301
   80SLPC   C32 7384  -0.386   6.158   6.857  0.1568 -0.5355  0.2109
   80SLPC   H2X 7385  -0.488   6.170   6.816  1.1341  1.0362 -1.9700
   80SLPC   H2Y 7386  -0.360   6.256   6.903  0.7364  0.0062 -1.2123
   80SLPC   C23 7387   0.054   5.882   6.875 -0.1393  0.7410 -0.1070
   80SLPC   H3R 7388   0.101   5.782   6.869 -0.0800  0.7206  0.5978
   80SLPC   H3S 7389  -0.048   5.872   6.833  0.3353  0.5180 -1.2393
   80SLPC   C24 7390   0.053   5.907   7.026  0.4395  0.0629 -1.0846
   80SLPC   H4R 7391   0.017   6.009   7.050 -0.5190 -0.3867 -0.5297
   80SLPC   H4S 7392   0.149   5.884   7.076 -0.1221 -1.3472 -0.6026
   80SLPC   C25 7393  -0.055   5.818   7.103 -0.6377  0.3287 -0.0037
   80SLPC   H5R 7394  -0.024   5.714   7.079 -0.2350 -0.1989  2.4590
   80SLPC   H5S 7395  -0.161   5.825   7.073 -0.4820 -0.4031 -0.7565
   80SLPC   C26 7396  -0.032   5.818   7.259 -0.2866  0.1378  0.4581
   80SLPC   H6R 7397  -0.026   5.921   7.299  0.4218 -0.3617  1.6697
   80SLPC   H6S 7398   0.068   5.777   7.281  0.4489  1.5801 -0.0686
   80SLPC   C27 7399  -0.138   5.742   7.335  0.2566 -0.1129 -0.0943
   80SLPC   H7R 7400  -0.135   5.643   7.285 -1.1817  0.4735 -1.4276
   80SLPC   H7S 7401  -0.234   5.789   7.307  0.6415 -0.5138 -2.2306
   80SLPC   C28 7402  -0.123   5.750   7.492  0.4918  0.0858  0.6212
   80SLPC   H8R 7403  -0.103   5.857   7.511  0.5549  0.1443  0.2337
   80SLPC   H8S 7404  -0.028   5.699   7.516  0.8757  1.1917  1.5261
   80SLPC   C29 7405  -0.243   5.682   7.549 -0.5291 -0.2237  0.5586
   80SLPC   H9R 7406  -0.292   5.616   7.477 -0.0863  0.3231 -0.2604
   80SLPC  C210 7407  -0.296   5.696   7.670 -0.3314  0.4967 -0.4988
   80SLPC  H10R 7408  -0.380   5.642   7.715  1.1944 -1.0123  0.6963
   80SLPC  C211 7409  -0.223   5.779   7.777  0.0756  0.1328 -0.0511
   80SLPC  H11R 7410  -0.298   5.830   7.842  0.0435 -0.6777  0.5659
   80SLPC  H11S 7411  -0.169   5.864   7.730  1.5104 -0.0883  1.1045
   80SLPC  C212 7412  -0.127   5.685   7.853 -0.5679  0.2744 -0.8578
   80SLPC  H12R 7413  -0.038   5.648   7.800  0.4409  1.6371 -0.1851
   80SLPC  C213 7414  -0.131   5.654   7.984  0.7126  0.1928 -0.3231
   80SLPC  H13R 7415  -0.056   5.597   8.041 -0.6078 -1.0828  0.2063
   80SLPC  C214 7416  -0.244   5.694   8.079 -0.5965 -0.2300  0.1400
   80SLPC  H14R 7417  -0.282   5.603   8.130 -1.3167 -0.7224 -1.1970
   80SLPC  H14S 7418  -0.332   5.719   8.015 -0.9532  0.3901  0.8505
   80SLPC  C215 7419  -0.201   5.789   8.186 -0.3173  0.0201  0.1626
   80SLPC  H15R 7420  -0.134   5.873   8.155  1.6675 -0.9166  1.7058
   80SLPC  H15S 7421  -0.146   5.736   8.266 -0.2522 -0.8923 -0.4787
   80SLPC  C216 7422  -0.322   5.858   8.255  0.1410  0.0118 -0.1541
   80SLPC  H16R 7423  -0.388   5.776   8.290 -1.4502  0.9216 -0.9152
   80SLPC  H16S 7424  -0.376   5.934   8.195  2.5732  2.8542  1.0534
   80SLPC  C217 7425  -0.269   5.943   8.365 -0.3759 -0.6060 -0.0130
   80SLPC  H17R 7426  -0.213   6.024   8.313  1.0591 -1.5669 -0.0367
   80SLPC  H17S 7427  -0.193   5.889   8.426  0.3621  0.7239  0.2873
   80SLPC  C218 7428  -0.375   6.001   8.453  0.4843  0.2663  0.1912
   80SLPC  H18R 7429  -0.409   5.920   8.521  0.7673  0.0651  0.0947
   80SLPC  H18S 7430  -0.468   6.028   8.398 -1.1309  0.9547  3.0680
   80SLPC  H18T 7431  -0.339   6.087   8.513 -0.1331  0.1719  0.7130
   80SLPC   C33 7432  -0.380   6.047   6.974 -0.2783  0.3292 -0.3915
   80SLPC   H3X 7433  -0.273   6.035   6.999 -0.3847 -0.8279 -0.4272
   80SLPC   H3Y 7434  -0.413   5.948   6.935 -0.2602  0.2476 -0.1992
   80SLPC   C34 7435  -0.468   6.090   7.097  0.3849 -0.1826  0.2879
   80SLPC   H4X 7436  -0.573   6.059   7.080  0.6380 -2.2248  2.0489
   80SLPC   H4Y 7437  -0.462   6.200   7.114 -0.2556 -0.3271  1.5610
   80SLPC   C35 7438  -0.420   6.023   7.227  0.1139  0.1859  0.2890
   80SLPC   H5X 7439  -0.309   6.019   7.231  0.0849 -0.0310  1.0028
   80SLPC   H5Y 7440  -0.446   5.915   7.229  1.8555 -0.2507  1.2829
   80SLPC   C36 7441  -0.488   6.094   7.345 -0.3081 -0.5643  0.5644
   80SLPC   H6X 7442  -0.596   6.095   7.320 -0.0242  4.8998 -1.7184
   80SLPC   H6Y 7443  -0.434   6.191   7.343  2.3778 -1.8944  1.9779
   80SLPC   C37 7444  -0.451   6.036   7.485  0.6725  0.1302 -0.2606
   80SLPC   H7X 7445  -0.349   5.991   7.481  0.3428 -0.5652 -1.7908
   80SLPC   H7Y 7446  -0.514   5.946   7.500  0.2853  0.3303 -0.6698
   80SLPC   C38 7447  -0.472   6.135   7.599  0.7298  0.4411 -0.0543
   80SLPC   H8X 7448  -0.581   6.156   7.596  1.1914  3.0764 -1.6866
   80SLPC   H8Y 7449  -0.403   6.217   7.570 -0.2214  1.2155 -0.1725
   80SLPC   C39 7450  -0.427   6.092   7.741  0.2653 -0.4310  0.3832
   80SLPC   H9X 7451  -0.323   6.054   7.746  0.4767  0.2214  1.2343
   80SLPC   H9Y 7452  -0.500   6.015   7.776  1.3027 -2.3692 -1.4870
   80SLPC  C310 7453  -0.419   6.210   7.845  0.4633  0.2021  0.2671
   80SLPC  H10X 7454  -0.512   6.269   7.859 -1.2861 -2.5276  0.8462
   80SLPC  H10Y 7455  -0.333   6.275   7.817  0.4196 -0.1766 -0.7844
   80SLPC  C311 7456  -0.386   6.153   7.981 -0.1606  0.1230 -0.6634
   80SLPC  H11X 7457  -0.287   6.104   7.964 -1.3486 -2.4096 -0.8002
   80SLPC  H11Y 7458  -0.455   6.069   8.005 -0.0951 -0.4568 -2.3557
   80SLPC  C312 7459  -0.374   6.250   8.098 -0.0324  0.4054  0.1304
   80SLPC  H12X 7460  -0.392   6.204   8.197 -0.1795  0.7580  0.2660
   80SLPC  H12Y 7461  -0.447   6.332   8.082 -0.7617 -0.4361 -1.0074
   80SLPC  C313 7462  -0.228   6.313   8.107 -0.1071 -0.6132  0.3959
   80SLPC  H13X 7463  -0.212   6.369   8.013  1.3784 -0.1178  0.9224
   80SLPC  H13Y 7464  -0.153   6.232   8.118  0.1974 -0.3831  0.0181
   80SLPC  C314 7465  -0.206   6.415   8.226 -0.7485 -0.4484  0.1935
   80SLPC  H14X 7466  -0.266   6.503   8.195 -0.0019 -0.5105 -1.5610
   80SLPC  H14Y 7467  -0.106   6.463   8.226 -0.4863 -0.9860  0.3244
   80SLPC  C315 7468  -0.225   6.350   8.357 -0.0170  0.3797 -0.3576
   80SLPC  H15X 7469  -0.165   6.256   8.362 -2.3914 -1.1606  2.5561
   80SLPC  H15Y 7470  -0.332   6.338   8.382  0.1622  3.0254  2.2350
   80SLPC  C316 7471  -0.185   6.452   8.472  0.9169 -0.3540  0.0621
   80SLPC  H16X 7472  -0.239   6.549   8.469 -0.9234 -1.3578 -0.5937
   80SLPC  H16Y 7473  -0.077   6.481   8.470  0.5364  1.1180 -0.7481
   80SLPC  C317 7474  -0.227   6.395   8.609 -0.3679  0.0977 -0.2489
   80SLPC  H17X 7475  -0.188   6.292   8.622 -0.1840  0.4019  2.1742
   80SLPC  H17Y 7476  -0.336   6.384   8.632 -0.5532 -1.2891 -1.6339
   80SLPC  C318 7477  -0.174   6.481   8.720  0.7370  0.0257 -0.1537
   80SLPC  H18X 7478  -0.204   6.435   8.817 -0.5400  1.8007  0.3671
   80SLPC  H18Y 7479  -0.209   6.586   8.706 -2.2275 -1.0900 -2.0863
   80SLPC  H18Z 7480  -0.063   6.478   8.717  0.8902  0.2349  2.6619
   81SAPS     N 7481   6.510   6.114  11.280  0.1843 -1.1489 -0.2638
   81SAPS   HN1 7482   6.590   6.126  11.345  0.0424 -4.0454  0.5638
   81SAPS   HN2 7483   6.514   6.179  11.199 -2.6007  0.4471  0.7516
   81SAPS   HN3 7484   6.421   6.134  11.330  1.2272  0.1051  1.1760
   81SAPS   C12 7485   6.509   5.979  11.228 -0.3363 -0.4402  0.5626
   81SAPS  H12A 7486   6.531   5.917  11.314  0.2160  1.8551  2.1661
   81SAPS   C13 7487   6.372   5.936  11.172  0.0135 -0.4035 -0.1338
   81SAPS  O13A 7488   6.281   6.025  11.157 -0.2567  0.0638 -0.2944
   81SAPS  O13B 7489   6.358   5.824  11.120  0.2608  0.0769  0.2831
   81SAPS   C11 7490   6.616   5.965  11.118  0.1443 -0.2432  0.1773
   81SAPS  H11A 7491   6.595   6.030  11.030  0.8271 -1.0123 -0.5689
   81SAPS  H11B 7492   6.606   5.861  11.081 -3.2102 -0.6147  1.7563
   81SAPS     P 7493   6.872   5.961  11.078 -0.1237 -0.3706 -0.5108
   81SAPS   O13 7494   6.994   6.015  11.138 -0.0685  0.2763  0.8183
   81SAPS   O14 7495   6.874   5.815  11.052  0.1651 -0.2286 -0.7566
   81SAPS   O12 7496   6.749   5.986  11.177 -0.7733  0.1695 -0.0151
   81SAPS   O11 7497   6.821   6.034  10.942 -0.1857 -0.3273  0.3962
   81SAPS    C1 7498   6.847   6.178  10.928 -0.3003  0.1766 -0.5638
   81SAPS    HA 7499   6.799   6.234  11.012 -1.1042  1.0700 -1.5786
   81SAPS    HB 7500   6.955   6.200  10.939  0.2625 -2.5134 -0.0431
   81SAPS    C2 7501   6.799   6.236  10.790 -0.1264 -0.7581 -0.6285
   81SAPS    HS 7502   6.702   6.190  10.760  0.0063 -0.3086 -1.8045
   81SAPS   O21 7503   6.898   6.212  10.695  0.3236  0.0577 -0.4170
   81SAPS   C21 7504   6.901   6.092  10.630 -0.6044 -0.4697 -0.3110
   81SAPS   O22 7505   6.809   6.015  10.612 -0.5330 -0.0499  0.2274
   81SAPS   C22 7506   7.037   6.080  10.557  0.3075 -1.0462 -0.3371
   81SAPS   H2R 7507   7.060   6.184  10.524 -1.1989 -1.0639 -1.5608
   81SAPS   H2S 7508   7.110   6.042  10.632 -2.1170 -0.2515  2.6420
   81SAPS    C3 7509   6.780   6.385  10.810  0.2712  0.2059 -0.2139
   81SAPS    HX 7510   6.869   6.437  10.852  0.0789  1.5510 -1.4103
   81SAPS    HY 7511   6.711   6.402  10.896  1.6855 -1.1034  1.2636
   81SAPS   O31 7512   6.752   6.448  10.685  0.8848  0.7894  0.1424
   81SAPS   C31 7513   6.627   6.453  10.649 -0.3739  0.2253 -0.5943
   81SAPS   O32 7514   6.534   6.409  10.713 -0.3987 -0.1893  0.3308
   81SAPS   C32 7515   6.615   6.509  10.509 -0.1365 -0.4220  0.6656
   81SAPS   H2X 7516   6.512   6.496  10.470  0.2879 -1.6021 -0.0954
   81SAPS   H2Y 7517   6.687   6.450  10.448 -0.7569  0.4988 -1.0187
   81SAPS   C23 7518   7.017   5.998  10.429  0.9656 -0.7461  0.4078
   81SAPS   H3R 7519   6.918   6.011  10.381  1.8010  0.2938 -1.1035
   81SAPS   H3S 7520   7.001   5.896  10.470  0.9801 -1.0616 -0.3619
   81SAPS   C24 7521   7.136   5.999  10.327  0.5108  0.3161  0.2605
   81SAPS   H4R 7522   7.117   5.923  10.249 -0.3597  1.8069 -1.0176
   81SAPS   H4S 7523   7.225   5.973  10.389  0.1764  3.2823  2.2186
   81SAPS   C25 7524   7.153   6.134  10.266  0.7449  0.1484  0.8721
   81SAPS   H5R 7525   7.175   6.220  10.331  3.1611  1.1518 -1.1202
   81SAPS   C26 7526   7.161   6.158  10.133  0.0234 -0.0008 -1.0467
   81SAPS   H6R 7527   7.184   6.260  10.097 -0.8819  1.0879  1.2233
   81SAPS   C27 7528   7.142   6.053  10.030 -0.3296 -0.1750 -0.3254
   81SAPS   H7R 7529   7.084   5.968  10.072  1.7447 -0.7614  1.5698
   81SAPS   H7S 7530   7.242   6.010  10.010  0.1940  0.9169 -0.1033
   81SAPS   C28 7531   7.063   6.109   9.912  0.0139  0.6930  0.1905
   81SAPS   H8R 7532   6.996   6.195   9.928 -0.5659  0.5176 -1.1687
   81SAPS   C29 7533   7.080   6.071   9.783 -0.3362 -0.2601  0.1449
   81SAPS   H9R 7534   7.038   6.129   9.699 -0.6428  2.1611  1.8609
   81SAPS  C210 7535   7.168   5.967   9.730 -0.1446  0.8817 -0.5343
   81SAPS  H10R 7536   7.151   5.872   9.786 -0.5758  1.2221 -0.0726
   81SAPS  H10S 7537   7.271   5.990   9.765 -0.4470  2.0145 -0.3735
   81SAPS  C211 7538   7.163   5.943   9.576  0.5120  0.4660  0.2735
   81SAPS  H11R 7539   7.069   5.956   9.521  0.6371  0.5141  0.0690
   81SAPS  C212 7540   7.270   5.929   9.501  0.3057  0.7337  0.5397
   81SAPS  H12R 7541   7.254   5.910   9.394 -2.1711  4.6656  0.0395
   81SAPS  C213 7542   7.418   5.921   9.555  0.2511  0.8927 -0.0319
   81SAPS  H13R 7543   7.418   5.863   9.651  0.5005  2.6526  1.0685
   81SAPS  H13S 7544   7.462   6.023   9.557 -1.3547  1.6470  2.8685
   81SAPS  C214 7545   7.505   5.836   9.461 -0.9015 -0.2223  0.7874
   81SAPS  H14R 7546   7.550   5.744   9.502 -0.4778  0.0273  0.8956
   81SAPS  C215 7547   7.546   5.866   9.333  0.3829  0.2894 -0.8908
   81SAPS  H15R 7548   7.616   5.794   9.288  1.3152  1.8913 -2.1207
   81SAPS  C216 7549   7.515   5.987   9.245  0.1445  0.4110 -0.2618
   81SAPS  H16R 7550   7.483   6.077   9.302  2.5547  1.2478 -0.1146
   81SAPS  H16S 7551   7.439   5.953   9.171 -1.9662  0.7627  1.6387
   81SAPS  C217 7552   7.638   6.028   9.164  0.4264 -0.6374  0.3471
   81SAPS  H17R 7553   7.717   6.070   9.230 -1.1457  0.3814  1.6899
   81SAPS  H17S 7554   7.601   6.111   9.100 -1.9597 -2.9454 -1.4673
   81SAPS  C218 7555   7.703   5.926   9.068 -0.2558  0.4813 -0.5925
   81SAPS  H18R 7556   7.624   5.862   9.024  0.1831 -0.0116 -0.6603
   81SAPS  H18S 7557   7.767   5.866   9.136 -0.5686  1.0023  0.1799
   81SAPS  C219 7558   7.791   5.979   8.955  0.2489 -0.0890 -0.2341
   81SAPS  H19R 7559   7.861   6.056   8.994 -0.9274 -0.2278  2.3642
   81SAPS  H19S 7560   7.735   6.016   8.867  1.0861  2.5315  0.2728
   81SAPS  C220 7561   7.878   5.869   8.895  0.1363 -0.1692 -0.4641
   81SAPS  H20R 7562   7.948   5.835   8.974  2.3278  0.6734 -1.9280
   81SAPS  H20S 7563   7.946   5.907   8.815 -0.0952  0.6178 -0.2936
   81SAPS  H20T 7564   7.818   5.779   8.868  0.0850 -1.1229  2.5285
   81SAPS   C33 7565   6.646   6.659  10.510  0.5326  0.4615  0.2395
   81SAPS   H3X 7566   6.603   6.707  10.601  1.6021 -2.2690  2.3365
   81SAPS   H3Y 7567   6.590   6.713  10.431 -3.7241 -0.4235  2.3872
   81SAPS   C34 7568   6.790   6.711  10.495  0.2612  1.1623  0.4016
   81SAPS   H4X 7569   6.844   6.706  10.593 -0.5616  0.0800  0.8094
   81SAPS   H4Y 7570   6.788   6.812  10.449 -0.1119  0.1767 -1.8792
   81SAPS   C35 7571   6.870   6.628  10.396  0.1206  0.2564 -0.0173
   81SAPS   H5X 7572   6.881   6.523  10.433 -1.7925 -0.8685 -2.3045
   81SAPS   H5Y 7573   6.978   6.655  10.393  1.4283 -4.1600 -1.3628
   81SAPS   C36 7574   6.815   6.626  10.244  0.5754 -0.4463 -0.0224
   81SAPS   H6X 7575   6.782   6.729  10.219  3.6505  0.9214  0.9981
   81SAPS   H6Y 7576   6.737   6.548  10.241  0.2031 -0.0620 -0.5117
   81SAPS   C37 7577   6.918   6.574  10.143 -0.4754  0.2917  0.2525
   81SAPS   H7X 7578   6.950   6.468  10.154 -1.2266  0.1402  1.0592
   81SAPS   H7Y 7579   7.007   6.641  10.139 -1.4835  1.7599  1.1713
   81SAPS   C38 7580   6.868   6.579  10.003 -0.2680  0.3091 -0.3082
   81SAPS   H8X 7581   6.835   6.684   9.987  2.6033  1.7191  1.9544
   81SAPS   H8Y 7582   6.774   6.521  10.005  0.3309 -0.6862  1.9489
   81SAPS   C39 7583   6.985   6.535   9.905 -0.4350 -0.0549 -0.7791
   81SAPS   H9X 7584   7.030   6.436   9.927 -0.1443  0.1299 -0.5327
   81SAPS   H9Y 7585   7.069   6.608   9.908 -0.3685 -0.1067 -1.2351
   81SAPS  C310 7586   6.940   6.537   9.755 -0.3706  0.1355  0.1452
   81SAPS  H10X 7587   6.893   6.636   9.736  0.3316  0.3449 -0.5954
   81SAPS  H10Y 7588   6.864   6.456   9.748 -1.3263  1.1172 -1.9226
   81SAPS  C311 7589   7.040   6.498   9.648  0.7273 -0.0911  0.1909
   81SAPS  H11X 7590   7.093   6.402   9.666 -0.3607 -1.2211 -2.1784
   81SAPS  H11Y 7591   7.110   6.584   9.648 -0.9414  1.3258 -0.3324
   81SAPS  C312 7592   6.988   6.486   9.502  0.6228 -0.3151 -0.1763
   81SAPS  H12X 7593   6.924   6.573   9.476 -0.9398 -0.6607  2.1590
   81SAPS  H12Y 7594   6.917   6.401   9.489 -0.4583  0.1075  2.3523
   81SAPS  C313 7595   7.119   6.475   9.420  0.0694 -0.7081 -0.0134
   81SAPS  H13X 7596   7.178   6.390   9.462  0.5059 -0.1197  0.5758
   81SAPS  H13Y 7597   7.175   6.569   9.442  0.2493 -1.3223  2.3789
   81SAPS  C314 7598   7.078   6.462   9.278 -0.7113 -0.0384  0.4092
   81SAPS  H14X 7599   7.007   6.537   9.237 -0.6569  0.8598  1.8771
   81SAPS  H14Y 7600   7.025   6.365   9.269  1.1572 -1.2170  1.4139
   81SAPS  C315 7601   7.195   6.459   9.181  0.1996  0.3187 -0.9656
   81SAPS  H15X 7602   7.262   6.379   9.221 -1.9701 -1.2803 -0.3487
   81SAPS  H15Y 7603   7.237   6.562   9.177  0.3154  0.5752  3.0212
   81SAPS  C316 7604   7.153   6.401   9.044 -0.8155  0.0172  0.1661
   81SAPS  H16X 7605   7.077   6.476   9.013 -1.7809 -1.1206 -0.3183
   81SAPS  H16Y 7606   7.107   6.301   9.059  1.3665 -1.2942 -1.2166
   81SAPS  C317 7607   7.278   6.395   8.947  0.1341 -0.0448  0.6869
   81SAPS  H17X 7608   7.310   6.501   8.943  0.0930  0.0408  2.0631
   81SAPS  H17Y 7609   7.237   6.383   8.845  0.1072  3.2223  0.2149
   81SAPS  C318 7610   7.397   6.305   8.983 -0.7184 -0.2976  0.5550
   81SAPS  H18X 7611   7.429   6.324   9.087 -0.2533  0.0497  0.3522
   81SAPS  H18Y 7612   7.481   6.334   8.916 -0.8402 -1.5261 -0.1628
   81SAPS  H18Z 7613   7.376   6.198   8.962 -0.2275 -0.7646  2.2759
   82SAPS     N 7614   6.362   5.582  11.024  0.2856  0.7906 -0.1657
   82SAPS   HN1 7615   6.454   5.535  11.035  0.5856  1.0807 -1.3391
   82SAPS   HN2 7616   6.314   5.587  10.932 -1.3440  2.3273  0.6974
   82SAPS   HN3 7617   6.362   5.678  11.063 -1.7620  0.8406 -0.1586
   82SAPS   C12 7618   6.259   5.508  11.094 -0.1113 -0.7819 -0.6883
   82SAPS  H12A 7619   6.255   5.409  11.052 -2.2160 -0.4104 -1.4876
   82SAPS   C13 7620   6.288   5.482  11.243  0.2031  0.1114 -0.5182
   82SAPS  O13A 7621   6.404   5.488  11.284 -0.8892  0.2643  0.1260
   82SAPS  O13B 7622   6.203   5.406  11.302  0.4193 -0.4260 -0.3442
   82SAPS   C11 7623   6.120   5.587  11.088 -0.2667  0.0132  0.2485
   82SAPS  H11A 7624   6.123   5.690  11.130 -1.1311 -0.7961  2.4983
   82SAPS  H11B 7625   6.048   5.528  11.149 -0.8801 -0.7744 -1.1815
   82SAPS     P 7626   5.965   5.644  10.889 -0.1842  0.3924  0.2818
   82SAPS   O13 7627   5.843   5.573  10.951 -0.1484  0.0955  0.4231
   82SAPS   O14 7628   5.985   5.787  10.922 -0.1771 -0.3943  0.1760
   82SAPS   O12 7629   6.091   5.577  10.946  0.4841 -0.2129 -0.3637
   82SAPS   O11 7630   5.974   5.609  10.734  0.0467 -0.1423  0.2660
   82SAPS    C1 7631   6.088   5.544  10.677 -0.0676 -0.1036 -0.2760
   82SAPS    HA 7632   6.183   5.595  10.706  1.3522 -1.8730 -1.6085
   82SAPS    HB 7633   6.096   5.437  10.706 -0.5122 -1.2854 -4.0498
   82SAPS    C2 7634   6.079   5.532  10.524 -0.4982  0.1022  0.4484
   82SAPS    HS 7635   6.171   5.479  10.492 -0.2432  1.9874 -2.2715
   82SAPS   O21 7636   6.082   5.665  10.465  0.4671 -0.4609  1.0752
   82SAPS   C21 7637   6.190   5.715  10.438 -0.1079 -0.6780 -0.7316
   82SAPS   O22 7638   6.303   5.687  10.486  0.3042 -0.2251 -0.3393
   82SAPS   C22 7639   6.168   5.829  10.328  0.3827 -0.5904 -0.3830
   82SAPS   H2R 7640   6.089   5.892  10.374  1.2546  0.0715  0.2437
   82SAPS   H2S 7641   6.258   5.893  10.334  0.1291 -0.2611  0.0030
   82SAPS    C3 7642   5.957   5.444  10.482 -0.2039 -0.3503 -0.4692
   82SAPS    HX 7643   5.870   5.503  10.519 -0.1137  0.2282 -1.1553
   82SAPS    HY 7644   5.958   5.356  10.550 -1.4709  0.7430  1.0580
   82SAPS   O31 7645   5.967   5.415  10.338  0.1088 -0.6444 -0.5341
   82SAPS   C31 7646   5.861   5.441  10.259 -0.0671 -0.5335 -0.1281
   82SAPS   O32 7647   5.750   5.473  10.301  0.4421 -0.2380  0.3397
   82SAPS   C32 7648   5.901   5.423  10.114 -0.8733 -0.1362  0.1462
   82SAPS   H2X 7649   5.955   5.326  10.113 -1.7889 -0.6603  0.5179
   82SAPS   H2Y 7650   5.978   5.500  10.091 -0.3182 -1.2552 -2.0945
   82SAPS   C23 7651   6.144   5.765  10.192 -0.4212 -0.0919 -0.0860
   82SAPS   H3R 7652   6.101   5.843  10.126 -0.2483  0.4670  0.4590
   82SAPS   H3S 7653   6.076   5.678  10.185 -2.7104  1.7595 -3.4737
   82SAPS   C24 7654   6.275   5.713  10.125 -0.0541 -0.0168  0.6358
   82SAPS   H4R 7655   6.253   5.640  10.044  0.0483 -0.0367  0.6265
   82SAPS   H4S 7656   6.316   5.652  10.208 -2.4611 -0.5374  1.5487
   82SAPS   C25 7657   6.362   5.815  10.065 -0.6131 -0.2986 -0.6653
   82SAPS   H5R 7658   6.452   5.839  10.123 -1.2832  1.1347 -0.1564
   82SAPS   C26 7659   6.332   5.904   9.968 -0.6225  0.1773 -0.1122
   82SAPS   H6R 7660   6.418   5.956   9.924  0.5918 -1.3413  0.3735
   82SAPS   C27 7661   6.212   5.903   9.879  0.2046 -0.6150 -0.0921
   82SAPS   H7R 7662   6.148   5.990   9.905  2.8050  0.6445  2.8614
   82SAPS   H7S 7663   6.159   5.813   9.917  0.0014  0.3829  2.1750
   82SAPS   C28 7664   6.263   5.890   9.739  0.3568 -0.0231  1.7908
   82SAPS   H8R 7665   6.305   5.790   9.721  0.4135  0.6636 -3.3447
   82SAPS   C29 7666   6.245   5.976   9.634  0.1747 -0.7469 -0.6079
   82SAPS   H9R 7667   6.289   5.946   9.538  0.4883 -0.3676 -0.5855
   82SAPS  C210 7668   6.180   6.116   9.648  0.4931  0.3805  0.5989
   82SAPS  H10R 7669   6.259   6.193   9.661 -0.0403  1.2931 -1.3008
   82SAPS  H10S 7670   6.134   6.122   9.749 -0.3959 -0.2181  0.2382
   82SAPS  C211 7671   6.061   6.154   9.559  0.6562  0.3391  0.5018
   82SAPS  H11R 7672   5.969   6.161   9.619 -0.2497 -0.2058 -0.7791
   82SAPS  C212 7673   6.058   6.173   9.424 -0.2059 -0.3125 -0.5693
   82SAPS  H12R 7674   5.964   6.195   9.372 -1.1156 -0.7769  0.8469
   82SAPS  C213 7675   6.175   6.167   9.326 -0.0400 -0.4073  0.1499
   82SAPS  H13R 7676   6.265   6.183   9.390  0.1561  2.6526 -0.7455
   82SAPS  H13S 7677   6.165   6.257   9.262 -1.1892 -1.0755 -0.6488
   82SAPS  C214 7678   6.169   6.040   9.247  0.1614 -0.2798  0.8700
   82SAPS  H14R 7679   6.102   5.961   9.283  1.1840 -1.0574  1.0932
   82SAPS  C215 7680   6.246   6.025   9.132  0.2758  0.4207  0.1070
   82SAPS  H15R 7681   6.230   5.936   9.069  0.4441  1.0504 -0.8497
   82SAPS  C216 7682   6.359   6.115   9.089 -0.4393  0.3460 -0.4211
   82SAPS  H16R 7683   6.459   6.088   9.129  0.0039  2.4759 -0.0090
   82SAPS  H16S 7684   6.342   6.217   9.130 -0.0796  0.8920 -1.5673
   82SAPS  C217 7685   6.368   6.133   8.933  0.1061  0.1003 -0.2547
   82SAPS  H17R 7686   6.457   6.195   8.910  1.2421 -0.7737  1.5776
   82SAPS  H17S 7687   6.282   6.188   8.888 -1.4107 -1.8378  0.1212
   82SAPS  C218 7688   6.386   6.011   8.847 -0.9051  0.0220 -0.6500
   82SAPS  H18R 7689   6.380   6.049   8.743 -0.0468 -0.3482 -0.8451
   82SAPS  H18S 7690   6.298   5.951   8.876  0.7836 -1.6859  1.2592
   82SAPS  C219 7691   6.521   5.940   8.873 -0.5846  0.2148 -0.0444
   82SAPS  H19R 7692   6.513   5.893   8.973 -0.3546 -0.3210 -0.2789
   82SAPS  H19S 7693   6.612   6.004   8.873 -0.2506 -0.1808 -1.9066
   82SAPS  C220 7694   6.538   5.822   8.767 -0.4084 -0.1502  0.2359
   82SAPS  H20R 7695   6.468   5.739   8.788 -0.5784  0.8207  4.3731
   82SAPS  H20S 7696   6.641   5.779   8.771  0.4765  1.8934  1.3614
   82SAPS  H20T 7697   6.529   5.859   8.662  1.8149 -1.4498 -0.4766
   82SAPS   C33 7698   5.786   5.425  10.013 -0.8761  0.1000 -0.3219
   82SAPS   H3X 7699   5.723   5.512  10.039 -0.8566  0.0214  0.0019
   82SAPS   H3Y 7700   5.713   5.343  10.033  0.2837 -1.1715 -1.0699
   82SAPS   C34 7701   5.846   5.431   9.872 -0.1024 -0.7472 -0.0586
   82SAPS   H4X 7702   5.928   5.356   9.864 -1.2282 -2.2697  1.7721
   82SAPS   H4Y 7703   5.882   5.533   9.850  0.8660 -1.0824 -0.0943
   82SAPS   C35 7704   5.752   5.385   9.758 -0.2469  0.4147  0.4479
   82SAPS   H5X 7705   5.647   5.420   9.772 -1.0972 -1.9135  0.4182
   82SAPS   H5Y 7706   5.753   5.275   9.771  3.5534  0.5278  2.1954
   82SAPS   C36 7707   5.809   5.407   9.619  0.3063 -0.0903  0.2874
   82SAPS   H6X 7708   5.909   5.358   9.609 -0.9156 -2.6282 -0.4754
   82SAPS   H6Y 7709   5.825   5.516   9.611 -1.2680  0.1220 -0.2976
   82SAPS   C37 7710   5.719   5.344   9.516 -0.2815  0.6041  0.5580
   82SAPS   H7X 7711   5.621   5.394   9.533 -1.6298 -1.7693  0.2739
   82SAPS   H7Y 7712   5.716   5.233   9.524 -0.2026  0.7246  2.7509
   82SAPS   C38 7713   5.757   5.381   9.371 -0.1946 -0.1934  0.6383
   82SAPS   H8X 7714   5.777   5.491   9.367  1.9065 -0.5269  0.7121
   82SAPS   H8Y 7715   5.666   5.369   9.308  0.9701 -1.2331 -0.9156
   82SAPS   C39 7716   5.882   5.317   9.314  0.2050  0.3561  0.3200
   82SAPS   H9X 7717   5.852   5.211   9.319 -0.5783  0.4835 -1.2174
   82SAPS   H9Y 7718   5.977   5.329   9.372  0.4346 -0.3680  0.1074
   82SAPS  C310 7719   5.904   5.360   9.170  0.0594  0.0440 -0.0801
   82SAPS  H10X 7720   6.000   5.313   9.138 -0.5736 -0.9206 -0.5893
   82SAPS  H10Y 7721   5.913   5.470   9.159  0.0514  0.5259  3.4875
   82SAPS  C311 7722   5.806   5.302   9.069 -0.3378 -0.4024  0.2782
   82SAPS  H11X 7723   5.701   5.314   9.104  0.3523 -0.0140  2.3743
   82SAPS  H11Y 7724   5.824   5.193   9.055 -2.5410 -0.9597  1.3485
   82SAPS  C312 7725   5.825   5.358   8.929 -0.0705  0.0322 -0.0456
   82SAPS  H12X 7726   5.803   5.277   8.857  0.9763 -0.4904  0.2120
   82SAPS  H12Y 7727   5.931   5.389   8.916 -0.9075  3.1144 -0.2318
   82SAPS  C313 7728   5.742   5.482   8.899 -0.2388 -0.0617  0.3788
   82SAPS  H13X 7729   5.736   5.556   8.982 -0.0881  0.5823 -0.1720
   82SAPS  H13Y 7730   5.634   5.464   8.883 -0.2041  1.4561 -2.0691
   82SAPS  C314 7731   5.785   5.553   8.775  0.2854 -0.9832  0.7935
   82SAPS  H14X 7732   5.777   5.476   8.696 -1.3711 -1.2832  1.2264
   82SAPS  H14Y 7733   5.888   5.596   8.776 -1.1423  2.8588  1.1402
   82SAPS  C315 7734   5.680   5.659   8.733 -0.2298 -0.0805 -0.6652
   82SAPS  H15X 7735   5.685   5.736   8.813 -0.7451 -0.5294 -0.1911
   82SAPS  H15Y 7736   5.580   5.613   8.746 -0.1527  0.2470  1.4329
   82SAPS  C316 7737   5.699   5.719   8.594 -0.5601 -0.3589 -0.5938
   82SAPS  H16X 7738   5.717   5.638   8.520  0.6992 -2.1166  1.5086
   82SAPS  H16Y 7739   5.795   5.774   8.584 -1.3788  0.8543 -2.3242
   82SAPS  C317 7740   5.578   5.805   8.554 -0.1738 -0.9443 -0.3827
   82SAPS  H17X 7741   5.586   5.897   8.615 -1.4302 -1.1998  0.2085
   82SAPS  H17Y 7742   5.485   5.755   8.589 -0.9317  0.8897  0.3377
   82SAPS  C318 7743   5.570   5.845   8.405  0.6114  0.2609 -0.0023
   82SAPS  H18X 7744   5.666   5.884   8.362 -0.2907 -0.0878 -2.5306
   82SAPS  H18Y 7745   5.498   5.929   8.391 -0.7087 -0.5076  1.8460
   82SAPS  H18Z 7746   5.540   5.759   8.341  3.0929  0.1821 -1.2001
   83SAPS     N 7747   0.680   0.333  11.515 -0.2646 -0.1046  0.1722
   83SAPS   HN1 7748   0.724   0.355  11.607 -0.0732 -1.1117  0.3294
   83SAPS   HN2 7749   0.578   0.322  11.525 -0.5803  0.8305 -1.5625
   83SAPS   HN3 7750   0.717   0.243  11.478  1.7048  0.2019  1.2366
   83SAPS   C12 7751   0.720   0.447  11.431 -0.1423 -0.0724 -0.3364
   83SAPS  H12A 7752   0.638   0.517  11.442 -0.8171 -0.9509  0.3561
   83SAPS   C13 7753   0.846   0.518  11.487 -0.2944 -0.2903  0.9105
   83SAPS  O13A 7754   0.878   0.496  11.608  0.3826  0.2894 -0.1762
   83SAPS  O13B 7755   0.887   0.618  11.419 -0.1382  0.1769  0.6697
   83SAPS   C11 7756   0.732   0.391  11.290 -0.1147 -0.2548 -0.8577
   83SAPS  H11A 7757   0.817   0.319  11.288 -0.2870 -0.5511 -4.8569
   83SAPS  H11B 7758   0.766   0.477  11.229  1.0159  0.9846  1.3754
   83SAPS     P 7759   0.504   0.422  11.177 -0.3542 -0.4799 -0.6093
   83SAPS   O13 7760   0.390   0.334  11.150 -0.3533 -0.5836  0.1227
   83SAPS   O14 7761   0.469   0.530  11.275  0.4794 -0.3521  0.1109
   83SAPS   O12 7762   0.620   0.329  11.232  0.1973  0.3078 -0.1021
   83SAPS   O11 7763   0.554   0.491  11.044  0.3006 -0.3962 -0.6707
   83SAPS    C1 7764   0.632   0.419  10.951  0.2635  0.1889 -0.1037
   83SAPS    HA 7765   0.725   0.480  10.954 -1.6188  3.2781  1.7346
   83SAPS    HB 7766   0.670   0.320  10.984  1.0450  0.3714 -0.4253
   83SAPS    C2 7767   0.586   0.405  10.804  0.1986 -0.0436 -0.3927
   83SAPS    HS 7768   0.573   0.510  10.769  1.8338 -0.1297 -1.3579
   83SAPS   O21 7769   0.465   0.337  10.775  0.0449 -0.0609  0.8199
   83SAPS   C21 7770   0.440   0.221  10.829 -0.8373 -0.2665  0.7028
   83SAPS   O22 7771   0.512   0.167  10.910  0.0239  0.1740  0.0689
   83SAPS   C22 7772   0.300   0.182  10.779  0.6353 -0.3048 -0.2136
   83SAPS   H2R 7773   0.234   0.167  10.867  0.5588  0.9041 -0.0517
   83SAPS   H2S 7774   0.267   0.268  10.718  0.3593 -1.1043 -1.2372
   83SAPS    C3 7775   0.700   0.352  10.715 -0.5126  0.8373  0.2551
   83SAPS    HX 7776   0.716   0.243  10.726  0.2887  0.8901 -0.2380
   83SAPS    HY 7777   0.797   0.400  10.744  0.0167 -0.4634  0.7238
   83SAPS   O31 7778   0.674   0.373  10.574  0.1931 -0.5606  0.0132
   83SAPS   C31 7779   0.615   0.275  10.506  0.0047 -0.2736 -0.5000
   83SAPS   O32 7780   0.585   0.163  10.549 -0.1983  0.3187  0.1961
   83SAPS   C32 7781   0.623   0.314  10.364  0.1978 -0.2777 -0.5795
   83SAPS   H2X 7782   0.731   0.321  10.338  0.4847 -1.5338  0.1658
   83SAPS   H2Y 7783   0.565   0.408  10.348  0.2969 -0.1151  0.0095
   83SAPS   C23 7784   0.310   0.050  10.696  0.5037  0.2466  0.0913
   83SAPS   H3R 7785   0.409   0.039  10.646  1.3933  2.8077  1.1108
   83SAPS   H3S 7786   0.242   0.064  10.609 -2.5244  0.1731  2.3068
   83SAPS   C24 7787   0.264  -0.074  10.766  0.3966  0.4983 -0.1537
   83SAPS   H4R 7788   0.254  -0.149  10.684  0.6066 -1.5356  1.5721
   83SAPS   H4S 7789   0.163  -0.051  10.806  1.2105 -1.4560  3.4856
   83SAPS   C25 7790   0.353  -0.122  10.872  0.4273  0.1565 -0.0885
   83SAPS   H5R 7791   0.394  -0.042  10.936 -1.0133  1.4594 -0.7237
   83SAPS   C26 7792   0.397  -0.253  10.898  0.9911 -0.2061  0.0391
   83SAPS   H6R 7793   0.466  -0.265  10.983 -0.3579  1.9302  1.5389
   83SAPS   C27 7794   0.365  -0.368  10.811 -0.2476 -0.0640 -0.0684
   83SAPS   H7R 7795   0.295  -0.350  10.727 -3.4724 -0.9592  2.2295
   83SAPS   H7S 7796   0.298  -0.429  10.877  0.6953  0.7588  1.7185
   83SAPS   C28 7797   0.488  -0.436  10.769  0.4753 -0.0607  0.3483
   83SAPS   H8R 7798   0.558  -0.464  10.849 -0.5846 -0.2972  1.2191
   83SAPS   C29 7799   0.530  -0.432  10.640 -0.5982  0.4342  0.8847
   83SAPS   H9R 7800   0.625  -0.478  10.612 -0.2259  1.3240  0.6691
   83SAPS  C210 7801   0.466  -0.374  10.513 -0.6426  0.1571 -0.3819
   83SAPS  H10R 7802   0.359  -0.398  10.496 -0.9771  1.9376 -1.0048
   83SAPS  H10S 7803   0.518  -0.418  10.426 -0.2236  3.1002 -1.7439
   83SAPS  C211 7804   0.477  -0.222  10.499  0.0900  0.2356  0.4646
   83SAPS  H11R 7805   0.460  -0.167  10.593  0.9413 -0.6512  1.1708
   83SAPS  C212 7806   0.502  -0.149  10.387 -0.8895 -0.0821  0.1591
   83SAPS  H12R 7807   0.505  -0.040  10.403 -0.5234  0.4680 -3.0132
   83SAPS  C213 7808   0.538  -0.199  10.242  1.0331  0.4369 -0.7463
   83SAPS  H13R 7809   0.460  -0.153  10.178 -1.0814 -0.5079  1.0390
   83SAPS  H13S 7810   0.520  -0.308  10.229  1.7595  0.2726 -0.4368
   83SAPS  C214 7811   0.681  -0.178  10.195  0.4870 -0.6939  0.1890
   83SAPS  H14R 7812   0.744  -0.104  10.245 -0.0877  0.7496 -1.1338
   83SAPS  C215 7813   0.728  -0.230  10.082 -0.2754 -0.2580 -0.1548
   83SAPS  H15R 7814   0.833  -0.210  10.057 -0.0397  0.4942  1.3133
   83SAPS  C216 7815   0.642  -0.328  10.003 -0.3518  0.4405  0.3667
   83SAPS  H16R 7816   0.534  -0.324  10.029 -0.0493 -0.9875  2.0738
   83SAPS  H16S 7817   0.668  -0.434  10.027  0.0311  0.3953 -0.2120
   83SAPS  C217 7818   0.661  -0.318   9.853 -0.0461 -0.5551 -0.0704
   83SAPS  H17R 7819   0.764  -0.314   9.812 -0.7090  2.2715 -1.7329
   83SAPS  H17S 7820   0.597  -0.236   9.813  1.1049  0.7418  0.6737
   83SAPS  C218 7821   0.617  -0.446   9.777 -0.6307 -0.6754 -0.6351
   83SAPS  H18R 7822   0.508  -0.449   9.755 -1.0431 -0.0320  1.1504
   83SAPS  H18S 7823   0.638  -0.530   9.847  0.8006 -0.1125 -0.3541
   83SAPS  C219 7824   0.685  -0.465   9.634 -0.5440 -0.6492 -0.6779
   83SAPS  H19R 7825   0.668  -0.565   9.588  2.7500 -2.2589  1.1747
   83SAPS  H19S 7826   0.793  -0.477   9.661 -0.6700  0.5225  0.4322
   83SAPS  C220 7827   0.667  -0.342   9.545 -0.5008 -0.0403 -0.3711
   83SAPS  H20R 7828   0.690  -0.247   9.599 -1.6012 -0.5090  0.9924
   83SAPS  H20S 7829   0.562  -0.321   9.515 -0.7113 -3.2169 -2.2366
   83SAPS  H20T 7830   0.735  -0.347   9.457  2.3410 -0.1762  1.7028
   83SAPS   C33 7831   0.572   0.198  10.264 -0.4506 -0.3092 -0.7631
   83SAPS   H3X 7832   0.464   0.174  10.274 -0.0884 -2.3883 -1.3780
   83SAPS   H3Y 7833   0.630   0.107  10.290 -0.3542  0.6527  3.1219
   83SAPS   C34 7834   0.588   0.240  10.118  0.3503  0.6586 -0.0727
   83SAPS   H4X 7835   0.693   0.275  10.105  0.0868  1.1023 -1.0756
   83SAPS   H4Y 7836   0.519   0.325  10.104 -0.9698  0.1105  2.5437
   83SAPS   C35 7837   0.560   0.120  10.026 -0.0447  0.0950 -0.5202
   83SAPS   H5X 7838   0.473   0.063  10.067 -0.8228 -0.0246 -2.2412
   83SAPS   H5Y 7839   0.641   0.045  10.031 -1.6518 -1.6575  0.8706
   83SAPS   C36 7840   0.529   0.179   9.887  0.2918 -1.2990  0.0354
   83SAPS   H6X 7841   0.598   0.258   9.852 -0.8746  0.4821  1.5385
   83SAPS   H6Y 7842   0.428   0.225   9.891  0.2925 -1.3018  0.0881
   83SAPS   C37 7843   0.510   0.072   9.779  0.3861  0.2476  0.3748
   83SAPS   H7X 7844   0.437  -0.004   9.817 -0.3019  1.2048  1.0305
   83SAPS   H7Y 7845   0.608   0.021   9.776  0.8674  1.2021 -1.5023
   83SAPS   C38 7846   0.463   0.115   9.639  0.1151 -0.4674  0.3170
   83SAPS   H8X 7847   0.463   0.226   9.638 -0.5438 -0.4629  0.2333
   83SAPS   H8Y 7848   0.363   0.070   9.623 -0.0940 -0.0921  0.5591
   83SAPS   C39 7849   0.554   0.063   9.530 -0.0564 -0.4981  0.9655
   83SAPS   H9X 7850   0.572  -0.046   9.540  0.4793 -0.2993  2.3345
   83SAPS   H9Y 7851   0.655   0.108   9.536 -0.0429 -0.1986 -0.9386
   83SAPS  C310 7852   0.496   0.086   9.389 -0.1706  0.3433  0.4782
   83SAPS  H10X 7853   0.480   0.194   9.366 -1.1438 -0.3169 -2.3326
   83SAPS  H10Y 7854   0.400   0.031   9.378  1.3061 -2.0591 -1.3294
   83SAPS  C311 7855   0.578   0.025   9.277  0.2909  0.3863  0.7103
   83SAPS  H11X 7856   0.574  -0.083   9.301 -0.5314 -0.4164 -2.5391
   83SAPS  H11Y 7857   0.683   0.059   9.288  1.3036 -2.0129 -0.8048
   83SAPS  C312 7858   0.513   0.051   9.137 -0.0033  0.5191 -0.4791
   83SAPS  H12X 7859   0.514   0.162   9.127  0.4781  0.7072  1.2674
   83SAPS  H12Y 7860   0.404   0.032   9.137  0.0939 -0.0593 -0.2347
   83SAPS  C313 7861   0.573  -0.023   9.014 -0.3314  0.7446  0.4288
   83SAPS  H13X 7862   0.603  -0.127   9.039 -2.1484  0.0718  0.0389
   83SAPS  H13Y 7863   0.658   0.043   8.990 -0.2408  0.4793  0.0147
   83SAPS  C314 7864   0.482  -0.022   8.886  0.2938 -0.2498 -0.0506
   83SAPS  H14X 7865   0.408  -0.104   8.896  0.2445 -0.2102 -0.0914
   83SAPS  H14Y 7866   0.553  -0.061   8.810  1.6543  0.7961  0.6271
   83SAPS  C315 7867   0.423   0.117   8.850  0.0214 -0.2348  0.6064
   83SAPS  H15X 7868   0.504   0.184   8.815 -0.6601  1.3517  1.9414
   83SAPS  H15Y 7869   0.371   0.162   8.938 -1.0521  2.4279 -1.2632
   83SAPS  C316 7870   0.320   0.112   8.734 -0.6346 -0.7627  0.4967
   83SAPS  H16X 7871   0.333   0.020   8.673 -0.9831 -0.3111 -0.2607
   83SAPS  H16Y 7872   0.335   0.194   8.662 -0.0178  0.1697  1.6500
   83SAPS  C317 7873   0.178   0.127   8.783  0.1611 -0.0408 -0.5676
   83SAPS  H17X 7874   0.104   0.170   8.712  0.5947  0.4474 -0.7317
   83SAPS  H17Y 7875   0.191   0.201   8.865  1.1157  0.0590 -0.8062
   83SAPS  C318 7876   0.121  -0.005   8.845 -0.0930  0.0556 -0.4265
   83SAPS  H18X 7877   0.022   0.016   8.891  0.1089  1.1258 -0.4571
   83SAPS  H18Y 7878   0.190  -0.051   8.919 -0.6279  1.2874  0.8943
   83SAPS  H18Z 7879   0.101  -0.080   8.766  1.3907  0.2448 -1.0210
   84SAPS     N 7880   0.861   6.713  11.212 -0.6317  0.1930 -0.5747
   84SAPS   HN1 7881   0.890   6.644  11.141 -2.4262 -1.5493  0.2909
   84SAPS   HN2 7882   0.808   6.659  11.284 -2.0266  0.0921 -1.6410
   84SAPS   HN3 7883   0.808   6.787  11.162  1.2710  0.7907 -1.7798
   84SAPS   C12 7884   0.980   6.770  11.285  0.2027 -0.0992  0.0106
   84SAPS  H12A 7885   1.029   6.834  11.213  0.9658 -0.4091  0.2502
   84SAPS   C13 7886   0.950   6.865  11.405  0.1073 -0.7416  1.0264
   84SAPS  O13A 7887   0.829   6.888  11.435  0.2571  0.0910 -0.3375
   84SAPS  O13B 7888   1.044   6.934  11.453 -0.1747 -0.9139 -0.0036
   84SAPS   C11 7889   1.071   6.650  11.326 -0.1674  0.0152  0.1913
   84SAPS  H11A 7890   1.007   6.591  11.395 -0.1348  1.0514  1.1259
   84SAPS  H11B 7891   1.159   6.696  11.375  1.7166 -1.4520 -1.6383
   84SAPS     P 7892   1.251   6.568  11.157  0.1260  0.2618 -0.0594
   84SAPS   O13 7893   1.332   6.527  11.269 -0.0029  0.2244  0.0553
   84SAPS   O14 7894   1.260   6.478  11.040 -0.1936  0.6204  0.2888
   84SAPS   O12 7895   1.100   6.563  11.215 -0.5388 -0.4572 -0.0134
   84SAPS   O11 7896   1.280   6.718  11.118  0.4737  0.3427  0.3201
   84SAPS    C1 7897   1.229   6.774  10.989 -0.0926 -0.1878 -0.0488
   84SAPS    HA 7898   1.240   6.692  10.915 -1.5311 -1.5322  1.1468
   84SAPS    HB 7899   1.118   6.783  10.991 -0.0047  1.5547 -0.9577
   84SAPS    C2 7900   1.310   6.894  10.946  0.0222 -0.1825 -1.0459
   84SAPS    HS 7901   1.253   6.988  10.958  0.6966  0.1449 -0.3687
   84SAPS   O21 7902   1.348   6.882  10.812  0.8145  0.0102  0.1947
   84SAPS   C21 7903   1.264   6.934  10.715 -0.0886 -0.4704  0.1155
   84SAPS   O22 7904   1.153   6.978  10.740  0.0728 -0.0081 -0.0983
   84SAPS   C22 7905   1.317   6.915  10.569 -0.3511  0.3898 -0.6289
   84SAPS   H2R 7906   1.425   6.939  10.569 -0.2819  0.2335  1.2879
   84SAPS   H2S 7907   1.298   6.810  10.539  0.9294 -0.2453  0.6946
   84SAPS    C3 7908   1.440   6.911  11.022  0.9502 -0.8398 -0.1096
   84SAPS    HX 7909   1.487   6.811  11.026 -1.6587 -2.1139  2.8942
   84SAPS    HY 7910   1.417   6.936  11.128  0.0363  0.8915 -0.6695
   84SAPS   O31 7911   1.525   7.015  10.966 -0.8292 -0.4466  0.3298
   84SAPS   C31 7912   1.632   6.975  10.892  0.9558  0.2568 -0.8225
   84SAPS   O32 7913   1.671   6.861  10.884  0.6077 -0.5103  0.2706
   84SAPS   C32 7914   1.705   7.096  10.862 -0.0513 -0.2439 -0.3560
   84SAPS   H2X 7915   1.748   7.134  10.957 -2.5457  0.5205  0.5223
   84SAPS   H2Y 7916   1.632   7.171  10.825  0.2075  0.5721  0.7261
   84SAPS   C23 7917   1.233   7.010  10.471  0.1173  0.2107  0.1090
   84SAPS   H3R 7918   1.123   7.004  10.487  0.3398 -1.2108  1.3337
   84SAPS   H3S 7919   1.234   6.960  10.372  2.7089  1.4967 -0.6098
   84SAPS   C24 7920   1.270   7.155  10.468  0.2415 -0.1465 -0.6430
   84SAPS   H4R 7921   1.271   7.197  10.571 -1.0018 -2.8185  0.5407
   84SAPS   H4S 7922   1.195   7.206  10.404 -2.2868 -2.3843  0.3645
   84SAPS   C25 7923   1.410   7.186  10.416 -0.2600  0.5721  0.4871
   84SAPS   H5R 7924   1.498   7.188  10.481  0.9716  2.2060 -1.1207
   84SAPS   C26 7925   1.453   7.199  10.285 -0.2736  0.2911  0.3724
   84SAPS   H6R 7926   1.562   7.203  10.274 -0.3178 -1.7714 -1.5787
   84SAPS   C27 7927   1.358   7.204  10.173 -0.2745 -0.1346 -0.0715
   84SAPS   H7R 7928   1.252   7.215  10.205 -0.5857 -1.7764 -0.4803
   84SAPS   H7S 7929   1.365   7.108  10.118  2.0326 -1.5167  2.4319
   84SAPS   C28 7930   1.407   7.315  10.081 -0.2161  0.8419 -0.2950
   84SAPS   H8R 7931   1.458   7.403  10.122  3.4472 -1.2776  0.1030
   84SAPS   C29 7932   1.421   7.309   9.947  0.4033  0.2266  0.3647
   84SAPS   H9R 7933   1.456   7.400   9.896 -0.5513  1.2375  1.4384
   84SAPS  C210 7934   1.391   7.194   9.844 -0.0252 -0.0223 -0.0131
   84SAPS  H10R 7935   1.373   7.098   9.896 -0.4571 -0.0963 -0.3057
   84SAPS  H10S 7936   1.472   7.179   9.769  0.4519 -4.9525  1.1793
   84SAPS  C211 7937   1.266   7.223   9.766  0.2025 -1.2394 -0.2676
   84SAPS  H11R 7938   1.197   7.287   9.823  0.2803 -0.7904 -0.6710
   84SAPS  C212 7939   1.244   7.222   9.632  0.1752 -0.0448  0.9832
   84SAPS  H12R 7940   1.147   7.260   9.598 -0.1732 -0.5371  1.4160
   84SAPS  C213 7941   1.331   7.145   9.535  0.1195  0.3919  0.1480
   84SAPS  H13R 7942   1.432   7.191   9.537  0.0471  0.5624 -0.0893
   84SAPS  H13S 7943   1.301   7.161   9.429 -2.2038 -2.9615  0.1287
   84SAPS  C214 7944   1.344   6.993   9.570  0.3893  0.0736  0.5947
   84SAPS  H14R 7945   1.324   6.970   9.676  2.4232 -0.0492  0.9940
   84SAPS  C215 7946   1.371   6.895   9.489  0.3927  0.0026 -0.5099
   84SAPS  H15R 7947   1.365   6.792   9.527 -0.2778 -1.2201 -3.6348
   84SAPS  C216 7948   1.376   6.906   9.346 -0.7645  0.0117  0.3492
   84SAPS  H16R 7949   1.408   6.813   9.294  0.5943  0.6909 -0.0678
   84SAPS  H16S 7950   1.461   6.967   9.308  0.6630 -1.6530  0.7307
   84SAPS  C217 7951   1.237   6.923   9.281 -0.1991 -0.2196  0.5318
   84SAPS  H17R 7952   1.184   7.007   9.332  0.3875  0.9496 -0.7252
   84SAPS  H17S 7953   1.198   6.821   9.301  0.3339 -0.3537  0.8887
   84SAPS  C218 7954   1.247   6.960   9.130 -0.2425 -0.0355 -0.2411
   84SAPS  H18R 7955   1.316   7.047   9.126 -0.4057  0.2691  2.2097
   84SAPS  H18S 7956   1.146   7.003   9.114 -1.2473 -2.1396  0.0368
   84SAPS  C219 7957   1.293   6.857   9.027 -0.8694  0.3883  0.7882
   84SAPS  H19R 7958   1.233   6.765   9.045 -0.1173  0.0543  1.7356
   84SAPS  H19S 7959   1.397   6.828   9.055 -0.5649  2.1042  1.5809
   84SAPS  C220 7960   1.278   6.899   8.875  0.4133 -0.0060  0.0484
   84SAPS  H20R 7961   1.302   7.008   8.868  0.3211  0.2484  2.6530
   84SAPS  H20S 7962   1.174   6.876   8.844 -0.0183 -0.2315  1.5713
   84SAPS  H20T 7963   1.351   6.838   8.817  2.0391 -0.1839  2.1594
   84SAPS   C33 7964   1.811   7.077  10.751 -0.2307 -0.2884  0.1962
   84SAPS   H3X 7965   1.867   6.981  10.753 -0.1994 -0.3497 -1.6309
   84SAPS   H3Y 7966   1.878   7.165  10.756 -1.1870  0.5505 -0.9657
   84SAPS   C34 7967   1.751   7.078  10.611  0.1072 -0.0710  0.2834
   84SAPS   H4X 7968   1.820   7.105  10.528  1.0897 -1.1958  0.7133
   84SAPS   H4Y 7969   1.678   7.161  10.619  2.3855  1.9869  0.9878
   84SAPS   C35 7970   1.703   6.934  10.574 -0.0425  0.3825  0.8627
   84SAPS   H5X 7971   1.626   6.944  10.493  0.8198 -1.5976 -0.2709
   84SAPS   H5Y 7972   1.654   6.888  10.662 -0.0713 -1.9424 -0.2787
   84SAPS   C36 7973   1.816   6.837  10.534 -0.4081 -0.5740  0.5162
   84SAPS   H6X 7974   1.752   6.752  10.500  0.2173 -0.7717 -0.2106
   84SAPS   H6Y 7975   1.875   6.810  10.624 -0.7350 -0.3757  0.7886
   84SAPS   C37 7976   1.893   6.900  10.410  0.3451  0.5621 -0.4373
   84SAPS   H7X 7977   1.954   6.989  10.434 -0.6775  1.0812  0.3183
   84SAPS   H7Y 7978   1.819   6.936  10.335 -0.0577  0.2432 -0.1952
   84SAPS   C38 7979   1.976   6.791  10.351  0.7214 -0.1604 -0.0316
   84SAPS   H8X 7980   1.902   6.712  10.324  2.1227 -0.6698 -2.7376
   84SAPS   H8Y 7981   2.050   6.756  10.426  0.7212 -0.2426 -0.0690
   84SAPS   C39 7982   2.061   6.833  10.223  0.3701 -0.0196  0.0103
   84SAPS   H9X 7983   2.129   6.916  10.253 -0.3160  1.0598 -1.3166
   84SAPS   H9Y 7984   1.995   6.872  10.144  0.2068 -2.3572 -1.0680
   84SAPS  C310 7985   2.149   6.712  10.173  0.5639  0.2473 -0.4354
   84SAPS  H10X 7986   2.082   6.628  10.148 -1.5967  2.4809 -2.7821
   84SAPS  H10Y 7987   2.215   6.689  10.260 -0.8251 -0.3903  0.4878
   84SAPS  C311 7988   2.221   6.755  10.049  0.4533 -0.1740 -0.4623
   84SAPS  H11X 7989   2.284   6.846  10.065  0.0349  0.3094 -1.4798
   84SAPS  H11Y 7990   2.149   6.775   9.967 -0.8689 -0.1043  0.6943
   84SAPS  C312 7991   2.314   6.653   9.980  0.0748 -0.3436  0.6981
   84SAPS  H12X 7992   2.377   6.603  10.056  2.5623  0.7502 -0.5546
   84SAPS  H12Y 7993   2.385   6.701   9.909 -2.4747  0.0089 -1.8186
   84SAPS  C313 7994   2.236   6.538   9.906  0.2079 -0.1823 -0.8104
   84SAPS  H13X 7995   2.134   6.529   9.949  1.0402  1.3877  1.7264
   84SAPS  H13Y 7996   2.298   6.450   9.932  1.5054  1.7934  3.8218
   84SAPS  C314 7997   2.224   6.564   9.756  0.8985  0.2852  0.1424
   84SAPS  H14X 7998   2.307   6.627   9.718 -0.8711  1.5255 -1.9425
   84SAPS  H14Y 7999   2.136   6.628   9.732 -1.4798 -2.3243  1.2979
   84SAPS  C315 8000   2.217   6.427   9.681 -0.3278 -0.0578  0.4998
   84SAPS  H15X 8001   2.140   6.363   9.727  2.1029 -5.4502 -2.0488
   84SAPS  H15Y 8002   2.311   6.369   9.686 -0.2365 -0.0025 -0.3508
   84SAPS  C316 8003   2.185   6.451   9.532 -0.1393  0.6062  0.3979
   84SAPS  H16X 8004   2.259   6.523   9.492 -1.8711  2.6190  0.5980
   84SAPS  H16Y 8005   2.085   6.497   9.516  0.1153  0.6136 -1.3804
   84SAPS  C317 8006   2.197   6.329   9.447  1.1262  0.6791 -0.0185
   84SAPS  H17X 8007   2.104   6.275   9.477  2.2309 -1.6350 -0.5483
   84SAPS  H17Y 8008   2.284   6.270   9.483 -0.0247  0.1776  2.1289
   84SAPS  C318 8009   2.194   6.357   9.296 -0.4870 -0.2384  0.1223
   84SAPS  H18X 8010   2.190   6.256   9.250  0.4322 -0.8814  1.3890
   84SAPS  H18Y 8011   2.292   6.407   9.278  0.3305 -1.8539 -0.1208
   84SAPS  H18Z 8012   2.104   6.415   9.268 -1.9511 -2.3178  0.2836
   85SAPS     N 8013   0.320   1.852  10.962 -0.3225 -0.7466 -1.0667
   85SAPS   HN1 8014   0.320   1.752  10.933 -0.9690 -1.6613  1.7995
   85SAPS   HN2 8015   0.290   1.913  10.883 -2.1909 -0.7137 -0.3726
   85SAPS   HN3 8016   0.418   1.874  10.989  0.2543 -1.6972 -2.2390
   85SAPS   C12 8017   0.214   1.870  11.067 -0.2898 -0.2032 -0.5748
   85SAPS  H12A 8018   0.228   1.788  11.137 -0.3156  0.0250 -0.3014
   85SAPS   C13 8019   0.218   2.011  11.145  0.2624  0.4240  0.2310
   85SAPS  O13A 8020   0.308   2.093  11.114  0.4196  0.3319 -0.7555
   85SAPS  O13B 8021   0.164   1.997  11.257 -0.4013  0.5276 -0.1266
   85SAPS   C11 8022   0.079   1.842  11.002 -0.5314  0.2546 -0.1572
   85SAPS  H11A 8023   0.064   1.912  10.917 -1.1791 -0.9291 -1.0491
   85SAPS  H11B 8024  -0.002   1.866  11.074  0.8556 -2.6725  2.6131
   85SAPS     P 8025  -0.067   1.660  10.879 -0.4704  0.1194  0.3242
   85SAPS   O13 8026  -0.065   1.514  10.871 -0.1143 -0.0709  0.1057
   85SAPS   O14 8027  -0.192   1.722  10.939  0.1036 -0.2628 -0.1404
   85SAPS   O12 8028   0.060   1.711  10.960  0.7269  0.0023  0.8397
   85SAPS   O11 8029  -0.042   1.728  10.735  0.3165 -0.2824 -0.0096
   85SAPS    C1 8030   0.088   1.721  10.677  0.3823  0.7424 -0.1303
   85SAPS    HA 8031   0.113   1.820  10.634  2.4875 -0.0522 -0.8418
   85SAPS    HB 8032   0.163   1.697  10.756 -2.2936 -1.4246  2.0074
   85SAPS    C2 8033   0.080   1.620  10.551  0.0021  0.4037 -0.6104
   85SAPS    HS 8034   0.059   1.518  10.590 -2.0036  0.7675 -0.5976
   85SAPS   O21 8035   0.204   1.603  10.484  0.5201  0.2359  0.1007
   85SAPS   C21 8036   0.304   1.545  10.556  0.3588  0.1406 -0.4700
   85SAPS   O22 8037   0.295   1.509  10.673 -0.4507  0.3353  0.5948
   85SAPS   C22 8038   0.421   1.510  10.460 -0.5486  0.0613  0.9145
   85SAPS   H2R 8039   0.439   1.402  10.473 -0.1754  0.0469  0.3247
   85SAPS   H2S 8040   0.385   1.539  10.359 -0.2566  0.2856  0.8733
   85SAPS    C3 8041  -0.029   1.656  10.445 -0.5594  0.1519  0.4059
   85SAPS    HX 8042  -0.012   1.751  10.391 -0.0011 -2.1781 -3.9658
   85SAPS    HY 8043  -0.124   1.672  10.501 -0.1856 -0.4127  1.2326
   85SAPS   O31 8044  -0.041   1.546  10.354 -0.0233 -0.3560  0.0881
   85SAPS   C31 8045  -0.170   1.511  10.317 -0.6081  0.1042  0.1766
   85SAPS   O32 8046  -0.269   1.568  10.353  0.3905  0.3609 -0.4244
   85SAPS   C32 8047  -0.164   1.387  10.233  0.5957 -0.2968 -0.1706
   85SAPS   H2X 8048  -0.148   1.299  10.299  1.7397 -0.1632 -0.2422
   85SAPS   H2Y 8049  -0.073   1.398  10.170  0.5697  1.9762  0.0938
   85SAPS   C23 8050   0.539   1.599  10.494 -0.2195  0.0506  0.1656
   85SAPS   H3R 8051   0.574   1.586  10.599 -2.4118 -0.6679  0.8542
   85SAPS   H3S 8052   0.503   1.704  10.492 -2.9181 -0.8046 -0.8618
   85SAPS   C24 8053   0.636   1.589  10.376 -0.0277 -0.0971 -0.0066
   85SAPS   H4R 8054   0.591   1.650  10.296  1.3776  0.8322 -0.1297
   85SAPS   H4S 8055   0.655   1.485  10.340  1.7333 -0.0927  0.7593
   85SAPS   C25 8056   0.774   1.648  10.408 -0.0212 -0.3657 -0.6665
   85SAPS   H5R 8057   0.780   1.683  10.512 -1.3241 -2.2621  0.1138
   85SAPS   C26 8058   0.882   1.661  10.328 -0.5091 -0.2258 -0.2945
   85SAPS   H6R 8059   0.966   1.716  10.373 -1.1099  1.1960 -0.8469
   85SAPS   C27 8060   0.893   1.639  10.179 -0.2683 -0.0086 -0.0694
   85SAPS   H7R 8061   0.820   1.565  10.139  0.3441  0.0920 -1.4524
   85SAPS   H7S 8062   0.989   1.592  10.148 -0.9373 -1.3952 -0.1429
   85SAPS   C28 8063   0.876   1.766  10.100  0.0425  0.1830 -0.1189
   85SAPS   H8R 8064   0.895   1.857  10.158  0.0270 -1.6816  2.9889
   85SAPS   C29 8065   0.842   1.772   9.971 -0.0009  0.2977  0.2452
   85SAPS   H9R 8066   0.834   1.870   9.923 -0.0703  1.1929  1.9973
   85SAPS  C210 8067   0.801   1.654   9.879 -0.0854 -0.7095  0.6221
   85SAPS  H10R 8068   0.699   1.683   9.844  0.1045  0.8671  1.2875
   85SAPS  H10S 8069   0.794   1.557   9.932  1.8213 -1.7069 -0.8299
   85SAPS  C211 8070   0.905   1.641   9.768  0.2991 -0.0575  0.0835
   85SAPS  H11R 8071   1.010   1.646   9.800  0.9930 -1.4998 -1.7827
   85SAPS  C212 8072   0.888   1.608   9.639 -0.1280  0.2204 -0.1102
   85SAPS  H12R 8073   0.979   1.588   9.581  0.6060  1.0249  0.7264
   85SAPS  C213 8074   0.758   1.583   9.570  0.5120  0.5258 -0.4371
   85SAPS  H13R 8075   0.678   1.590   9.647  0.5235  0.5147 -0.4238
   85SAPS  H13S 8076   0.751   1.482   9.525 -1.7863  0.8258 -0.8801
   85SAPS  C214 8077   0.712   1.683   9.467 -0.2715  0.3340 -0.3938
   85SAPS  H14R 8078   0.696   1.782   9.513  0.5671  0.1949  0.2324
   85SAPS  C215 8079   0.691   1.668   9.340 -0.3211  0.1185  0.1534
   85SAPS  H15R 8080   0.660   1.756   9.282  2.5899  1.6313  0.6772
   85SAPS  C216 8081   0.710   1.542   9.254  0.2277 -0.6483  0.6058
   85SAPS  H16R 8082   0.614   1.488   9.259  0.5431 -1.5263 -1.6840
   85SAPS  H16S 8083   0.788   1.473   9.293 -0.8779 -2.9219 -1.0343
   85SAPS  C217 8084   0.745   1.582   9.101  0.1207 -0.2946 -0.7255
   85SAPS  H17R 8085   0.666   1.655   9.075  1.9122  2.0951  0.1223
   85SAPS  H17S 8086   0.747   1.502   9.024  2.4789  0.1123 -1.1832
   85SAPS  C218 8087   0.882   1.660   9.105  0.0087 -0.0069 -0.3659
   85SAPS  H18R 8088   0.968   1.593   9.129  0.9544  1.6510  1.1281
   85SAPS  H18S 8089   0.897   1.729   9.191  0.4054 -1.5860  0.8854
   85SAPS  C219 8090   0.915   1.735   8.977  0.0197  0.0966 -0.2374
   85SAPS  H19R 8091   0.844   1.819   8.992  0.2079  0.2843 -0.3890
   85SAPS  H19S 8092   0.882   1.689   8.881  3.8145 -1.3989 -0.9916
   85SAPS  C220 8093   1.062   1.775   8.979  0.0625 -0.8244  0.2467
   85SAPS  H20R 8094   1.123   1.682   8.988 -0.3704 -1.0279  1.1627
   85SAPS  H20S 8095   1.099   1.832   9.067  1.2281 -0.6460 -0.3429
   85SAPS  H20T 8096   1.090   1.824   8.883 -2.1757  2.9894  1.3382
   85SAPS   C33 8097  -0.298   1.376  10.139 -0.3963 -0.2345  0.4880
   85SAPS   H3X 8098  -0.337   1.476  10.111  0.6004 -0.3533 -1.4719
   85SAPS   H3Y 8099  -0.390   1.339  10.191 -2.4227  1.2654 -1.8119
   85SAPS   C34 8100  -0.274   1.293  10.014 -1.0094 -0.4350  1.1117
   85SAPS   H4X 8101  -0.367   1.237   9.989 -1.0877 -0.0609  0.5583
   85SAPS   H4Y 8102  -0.195   1.217  10.034  1.5374  1.6160 -0.5316
   85SAPS   C35 8103  -0.239   1.373   9.884 -0.2002 -0.5991 -0.0739
   85SAPS   H5X 8104  -0.145   1.429   9.903 -1.1099  0.6558  0.9172
   85SAPS   H5Y 8105  -0.315   1.447   9.851  0.3707  1.4099  2.8095
   85SAPS   C36 8106  -0.218   1.273   9.766  0.3103  0.4502 -0.0113
   85SAPS   H6X 8107  -0.312   1.216   9.747  1.7273 -2.6157  1.4894
   85SAPS   H6Y 8108  -0.142   1.207   9.813 -1.0358 -0.5646  0.8387
   85SAPS   C37 8109  -0.151   1.345   9.646  0.3455 -0.0159  0.4169
   85SAPS   H7X 8110  -0.067   1.410   9.679  1.5654 -0.2943 -1.9296
   85SAPS   H7Y 8111  -0.230   1.414   9.607  2.2605  3.1626  1.8093
   85SAPS   C38 8112  -0.095   1.237   9.545 -0.2170 -0.5250 -0.3029
   85SAPS   H8X 8113  -0.161   1.154   9.513 -0.7354  0.0623 -0.7927
   85SAPS   H8Y 8114  -0.017   1.181   9.601 -0.8705 -3.3667 -2.0549
   85SAPS   C39 8115  -0.029   1.296   9.420  0.3063  0.4554 -0.9563
   85SAPS   H9X 8116   0.068   1.345   9.442  0.2529  0.5949 -1.0259
   85SAPS   H9Y 8117  -0.096   1.378   9.386 -0.3950  0.2288 -0.1450
   85SAPS  C310 8118  -0.014   1.189   9.305 -0.4873 -0.0257  0.2314
   85SAPS  H10X 8119  -0.099   1.119   9.293 -1.0850  0.3097  2.1905
   85SAPS  H10Y 8120   0.080   1.136   9.333  1.0988  1.8565 -1.2049
   85SAPS  C311 8121   0.005   1.248   9.161  0.3025  0.2412 -0.1783
   85SAPS  H11X 8122   0.051   1.172   9.094  1.4458 -0.5019  1.3974
   85SAPS  H11Y 8123   0.070   1.338   9.169  0.8248  0.3238 -3.7127
   85SAPS  C312 8124  -0.139   1.284   9.106  0.2167 -0.0858  0.3271
   85SAPS  H12X 8125  -0.173   1.375   9.160  1.6251  0.8778 -0.3562
   85SAPS  H12Y 8126  -0.214   1.205   9.132  0.1072 -0.7227 -1.7004
   85SAPS  C313 8127  -0.152   1.315   8.952  0.4591  0.2598  0.7999
   85SAPS  H13X 8128  -0.258   1.348   8.938  0.1691  1.1039  4.1090
   85SAPS  H13Y 8129  -0.127   1.218   8.904  0.7539  0.4281  0.6094
   85SAPS  C314 8130  -0.057   1.418   8.898  0.1321 -0.3116  0.1742
   85SAPS  H14X 8131   0.046   1.378   8.894 -0.1434 -1.0125 -0.1233
   85SAPS  H14Y 8132  -0.049   1.500   8.972 -0.8978 -1.1299  1.2511
   85SAPS  C315 8133  -0.097   1.477   8.762 -0.2011  0.2784 -0.4244
   85SAPS  H15X 8134  -0.021   1.548   8.721 -1.7231  0.3600 -3.4037
   85SAPS  H15Y 8135  -0.195   1.526   8.779  0.5543  1.7489 -0.1367
   85SAPS  C316 8136  -0.100   1.363   8.653  0.6237 -0.2904  0.1133
   85SAPS  H16X 8137  -0.035   1.276   8.676 -0.6276 -1.0685  0.7909
   85SAPS  H16Y 8138  -0.065   1.391   8.551  3.6490 -0.1980  1.0635
   85SAPS  C317 8139  -0.240   1.298   8.644  0.0690 -0.7864 -0.4144
   85SAPS  H17X 8140  -0.312   1.383   8.637  3.1806  2.4170  2.2727
   85SAPS  H17Y 8141  -0.252   1.241   8.738  2.1251  1.1486  1.1378
   85SAPS  C318 8142  -0.256   1.210   8.529 -0.7163  0.4170  1.3541
   85SAPS  H18X 8143  -0.354   1.160   8.518 -1.2558  1.9205 -1.8608
   85SAPS  H18Y 8144  -0.166   1.145   8.519  0.8067  2.5763 -0.0111
   85SAPS  H18Z 8145  -0.249   1.261   8.430  1.3748 -0.9559  0.7087
   86SAPS     N 8146   2.195   1.143  11.039 -0.3065 -0.2283 -0.2334
   86SAPS   HN1 8147   2.115   1.131  11.105 -0.9463  0.4372 -0.8745
   86SAPS   HN2 8148   2.159   1.154  10.943 -0.5564  1.1323 -0.0058
   86SAPS   HN3 8149   2.258   1.061  11.041  0.1526  0.1025  2.1437
   86SAPS   C12 8150   2.274   1.259  11.092  0.0036  0.0107  0.4137
   86SAPS  H12A 8151   2.209   1.345  11.083 -1.7363 -1.2232  0.5831
   86SAPS   C13 8152   2.327   1.256  11.241  0.1861 -0.3018  0.0429
   86SAPS  O13A 8153   2.301   1.154  11.306 -0.0182  0.0427  0.5055
   86SAPS  O13B 8154   2.376   1.358  11.300  0.0376 -0.5124  0.1423
   86SAPS   C11 8155   2.404   1.299  11.006  0.0699  0.4770 -0.4966
   86SAPS  H11A 8156   2.462   1.205  11.016 -0.5868  0.2339  1.5473
   86SAPS  H11B 8157   2.455   1.384  11.057  1.0244 -0.2746 -0.1848
   86SAPS     P 8158   2.321   1.478  10.849 -0.4369 -0.2915 -0.2541
   86SAPS   O13 8159   2.177   1.483  10.881 -0.0044 -0.1789 -0.6064
   86SAPS   O14 8160   2.409   1.573  10.919  0.0305  0.1140 -0.1485
   86SAPS   O12 8161   2.370   1.334  10.869  0.3622  0.0007  0.0431
   86SAPS   O11 8162   2.348   1.510  10.699 -0.5650 -0.1924 -0.1303
   86SAPS    C1 8163   2.372   1.404  10.601 -0.3991 -0.4854  0.3565
   86SAPS    HA 8164   2.427   1.454  10.519  1.0506  0.7114  1.9784
   86SAPS    HB 8165   2.445   1.329  10.640 -0.2483 -1.0801 -1.0140
   86SAPS    C2 8166   2.238   1.345  10.564  0.7788  0.4137  0.6037
   86SAPS    HS 8167   2.209   1.292  10.657 -0.3431 -1.4616 -0.7282
   86SAPS   O21 8168   2.260   1.254  10.447  0.1517 -0.0996 -0.1712
   86SAPS   C21 8169   2.178   1.149  10.440  0.5192 -0.0268 -0.5128
   86SAPS   O22 8170   2.089   1.115  10.521 -0.0751  0.4361  0.6225
   86SAPS   C22 8171   2.206   1.062  10.318 -0.3175 -0.3735 -1.2256
   86SAPS   H2R 8172   2.302   1.095  10.271  2.0299 -2.4948  1.7114
   86SAPS   H2S 8173   2.204   0.953  10.336 -0.6561 -0.1799 -0.0120
   86SAPS    C3 8174   2.125   1.443  10.524  0.6716 -0.0678  0.3884
   86SAPS    HX 8175   2.156   1.494  10.429 -1.9924 -0.5594 -0.8431
   86SAPS    HY 8176   2.121   1.520  10.604  0.1014  0.9509 -0.5704
   86SAPS   O31 8177   1.997   1.380  10.498  0.1833  0.1874  0.1298
   86SAPS   C31 8178   1.890   1.452  10.525  0.7433 -0.6192 -0.0328
   86SAPS   O32 8179   1.892   1.563  10.570 -0.1298  0.1176 -0.2008
   86SAPS   C32 8180   1.760   1.383  10.479 -0.3514 -0.1235  0.3662
   86SAPS   H2X 8181   1.669   1.401  10.539 -1.8180  1.1952 -2.0786
   86SAPS   H2Y 8182   1.783   1.275  10.485  2.7506  0.4687  1.1324
   86SAPS   C23 8183   2.093   1.076  10.212 -0.2158  0.3374 -0.6334
   86SAPS   H3R 8184   2.096   1.174  10.161  0.9259  0.8008  0.2793
   86SAPS   H3S 8185   1.991   1.074  10.257 -0.1270  0.4622 -0.4254
   86SAPS   C24 8186   2.095   0.956  10.118 -0.5152 -0.3687  0.0050
   86SAPS   H4R 8187   2.007   0.964  10.051  0.5817  2.1445 -1.2788
   86SAPS   H4S 8188   2.077   0.867  10.181 -1.7889  0.2561  0.5518
   86SAPS   C25 8189   2.224   0.942  10.032  0.7411 -0.2271 -0.3329
   86SAPS   H5R 8190   2.312   0.932  10.097 -0.2695  0.4726  1.1698
   86SAPS   C26 8191   2.229   0.955   9.893  0.2147  0.0074  0.2252
   86SAPS   H6R 8192   2.331   0.944   9.854 -1.0920 -0.6179 -3.3689
   86SAPS   C27 8193   2.122   0.971   9.787 -0.3328 -0.0331  0.4085
   86SAPS   H7R 8194   2.149   1.060   9.726 -1.2454 -0.0258 -0.0001
   86SAPS   H7S 8195   2.018   0.991   9.822 -0.4295 -0.9699  0.6798
   86SAPS   C28 8196   2.126   0.855   9.690  0.1356  0.0462 -0.4162
   86SAPS   H8R 8197   2.048   0.781   9.716  1.0764 -0.0809  2.3866
   86SAPS   C29 8198   2.212   0.839   9.588  0.2526  0.8449  0.9076
   86SAPS   H9R 8199   2.202   0.753   9.520 -0.8721  0.0862  2.0061
   86SAPS  C210 8200   2.329   0.932   9.561  0.4844  0.0776 -0.1405
   86SAPS  H10R 8201   2.429   0.901   9.599  2.3010  3.6731 -1.4873
   86SAPS  H10S 8202   2.309   1.033   9.601 -1.9456 -1.6460  3.5055
   86SAPS  C211 8203   2.343   0.954   9.410 -0.6176  0.1537  0.2138
   86SAPS  H11R 8204   2.264   1.012   9.359 -0.0703 -0.3303 -1.2549
   86SAPS  C212 8205   2.442   0.911   9.333  0.1788 -0.1175  0.5196
   86SAPS  H12R 8206   2.453   0.947   9.229 -0.2453  1.2830  0.9359
   86SAPS  C213 8207   2.556   0.825   9.377 -0.2999 -0.7061 -0.0368
   86SAPS  H13R 8208   2.529   0.718   9.377 -0.2933 -0.8828 -4.2283
   86SAPS  H13S 8209   2.588   0.851   9.480  3.5596 -1.7737 -0.8196
   86SAPS  C214 8210   2.671   0.871   9.292  0.1203  0.0468  0.5742
   86SAPS  H14R 8211   2.728   0.957   9.328  1.0721 -0.8561  1.3007
   86SAPS  C215 8212   2.707   0.816   9.178 -0.5340 -0.0420  0.2073
   86SAPS  H15R 8213   2.812   0.839   9.153 -0.4475 -0.7409 -0.0964
   86SAPS  C216 8214   2.656   0.682   9.115  0.0424  0.0122 -0.0884
   86SAPS  H16R 8215   2.596   0.620   9.185  1.0319 -0.0963  0.6922
   86SAPS  H16S 8216   2.745   0.618   9.095  0.4904 -0.0516  1.8480
   86SAPS  C217 8217   2.569   0.679   8.986  0.1890 -0.1623 -0.3940
   86SAPS  H17R 8218   2.622   0.751   8.920  0.1504  0.1240 -0.1149
   86SAPS  H17S 8219   2.471   0.725   9.013 -1.3133 -1.3344 -3.3280
   86SAPS  C218 8220   2.549   0.543   8.917  0.4476  0.4385 -0.8257
   86SAPS  H18R 8221   2.648   0.528   8.869  1.7275  1.1337  1.4468
   86SAPS  H18S 8222   2.493   0.572   8.826  0.3656 -1.1643 -1.3089
   86SAPS  C219 8223   2.485   0.427   8.987 -0.1436 -0.2871 -0.4034
   86SAPS  H19R 8224   2.543   0.396   9.077  0.4217  2.7274  0.3563
   86SAPS  H19S 8225   2.467   0.347   8.911 -0.9355  1.7137 -2.4334
   86SAPS  C220 8226   2.336   0.451   9.051  0.3258  0.9239 -0.4407
   86SAPS  H20R 8227   2.256   0.490   8.984  0.6952  1.1716 -0.7457
   86SAPS  H20S 8228   2.349   0.528   9.129 -0.4177  0.2333  0.3787
   86SAPS  H20T 8229   2.289   0.362   9.097  3.3971  0.1830  1.5174
   86SAPS   C33 8230   1.740   1.433  10.335 -0.6641 -0.5261 -0.4889
   86SAPS   H3X 8231   1.777   1.537  10.323 -0.5066 -0.6042 -0.6845
   86SAPS   H3Y 8232   1.633   1.427  10.304 -0.4653 -3.2553 -0.8731
   86SAPS   C34 8233   1.808   1.340  10.230 -0.0285  0.5350  0.4383
   86SAPS   H4X 8234   1.791   1.232  10.250 -0.8310  0.6292  0.3012
   86SAPS   H4Y 8235   1.916   1.367  10.230 -0.1750  1.1261  0.5560
   86SAPS   C35 8236   1.756   1.358  10.090  0.4177 -0.4037 -0.3208
   86SAPS   H5X 8237   1.758   1.466  10.066  1.4080 -0.1296  0.8872
   86SAPS   H5Y 8238   1.651   1.323  10.079  0.3194  0.3101 -2.1013
   86SAPS   C36 8239   1.840   1.284   9.988  0.5695  0.4665 -0.9974
   86SAPS   H6X 8240   1.817   1.175   9.982  1.6869  0.2903 -2.6385
   86SAPS   H6Y 8241   1.948   1.295  10.009  1.0749 -2.1528 -1.8557
   86SAPS   C37 8242   1.815   1.335   9.850  0.3432 -0.2891  0.6106
   86SAPS   H7X 8243   1.851   1.440   9.843  2.0544 -0.9112 -0.9898
   86SAPS   H7Y 8244   1.709   1.343   9.818  0.5036 -1.2270 -0.2180
   86SAPS   C38 8245   1.901   1.275   9.746  0.2371  0.3992  0.2485
   86SAPS   H8X 8246   1.880   1.167   9.759 -2.0085  0.7995  0.2653
   86SAPS   H8Y 8247   2.008   1.286   9.775  0.7710 -1.2298 -0.9296
   86SAPS   C39 8248   1.880   1.323   9.600  0.3832 -0.5409 -0.1464
   86SAPS   H9X 8249   1.902   1.431   9.606 -0.1798 -0.3354 -1.4445
   86SAPS   H9Y 8250   1.773   1.304   9.579 -0.1700  1.8431  0.2311
   86SAPS  C310 8251   1.977   1.250   9.503 -0.7649 -0.1188  0.5744
   86SAPS  H10X 8252   1.983   1.148   9.547 -1.5920  0.0833  1.1732
   86SAPS  H10Y 8253   2.084   1.280   9.515 -0.0082 -2.0724 -0.8003
   86SAPS  C311 8254   1.938   1.262   9.358  0.0029 -0.9920  0.7303
   86SAPS  H11X 8255   1.851   1.193   9.347  0.2507 -1.4426  1.5157
   86SAPS  H11Y 8256   2.022   1.230   9.293  0.5919 -0.0403  0.9993
   86SAPS  C312 8257   1.900   1.403   9.314 -0.2009  0.3922 -0.3997
   86SAPS  H12X 8258   1.991   1.467   9.317  1.7144 -2.1524 -0.1687
   86SAPS  H12Y 8259   1.826   1.445   9.385 -0.2202 -0.2568 -0.0303
   86SAPS  C313 8260   1.841   1.408   9.179  0.6289  0.8008  0.0764
   86SAPS  H13X 8261   1.784   1.502   9.159 -1.8210 -1.0183 -2.3969
   86SAPS  H13Y 8262   1.761   1.331   9.187 -0.0290  1.5047  0.5271
   86SAPS  C314 8263   1.929   1.373   9.059  0.1243  0.0689  0.2964
   86SAPS  H14X 8264   1.985   1.278   9.072  1.2625  0.8636  1.6087
   86SAPS  H14Y 8265   1.999   1.460   9.059 -2.0990  1.9792  1.7568
   86SAPS  C315 8266   1.855   1.368   8.924  0.4883  0.5294 -0.0036
   86SAPS  H15X 8267   1.927   1.385   8.840 -0.2294  1.1458 -0.5111
   86SAPS  H15Y 8268   1.778   1.448   8.924 -0.5406 -0.4359  0.9857
   86SAPS  C316 8269   1.791   1.230   8.907  0.4834  0.1192 -0.0904
   86SAPS  H16X 8270   1.684   1.247   8.882  0.0754 -1.4423  0.4762
   86SAPS  H16Y 8271   1.801   1.186   9.008 -1.1952  0.1185  0.1061
   86SAPS  C317 8272   1.840   1.155   8.781 -0.0849  0.5059 -0.3321
   86SAPS  H17X 8273   1.816   1.047   8.785 -2.3456  0.9209 -1.2341
   86SAPS  H17Y 8274   1.950   1.169   8.770 -0.3526  2.4541 -0.8641
   86SAPS  C318 8275   1.781   1.213   8.645  0.4233 -0.0057 -0.6396
   86SAPS  H18X 8276   1.821   1.142   8.570 -0.7888 -2.8770  1.2760
   86SAPS  H18Y 8277   1.810   1.318   8.621  0.0939 -0.3268 -2.6243
   86SAPS  H18Z 8278   1.671   1.196   8.651  0.7195 -1.7086  0.3895
   87SAPS     N 8279   3.798   2.457  10.831 -0.1873  0.2527  0.0968
   87SAPS   HN1 8280   3.789   2.418  10.735 -0.1992  2.0373 -0.6695
   87SAPS   HN2 8281   3.709   2.506  10.850 -1.6143 -2.3556  0.6662
   87SAPS   HN3 8282   3.876   2.525  10.841 -0.5267  0.8700 -1.3132
   87SAPS   C12 8283   3.801   2.335  10.921 -0.9146  0.0138  0.1208
   87SAPS  H12A 8284   3.883   2.270  10.892 -1.2648  0.0184 -0.8846
   87SAPS   C13 8285   3.832   2.365  11.071 -0.4792 -0.0828  1.2298
   87SAPS  O13A 8286   3.832   2.484  11.114  0.0292  0.6948 -0.1171
   87SAPS  O13B 8287   3.887   2.271  11.135  0.1564  0.2570 -0.9052
   87SAPS   C11 8288   3.671   2.254  10.919  0.4853 -0.3188  0.3413
   87SAPS  H11A 8289   3.596   2.315  10.974  0.4591 -0.2073  0.1822
   87SAPS  H11B 8290   3.692   2.157  10.968  1.6951  0.1305  0.7381
   87SAPS     P 8291   3.538   2.120  10.735 -0.0129 -0.0681  0.1063
   87SAPS   O13 8292   3.621   2.004  10.720 -0.2255  0.4272  0.2728
   87SAPS   O14 8293   3.416   2.112  10.816 -0.2763 -0.2764  0.1400
   87SAPS   O12 8294   3.628   2.240  10.778  0.1233 -0.8265 -0.4684
   87SAPS   O11 8295   3.487   2.171  10.596 -0.0049 -0.0659 -0.0081
   87SAPS    C1 8296   3.417   2.293  10.585  0.9689 -0.3983 -0.3476
   87SAPS    HA 8297   3.358   2.310  10.677  3.4911  0.9198  1.1729
   87SAPS    HB 8298   3.481   2.384  10.575 -0.7753  1.0126  0.8037
   87SAPS    C2 8299   3.348   2.293  10.443  0.2515 -0.1439  0.0286
   87SAPS    HS 8300   3.292   2.389  10.434 -2.2012 -1.5177 -0.2057
   87SAPS   O21 8301   3.254   2.177  10.428  0.5477 -1.1763  0.1118
   87SAPS   C21 8302   3.148   2.186  10.504  0.5328  0.1491  1.0730
   87SAPS   O22 8303   3.120   2.275  10.579  0.0300 -0.3490 -0.0488
   87SAPS   C22 8304   3.056   2.068  10.465  0.1799 -0.0412 -0.8808
   87SAPS   H2R 8305   3.061   2.058  10.355 -2.5722 -0.5493 -1.0136
   87SAPS   H2S 8306   3.094   1.978  10.518  1.3224  0.4653 -0.7891
   87SAPS    C3 8307   3.449   2.293  10.328 -0.0586 -0.7236 -0.0753
   87SAPS    HX 8308   3.502   2.196  10.334  2.4454  0.6317  1.6849
   87SAPS    HY 8309   3.530   2.365  10.353 -3.2459  2.7724  1.2480
   87SAPS   O31 8310   3.386   2.317  10.200  0.3074  0.3489 -0.3782
   87SAPS   C31 8311   3.328   2.429  10.180  0.1818  0.6785 -0.1363
   87SAPS   O32 8312   3.323   2.525  10.258  0.3154  0.1345  0.1544
   87SAPS   C32 8313   3.273   2.424  10.030  0.1892  0.3049  0.2699
   87SAPS   H2X 8314   3.167   2.455  10.033 -0.2806 -1.0119 -1.2176
   87SAPS   H2Y 8315   3.274   2.322   9.985 -0.0304  1.4176 -2.4873
   87SAPS   C23 8316   2.909   2.087  10.503 -0.2858 -0.5952 -0.4163
   87SAPS   H3R 8317   2.878   2.193  10.489  1.9420 -0.0845 -1.9770
   87SAPS   H3S 8318   2.907   2.051  10.608 -0.0220 -1.7955 -0.8050
   87SAPS   C24 8319   2.813   2.002  10.420  0.2740  0.0437  0.0385
   87SAPS   H4R 8320   2.819   2.035  10.314  2.0268 -0.7785 -0.1547
   87SAPS   H4S 8321   2.714   2.034  10.457  1.4281  1.8368  1.7985
   87SAPS   C25 8322   2.839   1.857  10.435 -0.2015  0.2602  0.1232
   87SAPS   H5R 8323   2.884   1.825  10.530 -0.5195 -1.4702 -0.2743
   87SAPS   C26 8324   2.829   1.764  10.338 -0.1851  0.3828 -0.7657
   87SAPS   H6R 8325   2.846   1.659  10.366 -1.2783  0.2530 -0.5411
   87SAPS   C27 8326   2.794   1.786  10.189 -0.2292  0.1630 -0.6107
   87SAPS   H7R 8327   2.707   1.854  10.180 -0.1754  0.1561 -1.2497
   87SAPS   H7S 8328   2.758   1.684  10.165 -0.0791  0.6108 -2.9609
   87SAPS   C28 8329   2.912   1.832  10.100 -0.3676 -0.6244 -0.2773
   87SAPS   H8R 8330   3.011   1.800  10.137  1.3133  2.9701 -1.1758
   87SAPS   C29 8331   2.908   1.917   9.995 -0.0484 -0.3176 -0.2619
   87SAPS   H9R 8332   3.004   1.948   9.952  0.4021 -2.1568 -0.6725
   87SAPS  C210 8333   2.778   1.967   9.935  0.9013  0.9544  0.3749
   87SAPS  H10R 8334   2.748   2.060   9.988 -0.9201  0.3311  0.4875
   87SAPS  H10S 8335   2.695   1.894   9.939  0.4476  1.4629  0.3237
   87SAPS  C211 8336   2.800   2.007   9.791  0.8556 -0.4178 -0.6879
   87SAPS  H11R 8337   2.867   2.094   9.794 -0.6297  0.9180  4.5232
   87SAPS  C212 8338   2.723   1.953   9.689 -0.6388 -0.0138 -0.0161
   87SAPS  H12R 8339   2.737   1.994   9.588  2.0764 -0.5622  0.0451
   87SAPS  C213 8340   2.622   1.836   9.695 -0.0388 -1.2520  0.3696
   87SAPS  H13R 8341   2.636   1.771   9.784  1.9732 -0.9031  0.3536
   87SAPS  H13S 8342   2.647   1.764   9.615 -0.6565 -1.0153 -0.0418
   87SAPS  C214 8343   2.481   1.877   9.677  0.1109 -0.6929 -0.3678
   87SAPS  H14R 8344   2.434   1.925   9.765 -0.0673  1.8122 -1.7469
   87SAPS  C215 8345   2.414   1.874   9.559 -0.0166  0.5684  0.3178
   87SAPS  H15R 8346   2.315   1.921   9.550 -0.3658 -0.4038 -1.4100
   87SAPS  C216 8347   2.469   1.829   9.423  0.2984 -0.4601 -0.6387
   87SAPS  H16R 8348   2.557   1.762   9.430  0.5043 -0.0525  0.8873
   87SAPS  H16S 8349   2.492   1.919   9.361 -0.9323 -0.0928 -0.5865
   87SAPS  C217 8350   2.364   1.757   9.335 -0.3228  0.3424  0.3221
   87SAPS  H17R 8351   2.276   1.822   9.318 -2.9107 -3.0027 -0.0727
   87SAPS  H17S 8352   2.336   1.662   9.386  1.0405  0.0299  0.5239
   87SAPS  C218 8353   2.413   1.729   9.198  0.4777  0.5076 -0.2252
   87SAPS  H18R 8354   2.462   1.629   9.195  1.1286  0.8167  0.1506
   87SAPS  H18S 8355   2.500   1.789   9.165  2.5257 -2.9275 -1.6953
   87SAPS  C219 8356   2.301   1.729   9.099 -0.6945  0.0891  1.0713
   87SAPS  H19R 8357   2.210   1.712   9.160 -0.8896 -1.5484  0.3762
   87SAPS  H19S 8358   2.317   1.640   9.034  0.6712 -0.4717  2.1131
   87SAPS  C220 8359   2.289   1.855   9.009  0.2641  0.5654  0.4116
   87SAPS  H20R 8360   2.363   1.854   8.927 -0.8920  0.7227 -0.6597
   87SAPS  H20S 8361   2.307   1.953   9.060 -1.2475  1.0459  0.0730
   87SAPS  H20T 8362   2.187   1.844   8.966 -0.1158  1.3918  1.0703
   87SAPS   C33 8363   3.356   2.524   9.945  0.0231  0.0536 -0.4777
   87SAPS   H3X 8364   3.457   2.480   9.954 -0.8832 -1.9649  0.3479
   87SAPS   H3Y 8365   3.349   2.626   9.987 -1.3383  0.5066 -1.7108
   87SAPS   C34 8366   3.323   2.527   9.791  0.5993 -0.3474 -0.6238
   87SAPS   H4X 8367   3.214   2.529   9.771  0.0492 -2.7718  1.6286
   87SAPS   H4Y 8368   3.348   2.425   9.755  1.4503  0.0814 -1.2900
   87SAPS   C35 8369   3.387   2.640   9.716 -0.1013  0.6856 -0.6481
   87SAPS   H5X 8370   3.496   2.633   9.732 -0.1887  1.9755  0.7307
   87SAPS   H5Y 8371   3.349   2.733   9.763  0.8739  0.0838  1.4702
   87SAPS   C36 8372   3.361   2.640   9.562 -0.1678 -0.2037 -0.3949
   87SAPS   H6X 8373   3.252   2.641   9.543 -0.4732 -0.3144  1.2113
   87SAPS   H6Y 8374   3.405   2.544   9.527 -0.2200 -0.6813  0.8018
   87SAPS   C37 8375   3.435   2.749   9.491  0.1603 -0.6401 -0.8320
   87SAPS   H7X 8376   3.539   2.736   9.527  0.1506 -1.9581 -1.2285
   87SAPS   H7Y 8377   3.394   2.845   9.529  2.6783  0.5727 -1.0022
   87SAPS   C38 8378   3.430   2.746   9.336 -0.8119  0.8574  0.0109
   87SAPS   H8X 8379   3.481   2.839   9.302  0.5875  0.4184  0.8585
   87SAPS   H8Y 8380   3.327   2.733   9.294 -0.2375  0.4560 -1.3344
   87SAPS   C39 8381   3.515   2.626   9.280 -0.2507 -1.0237  0.7682
   87SAPS   H9X 8382   3.470   2.527   9.303  0.7505 -2.1256 -1.7295
   87SAPS   H9Y 8383   3.607   2.628   9.341  1.1907  1.1759 -1.3106
   87SAPS  C310 8384   3.547   2.634   9.131 -0.0839  0.2881  0.8544
   87SAPS  H10X 8385   3.612   2.551   9.097  1.1479  1.6747 -0.3178
   87SAPS  H10Y 8386   3.608   2.724   9.109  0.8069 -0.5786 -0.3860
   87SAPS  C311 8387   3.421   2.640   9.043 -0.1794 -0.0123  0.0670
   87SAPS  H11X 8388   3.363   2.732   9.063  0.8256  0.9498 -1.2358
   87SAPS  H11Y 8389   3.350   2.556   9.058 -0.7346  0.3403 -0.5059
   87SAPS  C312 8390   3.449   2.657   8.888  0.2326  0.4684 -0.1350
   87SAPS  H12X 8391   3.492   2.561   8.852  0.7789  0.1720  1.2535
   87SAPS  H12Y 8392   3.525   2.736   8.870  1.2066 -0.1738  1.0438
   87SAPS  C313 8393   3.320   2.681   8.808 -0.0021 -0.4154 -0.9249
   87SAPS  H13X 8394   3.277   2.779   8.838 -2.6305 -2.2335  1.8392
   87SAPS  H13Y 8395   3.252   2.596   8.833  1.8646 -1.6682  0.1206
   87SAPS  C314 8396   3.346   2.689   8.658  0.0952 -0.1214  0.2741
   87SAPS  H14X 8397   3.257   2.672   8.594  2.3680  0.1269 -3.2233
   87SAPS  H14Y 8398   3.422   2.614   8.629  1.1490  0.9240  0.2202
   87SAPS  C315 8399   3.403   2.829   8.613  0.2931 -0.4990 -0.2351
   87SAPS  H15X 8400   3.508   2.830   8.649  0.2786 -2.5158 -0.0123
   87SAPS  H15Y 8401   3.358   2.922   8.654 -0.5936  0.2005 -2.6584
   87SAPS  C316 8402   3.395   2.843   8.455 -0.7465 -0.3079 -0.0412
   87SAPS  H16X 8403   3.449   2.757   8.410 -1.0103  0.4207 -1.8747
   87SAPS  H16Y 8404   3.446   2.937   8.425  1.5290 -1.6389 -0.5529
   87SAPS  C317 8405   3.253   2.862   8.410 -0.1942  0.4169  0.5980
   87SAPS  H17X 8406   3.208   2.921   8.493 -0.4356 -0.5445  1.1675
   87SAPS  H17Y 8407   3.204   2.763   8.403  0.4435 -0.0781  2.5218
   87SAPS  C318 8408   3.242   2.933   8.274 -0.0058  0.3444  0.8510
   87SAPS  H18X 8409   3.277   2.875   8.185 -2.0252 -0.6711  0.6719
   87SAPS  H18Y 8410   3.309   3.021   8.277  0.0595  0.3083  0.5143
   87SAPS  H18Z 8411   3.136   2.958   8.253  0.0531 -2.1081 -4.0950
   88SAPS     N 8412   5.086   0.393  10.709 -0.1228 -0.3629 -0.1270
   88SAPS   HN1 8413   5.100   0.434  10.615  0.9537  0.6629  0.4532
   88SAPS   HN2 8414   5.049   0.479  10.756  1.5990 -0.5783  1.7593
   88SAPS   HN3 8415   5.177   0.361  10.748  0.9442 -0.0609 -2.2318
   88SAPS   C12 8416   4.982   0.280  10.699 -0.5874  0.2629 -0.4607
   88SAPS  H12A 8417   5.021   0.201  10.637 -1.4318 -1.2592  0.8675
   88SAPS   C13 8418   4.964   0.206  10.829  0.2308 -0.8777 -0.6918
   88SAPS  O13A 8419   5.059   0.209  10.917 -0.1977  0.6271  0.1271
   88SAPS  O13B 8420   4.884   0.111  10.826 -0.4237 -0.1595  0.5295
   88SAPS   C11 8421   4.846   0.319  10.632 -0.6114 -0.2800 -0.1686
   88SAPS  H11A 8422   4.799   0.404  10.684  0.9086 -0.0286  0.8620
   88SAPS  H11B 8423   4.772   0.236  10.641 -1.6398  0.3874 -1.8517
   88SAPS     P 8424   4.896   0.272  10.373 -0.2826 -0.1881 -0.3081
   88SAPS   O13 8425   5.040   0.295  10.342 -0.0687  0.0952  0.0906
   88SAPS   O14 8426   4.847   0.137  10.410 -0.1580  0.6874 -0.1673
   88SAPS   O12 8427   4.861   0.362  10.495 -0.2587 -0.2216  0.3389
   88SAPS   O11 8428   4.802   0.333  10.265 -0.3728 -0.6660 -0.1932
   88SAPS    C1 8429   4.663   0.315  10.258  0.2080 -0.0037 -0.2240
   88SAPS    HA 8430   4.631   0.234  10.327 -0.2241 -0.6609 -1.1758
   88SAPS    HB 8431   4.622   0.416  10.279  0.2845 -0.2750  1.3245
   88SAPS    C2 8432   4.603   0.272  10.123 -0.0110  0.1999 -0.1664
   88SAPS    HS 8433   4.614   0.162  10.121 -0.5717  0.0559  1.9889
   88SAPS   O21 8434   4.671   0.334  10.015  0.4921 -0.1822 -0.1046
   88SAPS   C21 8435   4.650   0.464   9.982  0.4540  0.7833 -0.3112
   88SAPS   O22 8436   4.603   0.553  10.047 -0.0871  0.1056  0.7241
   88SAPS   C22 8437   4.694   0.478   9.833  0.1032 -0.9468 -0.2305
   88SAPS   H2R 8438   4.684   0.586   9.808 -0.1715 -1.2419 -1.4755
   88SAPS   H2S 8439   4.798   0.439   9.826  1.0375  0.9034  2.0568
   88SAPS    C3 8440   4.449   0.301  10.119 -0.4894 -0.4760  0.1763
   88SAPS    HX 8441   4.425   0.401  10.162 -2.0253 -0.4488 -0.6759
   88SAPS    HY 8442   4.402   0.237  10.196 -1.4751  0.8533  0.7222
   88SAPS   O31 8443   4.392   0.282   9.983 -0.5500  0.5273 -0.4548
   88SAPS   C31 8444   4.349   0.159   9.958 -0.6542 -0.4697  0.3851
   88SAPS   O32 8445   4.367   0.058  10.023  0.2987 -0.3581  0.2933
   88SAPS   C32 8446   4.260   0.158   9.839 -0.1283  0.2404 -0.6735
   88SAPS   H2X 8447   4.235   0.259   9.800 -1.2164  0.1176 -0.3426
   88SAPS   H2Y 8448   4.164   0.117   9.878  0.2016  0.7372  0.6940
   88SAPS   C23 8449   4.621   0.396   9.722  0.2347  0.4284  0.5441
   88SAPS   H3R 8450   4.634   0.291   9.755 -2.3864 -0.2884 -0.4458
   88SAPS   H3S 8451   4.672   0.398   9.624 -2.0763 -0.8223 -0.7871
   88SAPS   C24 8452   4.476   0.439   9.704  0.5407  0.0654  1.1356
   88SAPS   H4R 8453   4.427   0.438   9.804 -2.1499 -0.9184 -0.1031
   88SAPS   H4S 8454   4.421   0.360   9.648  2.0143  1.0252 -1.8807
   88SAPS   C25 8455   4.453   0.578   9.641  0.2342  0.4310 -0.8336
   88SAPS   H5R 8456   4.451   0.661   9.713 -0.7532 -0.5104  0.2775
   88SAPS   C26 8457   4.442   0.607   9.512  0.0613 -1.3537 -0.1126
   88SAPS   H6R 8458   4.419   0.711   9.485 -1.6992 -0.8978  2.7399
   88SAPS   C27 8459   4.462   0.520   9.396 -0.1776 -0.3644 -0.1748
   88SAPS   H7R 8460   4.509   0.422   9.418  0.6570 -0.2440 -1.3350
   88SAPS   H7S 8461   4.525   0.580   9.327 -0.8474 -0.1409 -0.5982
   88SAPS   C28 8462   4.325   0.497   9.339  1.0183 -0.3286 -0.7623
   88SAPS   H8R 8463   4.244   0.486   9.413 -0.0266 -0.2113 -1.8554
   88SAPS   C29 8464   4.292   0.458   9.210 -0.4605  0.0324 -0.0077
   88SAPS   H9R 8465   4.187   0.443   9.184 -0.8613  0.4042  1.3377
   88SAPS  C210 8466   4.385   0.450   9.095 -0.5191 -0.2478 -0.5311
   88SAPS  H10R 8467   4.373   0.350   9.048 -1.7706 -0.2127 -0.3172
   88SAPS  H10S 8468   4.491   0.452   9.129 -1.0228 -1.2186  1.1386
   88SAPS  C211 8469   4.367   0.561   8.999  0.9378 -0.3387  0.2488
   88SAPS  H11R 8470   4.322   0.653   9.040  1.1004 -0.7067  1.2884
   88SAPS  C212 8471   4.398   0.558   8.867 -0.2172  0.0607  0.3862
   88SAPS  H12R 8472   4.386   0.647   8.804  2.3998  0.1363 -0.1303
   88SAPS  C213 8473   4.454   0.442   8.794  0.4173 -0.1577  0.9951
   88SAPS  H13R 8474   4.470   0.351   8.856 -0.7050  0.4901  2.3049
   88SAPS  H13S 8475   4.558   0.463   8.760  0.6701 -1.1405  1.1234
   88SAPS  C214 8476   4.367   0.409   8.677  0.2643 -0.1166  0.3049
   88SAPS  H14R 8477   4.275   0.356   8.705 -0.2525  0.3154 -0.5267
   88SAPS  C215 8478   4.377   0.452   8.547 -0.0423 -0.6977  0.8135
   88SAPS  H15R 8479   4.308   0.405   8.475  0.5592  0.7534 -0.7764
   88SAPS  C216 8480   4.484   0.545   8.488 -0.5735  0.6018  0.4805
   88SAPS  H16R 8481   4.560   0.557   8.568  0.2767 -1.9383  0.1503
   88SAPS  H16S 8482   4.442   0.646   8.467 -0.0415  0.2648 -2.6694
   88SAPS  C217 8483   4.565   0.490   8.374  0.1644 -0.0353  0.6080
   88SAPS  H17R 8484   4.598   0.387   8.398 -0.2626 -0.8956 -2.1302
   88SAPS  H17S 8485   4.658   0.550   8.362 -0.5048  1.4305  2.3215
   88SAPS  C218 8486   4.483   0.475   8.244  0.0517  0.2910  0.4181
   88SAPS  H18R 8487   4.383   0.432   8.268 -0.5506 -1.2169 -3.8711
   88SAPS  H18S 8488   4.529   0.405   8.171  1.8562  1.5839  0.2715
   88SAPS  C219 8489   4.463   0.606   8.169 -0.5002  0.8049 -0.6570
   88SAPS  H19R 8490   4.401   0.676   8.229  0.9536  0.8732  0.8559
   88SAPS  H19S 8491   4.402   0.589   8.078 -1.0824 -0.2825 -0.0840
   88SAPS  C220 8492   4.595   0.669   8.126  0.4643 -0.4151  0.2934
   88SAPS  H20R 8493   4.664   0.703   8.206  0.0296  0.5528  0.2847
   88SAPS  H20S 8494   4.577   0.757   8.061  1.2272  2.2428  3.4194
   88SAPS  H20T 8495   4.660   0.600   8.070  1.0486  0.3413  0.0228
   88SAPS   C33 8496   4.313   0.059   9.732  0.2458  0.1994  0.4481
   88SAPS   H3X 8497   4.371  -0.026   9.774 -0.8277  0.2411  2.0989
   88SAPS   H3Y 8498   4.385   0.112   9.666 -0.3611 -2.9216 -3.1108
   88SAPS   C34 8499   4.202  -0.007   9.640 -0.5016  0.4316  0.5545
   88SAPS   H4X 8500   4.160  -0.093   9.697 -0.6545 -1.3354 -2.0200
   88SAPS   H4Y 8501   4.266  -0.054   9.562  0.6627  2.1070  0.4523
   88SAPS   C35 8502   4.105   0.087   9.571  0.2908 -0.0511 -0.1446
   88SAPS   H5X 8503   4.150   0.150   9.492 -1.8648  1.4672 -0.2634
   88SAPS   H5Y 8504   4.085   0.165   9.648  0.1323 -0.7938  0.5828
   88SAPS   C36 8505   3.966   0.041   9.532 -0.0413 -0.3772 -0.8971
   88SAPS   H6X 8506   3.896   0.127   9.525 -0.3979 -0.6018 -0.1776
   88SAPS   H6Y 8507   3.913  -0.006   9.617 -1.2740  1.7738 -0.3936
   88SAPS   C37 8508   3.971  -0.037   9.396 -0.3591 -0.2002 -0.8175
   88SAPS   H7X 8509   3.867  -0.071   9.377 -0.6338  1.1692 -1.9350
   88SAPS   H7Y 8510   4.036  -0.127   9.397  0.3141  0.2695  0.5303
   88SAPS   C38 8511   4.016   0.047   9.271 -0.2929  0.2959  0.0326
   88SAPS   H8X 8512   4.040  -0.026   9.191 -1.8117  2.3698 -2.4909
   88SAPS   H8Y 8513   4.113   0.098   9.292 -0.6046  0.7055  0.5277
   88SAPS   C39 8514   3.904   0.139   9.214  0.1588 -0.7652  0.0960
   88SAPS   H9X 8515   3.898   0.227   9.281 -2.5170 -0.6592 -0.1641
   88SAPS   H9Y 8516   3.798   0.106   9.210  0.0860 -0.4851 -0.3804
   88SAPS  C310 8517   3.944   0.179   9.071  0.9988  0.4870 -0.4284
   88SAPS  H10X 8518   4.037   0.239   9.067 -0.4700  2.9035 -0.1153
   88SAPS  H10Y 8519   3.861   0.249   9.052  0.0246 -0.0336  1.6410
   88SAPS  C311 8520   3.928   0.068   8.963 -0.2333 -0.3550 -0.9463
   88SAPS  H11X 8521   3.826   0.026   8.978 -0.3977  0.5408  0.5924
   88SAPS  H11Y 8522   4.004  -0.011   8.981  0.8548  1.2649  2.4353
   88SAPS  C312 8523   3.938   0.101   8.818  0.0247 -0.2367  0.0385
   88SAPS  H12X 8524   4.038   0.145   8.800 -1.4027  2.9120 -0.8937
   88SAPS  H12Y 8525   3.867   0.185   8.803  0.7458  0.2269 -0.8766
   88SAPS  C313 8526   3.922  -0.004   8.720  1.0255  0.6950 -0.2537
   88SAPS  H13X 8527   3.814  -0.030   8.722  1.2308 -0.1537  0.3218
   88SAPS  H13Y 8528   3.985  -0.085   8.762  0.1992  1.1883  2.1064
   88SAPS  C314 8529   3.954   0.020   8.573 -0.0599  0.7032  0.7270
   88SAPS  H14X 8530   3.884   0.098   8.537 -0.8343  0.4042  1.5330
   88SAPS  H14Y 8531   3.931  -0.069   8.511  0.5370 -0.5062  2.1711
   88SAPS  C315 8532   4.103   0.064   8.549  0.4403 -0.0361 -0.3920
   88SAPS  H15X 8533   4.169   0.013   8.622  1.8721  1.6353 -0.4511
   88SAPS  H15Y 8534   4.109   0.173   8.570  3.3759 -0.2533  0.3041
   88SAPS  C316 8535   4.148   0.040   8.404  0.4525 -0.1564 -0.2209
   88SAPS  H16X 8536   4.098  -0.048   8.360 -0.5193  0.1361  0.2737
   88SAPS  H16Y 8537   4.258   0.024   8.406  0.3738 -1.1714 -1.9637
   88SAPS  C317 8538   4.105   0.164   8.310  0.1925  0.8585  0.0798
   88SAPS  H17X 8539   4.171   0.246   8.346  0.0718  0.7894  0.4615
   88SAPS  H17Y 8540   3.997   0.187   8.322 -0.8248 -3.6945  1.8289
   88SAPS  C318 8541   4.113   0.147   8.156  0.4561  0.1305 -0.0494
   88SAPS  H18X 8542   4.216   0.123   8.125  0.5479  0.6994 -0.1940
   88SAPS  H18Y 8543   4.090   0.242   8.104 -0.1049  0.7486  1.2610
   88SAPS  H18Z 8544   4.045   0.065   8.123 -1.1689  1.7181 -0.8365
   89SAPS     N 8545   4.492   3.071  10.791  0.1223 -0.4401 -0.0141
   89SAPS   HN1 8546   4.589   3.034  10.798  1.3291  2.3347 -0.8849
   89SAPS   HN2 8547   4.425   3.004  10.748 -0.2550 -0.1173  0.0632
   89SAPS   HN3 8548   4.504   3.156  10.733 -0.0562 -0.2949  0.1590
   89SAPS   C12 8549   4.432   3.121  10.917 -0.6137  0.1437  0.4872
   89SAPS  H12A 8550   4.456   3.055  10.999 -0.6042 -0.0124  0.3592
   89SAPS   C13 8551   4.495   3.250  10.973  0.2895 -0.2036 -0.2730
   89SAPS  O13A 8552   4.549   3.327  10.887 -0.4786  0.3376  0.0934
   89SAPS  O13B 8553   4.446   3.293  11.079  0.0545  0.6526 -0.5982
   89SAPS   C11 8554   4.280   3.143  10.909 -0.5169  0.3039  0.0483
   89SAPS  H11A 8555   4.273   3.209  10.820  3.1923 -1.3810 -1.7025
   89SAPS  H11B 8556   4.245   3.182  11.007 -1.0527  0.0396 -0.0314
   89SAPS     P 8557   4.073   2.981  10.873 -0.1592 -0.0669  0.2302
   89SAPS   O13 8558   4.068   2.843  10.924 -0.7153 -0.3713 -0.2849
   89SAPS   O14 8559   3.987   3.082  10.940 -0.5190 -0.5242 -0.1009
   89SAPS   O12 8560   4.218   3.019  10.880  0.2699  0.0158 -0.0517
   89SAPS   O11 8561   4.025   2.964  10.726 -0.2730 -0.4381 -0.0151
   89SAPS    C1 8562   4.033   3.057  10.619 -0.1745  0.2065  0.5075
   89SAPS    HA 8563   4.089   3.146  10.654  0.9009 -0.3952  0.3649
   89SAPS    HB 8564   4.103   3.018  10.541  1.7225 -0.1478  2.3052
   89SAPS    C2 8565   3.893   3.094  10.562  0.2655 -0.4592 -0.2544
   89SAPS    HS 8566   3.838   3.119  10.655 -1.4621  1.2013 -1.6498
   89SAPS   O21 8567   3.839   2.985  10.487 -0.5334 -0.2890  0.2041
   89SAPS   C21 8568   3.708   2.999  10.452  0.7180  0.0077  0.0625
   89SAPS   O22 8569   3.631   3.079  10.504 -0.6044 -0.2694  0.1322
   89SAPS   C22 8570   3.683   2.896  10.344 -0.2696  0.5884 -0.0529
   89SAPS   H2R 8571   3.772   2.879  10.279 -0.8645 -0.1729 -0.6867
   89SAPS   H2S 8572   3.659   2.798  10.391 -0.4206  0.0340 -1.2681
   89SAPS    C3 8573   3.909   3.220  10.469 -0.3851 -0.1738  0.7669
   89SAPS    HX 8574   3.967   3.293  10.531  0.8508 -1.5199  1.2497
   89SAPS    HY 8575   3.813   3.268  10.441 -0.2046  0.3025  0.9514
   89SAPS   O31 8576   3.987   3.177  10.353  0.4654  0.1159 -0.0662
   89SAPS   C31 8577   4.046   3.277  10.284  0.5504  0.5215  0.1681
   89SAPS   O32 8578   4.045   3.397  10.315  0.2626  0.1400  0.1108
   89SAPS   C32 8579   4.118   3.221  10.171 -0.2582  0.4802 -0.0589
   89SAPS   H2X 8580   4.079   3.118  10.155  2.5192 -1.0924  2.3160
   89SAPS   H2Y 8581   4.226   3.204  10.192  0.3412  2.4733 -1.1937
   89SAPS   C23 8582   3.557   2.927  10.269 -0.7090  0.0672  0.1803
   89SAPS   H3R 8583   3.550   3.037  10.255  1.4356  0.1033 -1.0387
   89SAPS   H3S 8584   3.473   2.899  10.337  0.2747 -0.6706  1.1214
   89SAPS   C24 8585   3.542   2.846  10.137 -0.4152 -0.3188 -0.2337
   89SAPS   H4R 8586   3.478   2.758  10.158  0.6970 -1.6101 -2.0256
   89SAPS   H4S 8587   3.645   2.818  10.105  0.7679  0.2966  2.7024
   89SAPS   C25 8588   3.461   2.920  10.035 -0.3006  0.0553 -0.3839
   89SAPS   H5R 8589   3.360   2.934  10.077  1.2248  4.6167  2.4950
   89SAPS   C26 8590   3.493   2.962   9.913  0.1351 -0.9986 -0.0898
   89SAPS   H6R 8591   3.419   3.012   9.849  1.1312  0.0520 -0.4589
   89SAPS   C27 8592   3.632   2.946   9.850  1.7880 -0.4755 -0.7650
   89SAPS   H7R 8593   3.612   2.916   9.745 -0.0737  1.6956 -1.1230
   89SAPS   H7S 8594   3.689   2.863   9.895  2.0465  0.1546  0.1120
   89SAPS   C28 8595   3.731   3.059   9.859  0.6079  0.7553 -0.6410
   89SAPS   H8R 8596   3.809   3.050   9.936  0.3788 -1.2494 -0.6063
   89SAPS   C29 8597   3.737   3.167   9.782 -0.7046  0.2294  0.1682
   89SAPS   H9R 8598   3.807   3.247   9.808  1.3380 -1.4130  0.0115
   89SAPS  C210 8599   3.650   3.188   9.660  0.1426 -0.0014  0.2372
   89SAPS  H10R 8600   3.556   3.236   9.696  0.4967  1.1581 -0.3313
   89SAPS  H10S 8601   3.619   3.090   9.617 -0.5788 -0.9406  2.7241
   89SAPS  C211 8602   3.727   3.267   9.559 -0.3429 -0.1703  0.1271
   89SAPS  H11R 8603   3.794   3.344   9.600 -1.4314  0.0300  1.5975
   89SAPS  C212 8604   3.724   3.252   9.419 -0.0937 -0.0225 -1.3946
   89SAPS  H12R 8605   3.792   3.315   9.361  0.4963 -0.1581 -0.8591
   89SAPS  C213 8606   3.643   3.159   9.334  0.1234  0.9590  0.4741
   89SAPS  H13R 8607   3.590   3.224   9.262  1.8103  2.2658  0.3299
   89SAPS  H13S 8608   3.559   3.106   9.384 -0.8358 -1.4079 -3.2503
   89SAPS  C214 8609   3.723   3.043   9.270  0.1971 -0.0719 -0.2627
   89SAPS  H14R 8610   3.782   2.980   9.338  2.4604  1.3355 -0.8200
   89SAPS  C215 8611   3.715   3.015   9.140  0.7758  0.1358  0.4416
   89SAPS  H15R 8612   3.778   2.928   9.117  2.8303  1.6277  0.1264
   89SAPS  C216 8613   3.646   3.099   9.027  0.2022 -0.2345  0.1553
   89SAPS  H16R 8614   3.580   3.183   9.061  0.4842 -0.8606  2.4226
   89SAPS  H16S 8615   3.572   3.046   8.964 -0.2082  0.1601  0.2952
   89SAPS  C217 8616   3.753   3.150   8.933  0.6108  0.2884  0.4598
   89SAPS  H17R 8617   3.834   3.215   8.973  2.0324  0.7398 -2.8204
   89SAPS  H17S 8618   3.692   3.212   8.865 -4.7008 -3.6890  0.9385
   89SAPS  C218 8619   3.830   3.041   8.862 -0.7738  0.9313  0.0855
   89SAPS  H18R 8620   3.764   2.957   8.828 -1.0484  1.1929 -0.0379
   89SAPS  H18S 8621   3.905   2.995   8.930  0.4046 -0.3923 -1.9995
   89SAPS  C219 8622   3.899   3.104   8.742 -0.1656  0.1138 -0.3181
   89SAPS  H19R 8623   3.985   3.151   8.795 -1.3714 -0.1240  1.9952
   89SAPS  H19S 8624   3.838   3.180   8.688  0.9782  0.9109 -0.5229
   89SAPS  C220 8625   3.955   3.003   8.640 -0.6417 -0.6275  0.2738
   89SAPS  H20R 8626   3.877   2.936   8.599 -0.3248 -1.0007  0.2722
   89SAPS  H20S 8627   4.035   2.939   8.683 -0.2434  0.8195  1.7683
   89SAPS  H20T 8628   3.990   3.057   8.549  1.9428 -0.7694  1.0951
   89SAPS   C33 8629   4.115   3.315  10.038  0.6223 -0.7834 -0.0469
   89SAPS   H3X 8630   4.186   3.401  10.040 -0.8683  0.4839  1.5283
   89SAPS   H3Y 8631   4.014   3.360  10.029  1.3675  1.0717  0.2004
   89SAPS   C34 8632   4.151   3.225   9.914 -0.2622 -0.7498  1.3239
   89SAPS   H4X 8633   4.073   3.147   9.901 -0.8162 -0.2141  1.3863
   89SAPS   H4Y 8634   4.236   3.159   9.941 -0.1531 -1.5645 -0.8356
   89SAPS   C35 8635   4.191   3.304   9.784 -0.1973  0.2888  0.4691
   89SAPS   H5X 8636   4.299   3.326   9.798 -0.0664 -0.2592  0.3312
   89SAPS   H5Y 8637   4.140   3.402   9.791  1.5869  1.4917 -1.8431
   89SAPS   C36 8638   4.156   3.232   9.652  0.0835  0.8860  0.1102
   89SAPS   H6X 8639   4.047   3.214   9.648 -0.0981  2.1143 -0.9418
   89SAPS   H6Y 8640   4.208   3.134   9.653 -0.0320  0.8282  0.3405
   89SAPS   C37 8641   4.191   3.308   9.522  0.0788  0.1988 -0.0467
   89SAPS   H7X 8642   4.298   3.338   9.528 -0.6827  3.0016  1.1847
   89SAPS   H7Y 8643   4.131   3.402   9.519  1.8916  1.3717 -1.5414
   89SAPS   C38 8644   4.161   3.221   9.398 -0.0282 -0.6225  0.0945
   89SAPS   H8X 8645   4.050   3.225   9.391 -0.0760  0.0920  1.0306
   89SAPS   H8Y 8646   4.195   3.117   9.416  0.6224 -0.9463 -2.5536
   89SAPS   C39 8647   4.232   3.288   9.285 -0.0400  0.2171 -0.2024
   89SAPS   H9X 8648   4.232   3.399   9.293 -0.3129  0.1885  0.2229
   89SAPS   H9Y 8649   4.195   3.252   9.187  0.3089 -1.5369  0.2709
   89SAPS  C310 8650   4.385   3.250   9.279  0.0484  0.0811 -0.5076
   89SAPS  H10X 8651   4.393   3.147   9.237  1.5404 -1.0098  2.2075
   89SAPS  H10Y 8652   4.425   3.242   9.383  1.3267  3.3393 -0.6291
   89SAPS  C311 8653   4.462   3.358   9.205 -0.4844 -0.3718 -0.0790
   89SAPS  H11X 8654   4.456   3.461   9.246  0.3217 -0.4285  0.2074
   89SAPS  H11Y 8655   4.413   3.358   9.105 -2.2055  1.0059  0.7186
   89SAPS  C312 8656   4.609   3.319   9.171 -0.2058  0.6672 -0.0369
   89SAPS  H12X 8657   4.613   3.214   9.135  0.0974  0.6466  0.0524
   89SAPS  H12Y 8658   4.681   3.325   9.256  1.6695  0.7586 -1.5620
   89SAPS  C313 8659   4.663   3.392   9.048  0.6119  0.0083 -0.2412
   89SAPS  H13X 8660   4.624   3.496   9.057 -3.3786 -1.3383 -0.3553
   89SAPS  H13Y 8661   4.609   3.352   8.960 -0.9912 -0.7883  1.0670
   89SAPS  C314 8662   4.810   3.396   9.033  0.0447 -0.2451 -0.5024
   89SAPS  H14X 8663   4.843   3.294   9.003 -2.8317 -1.1697 -0.8336
   89SAPS  H14Y 8664   4.856   3.424   9.130  0.5210 -1.1707 -0.4555
   89SAPS  C315 8665   4.853   3.484   8.916  0.1226  0.1346 -0.6923
   89SAPS  H15X 8666   4.792   3.468   8.824 -1.5259 -1.4141  0.5906
   89SAPS  H15Y 8667   4.956   3.450   8.891  0.4767 -1.0721  1.9985
   89SAPS  C316 8668   4.848   3.637   8.936 -0.5366  0.1551 -0.0720
   89SAPS  H16X 8669   4.768   3.660   9.009  0.1229 -2.7087  1.7374
   89SAPS  H16Y 8670   4.827   3.679   8.835  1.9676 -0.1052 -0.7640
   89SAPS  C317 8671   4.987   3.683   8.976 -0.1043 -0.1797  0.5648
   89SAPS  H17X 8672   5.067   3.658   8.903  0.0430 -1.4854  1.1357
   89SAPS  H17Y 8673   5.032   3.613   9.051 -0.8224  1.4092  2.5810
   89SAPS  C318 8674   5.004   3.824   9.029 -0.5219  0.3389  0.2046
   89SAPS  H18X 8675   4.955   3.827   9.129  0.1897  0.1556  0.5605
   89SAPS  H18Y 8676   4.958   3.900   8.961 -1.2781 -0.0198  0.2981
   89SAPS  H18Z 8677   5.113   3.842   9.038  0.1508 -2.6360 -0.8955
   90SAPS     N 8678   5.283   4.277  10.795  0.3900 -0.2078  0.5388
   90SAPS   HN1 8679   5.225   4.247  10.715  3.0405 -1.4199 -1.0645
   90SAPS   HN2 8680   5.256   4.372  10.829 -0.7915  0.2582 -1.4996
   90SAPS   HN3 8681   5.373   4.287  10.742  0.3000 -2.7863 -0.2356
   90SAPS   C12 8682   5.283   4.160  10.883 -0.2633 -0.0471  0.4976
   90SAPS  H12A 8683   5.375   4.168  10.940 -0.3001 -0.2309  0.5816
   90SAPS   C13 8684   5.164   4.164  10.976 -0.0917 -0.2431  0.5755
   90SAPS  O13A 8685   5.070   4.250  10.959  0.1645  0.4373  0.6231
   90SAPS  O13B 8686   5.146   4.067  11.052 -0.0863  0.5866  0.1382
   90SAPS   C11 8687   5.294   4.028  10.806 -0.0450 -0.2819  0.2331
   90SAPS  H11A 8688   5.208   4.016  10.737  0.2418  2.2785 -0.6788
   90SAPS  H11B 8689   5.298   3.953  10.888 -1.8654  0.7990  1.3943
   90SAPS     P 8690   5.441   3.915  10.629  0.1400 -0.1153 -0.2111
   90SAPS   O13 8691   5.537   3.822  10.699 -0.0804  0.0472  0.0361
   90SAPS   O14 8692   5.314   3.859  10.575 -0.1586  0.0613  0.2752
   90SAPS   O12 8693   5.420   4.037  10.735  0.8835  0.0798  0.2298
   90SAPS   O11 8694   5.521   3.988  10.507  0.1705  0.2527  0.0965
   90SAPS    C1 8695   5.474   4.118  10.461 -0.9441  0.2781 -0.4825
   90SAPS    HA 8696   5.377   4.139  10.511 -0.4988  2.7050 -0.5347
   90SAPS    HB 8697   5.544   4.196  10.497 -0.9534  0.3950 -0.7175
   90SAPS    C2 8698   5.460   4.129  10.305  0.9475  0.6813  0.4720
   90SAPS    HS 8699   5.386   4.053  10.273  1.9515 -0.1208  0.0190
   90SAPS   O21 8700   5.585   4.094  10.243 -0.1758  0.2002 -0.0521
   90SAPS   C21 8701   5.601   3.962  10.229 -0.1995  0.0814  0.3705
   90SAPS   O22 8702   5.519   3.876  10.209  0.1961 -0.0633  0.0513
   90SAPS   C22 8703   5.758   3.930  10.248 -0.5574  0.1416  0.7718
   90SAPS   H2R 8704   5.786   3.992  10.336  0.8968 -0.8600  1.0406
   90SAPS   H2S 8705   5.767   3.823  10.277 -1.7836 -0.4352 -0.8621
   90SAPS    C3 8706   5.409   4.265  10.251  0.0193 -0.9384  0.0441
   90SAPS    HX 8707   5.498   4.330  10.267 -0.9574  0.5743 -0.4252
   90SAPS    HY 8708   5.324   4.299  10.314  1.1104  2.9956 -0.3181
   90SAPS   O31 8709   5.360   4.248  10.115  0.0708 -0.2361 -0.4564
   90SAPS   C31 8710   5.325   4.361  10.059 -0.3116 -0.0975 -0.0620
   90SAPS   O32 8711   5.347   4.474  10.100 -0.0483  0.4621  0.3977
   90SAPS   C32 8712   5.219   4.333   9.951 -0.5272  0.3377  0.1874
   90SAPS   H2X 8713   5.205   4.431   9.900  0.5928  0.4065 -0.0288
   90SAPS   H2Y 8714   5.138   4.311  10.023  0.8886 -2.3278  1.1062
   90SAPS   C23 8715   5.838   3.957  10.128  0.4313  0.1233 -0.2480
   90SAPS   H3R 8716   5.928   3.893  10.121 -0.5968 -1.2213 -1.7665
   90SAPS   H3S 8717   5.861   4.066  10.124 -0.8663  0.3903 -1.0812
   90SAPS   C24 8718   5.783   3.911   9.989 -0.0603 -0.6908 -0.6274
   90SAPS   H4R 8719   5.731   3.817  10.018 -0.9730  0.5219  2.0626
   90SAPS   H4S 8720   5.866   3.889   9.919 -0.6053 -1.8094 -0.9403
   90SAPS   C25 8721   5.689   4.013   9.929 -0.4022 -1.0477  0.2902
   90SAPS   H5R 8722   5.582   4.008   9.955  0.1910  1.1323  3.7117
   90SAPS   C26 8723   5.726   4.103   9.832  0.4291  0.4968  0.0693
   90SAPS   H6R 8724   5.648   4.174   9.799  2.7613  2.1115 -2.3832
   90SAPS   C27 8725   5.853   4.128   9.772 -0.5767 -0.1905  0.9867
   90SAPS   H7R 8726   5.902   4.030   9.754  0.4896  0.5091 -0.0848
   90SAPS   H7S 8727   5.904   4.195   9.845 -3.0115  2.7519  0.2314
   90SAPS   C28 8728   5.853   4.194   9.636  0.5713  0.1619  0.3088
   90SAPS   H8R 8729   5.892   4.297   9.638 -0.8257  0.7898 -1.7084
   90SAPS   C29 8730   5.802   4.141   9.525  0.2205  0.4619  0.2416
   90SAPS   H9R 8731   5.774   4.211   9.445 -0.2701 -0.8493 -0.7646
   90SAPS  C210 8732   5.739   4.006   9.506 -0.1834  0.5783  0.5601
   90SAPS  H10R 8733   5.658   4.012   9.430  3.2038  2.8256 -3.2589
   90SAPS  H10S 8734   5.707   3.958   9.600  1.9322 -1.0532  0.5109
   90SAPS  C211 8735   5.848   3.911   9.450  0.4947 -0.4463  0.2441
   90SAPS  H11R 8736   5.940   3.905   9.509  0.2707 -0.4427  0.6029
   90SAPS  C212 8737   5.841   3.836   9.338  0.6205 -0.7811  0.1812
   90SAPS  H12R 8738   5.928   3.775   9.310  2.8018  1.6776  1.1158
   90SAPS  C213 8739   5.724   3.830   9.236 -0.0078  0.3606 -0.6871
   90SAPS  H13R 8740   5.685   3.931   9.211 -0.5671 -0.1285 -1.8610
   90SAPS  H13S 8741   5.637   3.776   9.279 -0.2557  0.9632 -0.4173
   90SAPS  C214 8742   5.761   3.769   9.108  0.3990 -0.4558  0.5456
   90SAPS  H14R 8743   5.734   3.664   9.089  1.2079 -0.3611 -1.3504
   90SAPS  C215 8744   5.787   3.835   8.991 -1.1919 -0.2006 -0.1334
   90SAPS  H15R 8745   5.805   3.765   8.908 -0.3174 -1.8782  1.3912
   90SAPS  C216 8746   5.799   3.988   8.965  0.0536  0.5855  0.3277
   90SAPS  H16R 8747   5.722   4.036   9.031 -0.5350 -1.0678  0.8914
   90SAPS  H16S 8748   5.771   4.009   8.859 -0.5977  1.4159  0.6457
   90SAPS  C217 8749   5.932   4.050   9.002 -0.2444  0.2111 -0.2935
   90SAPS  H17R 8750   5.968   3.997   9.093 -0.5137  1.5733  0.6457
   90SAPS  H17S 8751   5.930   4.160   9.017 -0.5754  0.3455 -1.2832
   90SAPS  C218 8752   6.037   4.030   8.890  0.0470 -0.0376 -0.0779
   90SAPS  H18R 8753   5.994   4.076   8.798 -0.4101 -3.1646 -1.5744
   90SAPS  H18S 8754   6.058   3.922   8.872 -0.0236  0.2756 -2.4139
   90SAPS  C219 8755   6.169   4.105   8.910 -0.1714 -0.4829  0.4907
   90SAPS  H19R 8756   6.159   4.215   8.895 -1.1703 -0.6336 -0.0550
   90SAPS  H19S 8757   6.238   4.073   8.829 -2.2189 -1.3368 -1.0167
   90SAPS  C220 8758   6.238   4.081   9.049  0.5232 -0.0201 -0.7617
   90SAPS  H20R 8759   6.253   3.971   9.050 -0.7627 -0.2124 -0.1519
   90SAPS  H20S 8760   6.182   4.124   9.134  1.9917  0.0062  0.2214
   90SAPS  H20T 8761   6.342   4.116   9.059  0.2855  0.5394 -0.1850
   90SAPS   C33 8762   5.271   4.228   9.848  0.1954  0.2396 -0.2730
   90SAPS   H3X 8763   5.192   4.149   9.844  0.5338 -0.0884 -0.5598
   90SAPS   H3Y 8764   5.358   4.174   9.889 -0.3198 -1.6291 -1.5102
   90SAPS   C34 8765   5.303   4.281   9.709  0.1263 -0.2614 -0.1079
   90SAPS   H4X 8766   5.390   4.350   9.703  0.4952 -0.6812  0.3537
   90SAPS   H4Y 8767   5.209   4.323   9.666 -0.6661  1.0401  2.7014
   90SAPS   C35 8768   5.342   4.161   9.612 -0.3391  0.7829 -0.0973
   90SAPS   H5X 8769   5.257   4.090   9.611 -0.3199  0.7614 -0.7625
   90SAPS   H5Y 8770   5.429   4.117   9.666 -1.4603  0.2901  1.3408
   90SAPS   C36 8771   5.362   4.205   9.464  0.7568  0.3041  0.2219
   90SAPS   H6X 8772   5.455   4.261   9.437  0.3009  0.3328 -1.3926
   90SAPS   H6Y 8773   5.278   4.269   9.431  1.1250  1.4588  1.4161
   90SAPS   C37 8774   5.361   4.076   9.374 -0.1740 -0.6670 -0.4785
   90SAPS   H7X 8775   5.263   4.028   9.396  0.9769 -2.0735  2.0369
   90SAPS   H7Y 8776   5.450   4.012   9.391  1.1535  1.4526  1.0412
   90SAPS   C38 8777   5.367   4.115   9.227 -0.4234 -0.2560 -0.6255
   90SAPS   H8X 8778   5.455   4.179   9.203 -0.5929  0.3934  0.4294
   90SAPS   H8Y 8779   5.278   4.179   9.210 -0.0310  1.3473  2.5681
   90SAPS   C39 8780   5.383   3.995   9.134  0.2475  0.9605 -0.2688
   90SAPS   H9X 8781   5.293   3.929   9.130  0.3087  0.9015 -0.6886
   90SAPS   H9Y 8782   5.470   3.934   9.165 -1.0445 -0.6705  0.3421
   90SAPS  C310 8783   5.392   4.027   8.980 -0.6998 -0.6177 -0.1322
   90SAPS  H10X 8784   5.460   4.111   8.954  0.4237 -1.4025  0.1934
   90SAPS  H10Y 8785   5.292   4.069   8.958 -0.9802  0.7410  3.0637
   90SAPS  C311 8786   5.411   3.904   8.893  0.2913 -0.3404  0.4725
   90SAPS  H11X 8787   5.324   3.835   8.904  0.3005 -0.6226 -0.9695
   90SAPS  H11Y 8788   5.497   3.837   8.916 -0.3527 -0.4097  2.8756
   90SAPS  C312 8789   5.406   3.940   8.741  0.8989  0.0949 -0.2955
   90SAPS  H12X 8790   5.503   3.984   8.708  0.8417  0.0370 -0.5378
   90SAPS  H12Y 8791   5.325   4.012   8.721 -1.0079 -1.2645  1.9959
   90SAPS  C313 8792   5.390   3.826   8.647 -0.0285  0.0109 -0.3026
   90SAPS  H13X 8793   5.410   3.848   8.540 -0.3268  0.4254 -0.2731
   90SAPS  H13Y 8794   5.286   3.786   8.647 -1.5405  3.6340 -0.6165
   90SAPS  C314 8795   5.488   3.707   8.674  0.8529 -0.4971 -0.2312
   90SAPS  H14X 8796   5.456   3.628   8.603 -0.9302 -0.9885  1.0509
   90SAPS  H14Y 8797   5.464   3.674   8.777 -0.4443  1.9612  0.3467
   90SAPS  C315 8798   5.642   3.729   8.661  0.7619  0.8842  0.0867
   90SAPS  H15X 8799   5.694   3.635   8.690  2.7870  2.0472  0.4072
   90SAPS  H15Y 8800   5.670   3.808   8.734 -0.6750  1.8727 -0.3714
   90SAPS  C316 8801   5.688   3.774   8.524 -0.0210 -0.1106  0.0812
   90SAPS  H16X 8802   5.648   3.873   8.494  3.7760  0.7589 -2.9420
   90SAPS  H16Y 8803   5.638   3.708   8.450 -4.1823  0.9635  1.6886
   90SAPS  C317 8804   5.844   3.779   8.492 -0.2390 -0.4315 -0.1326
   90SAPS  H17X 8805   5.848   3.819   8.388 -0.0663 -0.3245 -0.0863
   90SAPS  H17Y 8806   5.888   3.677   8.497 -0.1290 -0.4241 -0.8515
   90SAPS  C318 8807   5.923   3.867   8.591 -0.2971 -0.5852 -0.5923
   90SAPS  H18X 8808   5.947   3.816   8.687  0.3186 -0.4175 -0.6514
   90SAPS  H18Y 8809   5.864   3.961   8.603 -0.8461 -1.0723  0.6242
   90SAPS  H18Z 8810   6.017   3.894   8.538 -1.3351 -0.2904 -2.3506
   91SAPS     N 8811   5.937   1.381   5.946  0.2171 -0.5600  0.5791
   91SAPS   HN1 8812   5.883   1.425   6.023 -1.1527  0.2569 -0.7758
   91SAPS   HN2 8813   5.872   1.305   5.916 -2.7488  0.4738  3.7554
   91SAPS   HN3 8814   6.027   1.344   5.981  0.7137 -0.6157 -0.6976
   91SAPS   C12 8815   5.968   1.490   5.846 -0.7739  0.3354 -0.4118
   91SAPS  H12A 8816   6.019   1.567   5.901 -0.2371  0.4890 -1.1088
   91SAPS   C13 8817   6.067   1.439   5.734  0.0215  0.1013 -0.1726
   91SAPS  O13A 8818   6.110   1.321   5.736  0.3404 -0.3911  0.0254
   91SAPS  O13B 8819   6.073   1.503   5.630 -0.2255 -0.1124  0.2486
   91SAPS   C11 8820   5.840   1.537   5.777  0.0863  0.0086  0.0728
   91SAPS  H11A 8821   5.785   1.456   5.724 -1.6512  1.1905 -0.0053
   91SAPS  H11B 8822   5.862   1.608   5.695 -0.7307 -1.4673 -1.5118
   91SAPS     P 8823   5.610   1.636   5.838 -0.1752  0.2501  0.2384
   91SAPS   O13 8824   5.620   1.755   5.758 -0.3711 -0.4629 -0.7090
   91SAPS   O14 8825   5.543   1.519   5.777  0.0480 -0.1469 -1.0963
   91SAPS   O12 8826   5.765   1.588   5.885  0.4161 -0.0190 -0.6585
   91SAPS   O11 8827   5.543   1.670   5.973 -0.0852 -0.3176 -0.5163
   91SAPS    C1 8828   5.617   1.725   6.085 -0.4782  0.1005  0.1996
   91SAPS    HA 8829   5.679   1.647   6.135  0.2560 -1.7619 -3.2939
   91SAPS    HB 8830   5.674   1.813   6.048 -0.5465  0.1977  0.3250
   91SAPS    C2 8831   5.528   1.790   6.193  0.4824  0.3002  0.0517
   91SAPS    HS 8832   5.588   1.867   6.246  1.1729 -0.2859  0.1328
   91SAPS   O21 8833   5.484   1.691   6.291  0.3896  0.6073 -0.1896
   91SAPS   C21 8834   5.573   1.651   6.382 -0.4504 -0.1349  0.3854
   91SAPS   O22 8835   5.687   1.688   6.397 -0.7229  0.2464 -0.1842
   91SAPS   C22 8836   5.504   1.563   6.482  0.5772  0.2372 -0.2545
   91SAPS   H2R 8837   5.522   1.459   6.444  0.3253 -0.8234  2.3435
   91SAPS   H2S 8838   5.555   1.576   6.579  0.9990  0.5525 -0.5162
   91SAPS    C3 8839   5.414   1.872   6.132 -0.1524  0.5384 -0.0471
   91SAPS    HX 8840   5.360   1.839   6.040 -1.0441 -0.1566  0.7128
   91SAPS    HY 8841   5.466   1.966   6.103 -0.8051  0.3453 -1.9870
   91SAPS   O31 8842   5.317   1.896   6.235  0.3452 -0.3253 -0.1322
   91SAPS   C31 8843   5.212   1.817   6.243  0.4194  0.4282 -0.2575
   91SAPS   O32 8844   5.196   1.719   6.175  0.1548  0.0701 -0.3659
   91SAPS   C32 8845   5.129   1.856   6.367  0.2565  0.0445  0.1352
   91SAPS   H2X 8846   5.193   1.833   6.455 -0.2730 -1.3428  0.1843
   91SAPS   H2Y 8847   5.031   1.804   6.366  0.8999 -1.2167 -0.5236
   91SAPS   C23 8848   5.352   1.599   6.504 -0.6686 -0.0755 -0.8238
   91SAPS   H3R 8849   5.301   1.599   6.405  1.0364  0.3087 -1.7298
   91SAPS   H3S 8850   5.344   1.702   6.546 -0.1510  0.4787 -2.0492
   91SAPS   C24 8851   5.285   1.510   6.608  0.1409  0.1059 -0.9466
   91SAPS   H4R 8852   5.354   1.499   6.695  2.0417 -1.7303 -2.5773
   91SAPS   H4S 8853   5.293   1.409   6.563  1.1571 -1.0422  1.6098
   91SAPS   C25 8854   5.144   1.550   6.641 -0.2365 -0.5460 -0.7413
   91SAPS   H5R 8855   5.099   1.630   6.580 -1.2302  0.4819  1.2079
   91SAPS   C26 8856   5.074   1.500   6.739  0.5362  0.3857  0.3763
   91SAPS   H6R 8857   4.970   1.536   6.749  1.1773  3.0688 -1.6146
   91SAPS   C27 8858   5.108   1.390   6.838  0.3996  0.3267  0.0853
   91SAPS   H7R 8859   5.183   1.328   6.784  0.4869  1.5340 -1.2433
   91SAPS   H7S 8860   5.016   1.333   6.862 -0.8166  1.7079 -1.1154
   91SAPS   C28 8861   5.167   1.442   6.962 -1.1350  0.1435  0.6874
   91SAPS   H8R 8862   5.224   1.536   6.965  0.1018 -0.5412 -0.3861
   91SAPS   C29 8863   5.168   1.369   7.072  0.6020  0.5593  0.3269
   91SAPS   H9R 8864   5.211   1.422   7.157  0.3475  1.0348  0.1623
   91SAPS  C210 8865   5.105   1.227   7.080 -0.0310  0.3680 -0.3816
   91SAPS  H10R 8866   5.186   1.151   7.088  0.0443  0.5600  0.8372
   91SAPS  H10S 8867   5.035   1.195   7.000 -1.2213 -1.1635  1.1638
   91SAPS  C211 8868   5.015   1.228   7.200  0.0421  0.2794 -0.0953
   91SAPS  H11R 8869   4.908   1.249   7.186 -0.0782  0.2478  0.7068
   91SAPS  C212 8870   5.051   1.204   7.330 -0.1306 -0.3812 -0.3048
   91SAPS  H12R 8871   4.974   1.228   7.405  0.0491  1.1102 -0.5677
   91SAPS  C213 8872   5.181   1.151   7.381 -0.1874  0.2364  0.1279
   91SAPS  H13R 8873   5.239   1.219   7.447  1.9505 -0.9656 -0.3952
   91SAPS  H13S 8874   5.247   1.129   7.294  0.7694  0.7013  0.7116
   91SAPS  C214 8875   5.172   1.024   7.458  0.5885  0.6875 -0.2399
   91SAPS  H14R 8876   5.179   0.929   7.403 -1.4781 -0.0478  0.6744
   91SAPS  C215 8877   5.147   1.018   7.590  0.1511  0.6744  0.3166
   91SAPS  H15R 8878   5.142   0.919   7.638 -0.9889 -0.3363 -1.7520
   91SAPS  C216 8879   5.136   1.135   7.681  0.4528 -0.3727 -0.4529
   91SAPS  H16R 8880   5.038   1.189   7.673  0.2799 -0.5432  0.4105
   91SAPS  H16S 8881   5.223   1.204   7.674  0.7389 -0.7417 -0.4902
   91SAPS  C217 8882   5.167   1.108   7.834  0.3403  0.4091  0.6264
   91SAPS  H17R 8883   5.266   1.057   7.838  1.5748  2.3314 -2.0950
   91SAPS  H17S 8884   5.081   1.051   7.875 -0.3422  1.6854  0.9917
   91SAPS  C218 8885   5.197   1.237   7.909  0.3162 -0.3162 -0.3185
   91SAPS  H18R 8886   5.095   1.276   7.930  0.6384  1.0109 -1.0634
   91SAPS  H18S 8887   5.265   1.305   7.852 -1.0854  1.6230  0.2059
   91SAPS  C219 8888   5.249   1.213   8.052 -0.6383 -0.2062  0.1729
   91SAPS  H19R 8889   5.347   1.163   8.044  0.1539  1.1899  0.8365
   91SAPS  H19S 8890   5.187   1.128   8.088 -3.0251  2.0409  1.7217
   91SAPS  C220 8891   5.242   1.327   8.142 -0.6655 -0.2897  0.3216
   91SAPS  H20R 8892   5.285   1.420   8.100  0.1501 -0.5736  0.5103
   91SAPS  H20S 8893   5.291   1.307   8.240  1.4533 -3.2073 -1.1926
   91SAPS  H20T 8894   5.139   1.357   8.170 -0.6209  0.1362  0.0397
   91SAPS   C33 8895   5.097   2.008   6.388  0.0671  0.0286 -0.3437
   91SAPS   H3X 8896   4.993   2.026   6.353 -0.5199 -1.5601  0.4605
   91SAPS   H3Y 8897   5.172   2.070   6.335  0.3797 -0.4909 -0.5141
   91SAPS   C34 8898   5.109   2.037   6.540  0.0986 -0.2968 -0.3188
   91SAPS   H4X 8899   5.111   2.146   6.560 -0.2313 -0.2707 -0.4335
   91SAPS   H4Y 8900   5.207   1.999   6.578 -0.1146 -1.0638 -0.5199
   91SAPS   C35 8901   5.000   1.964   6.617  0.1249  0.4669 -0.0100
   91SAPS   H5X 8902   4.994   1.857   6.588  1.0418  0.2711  0.4980
   91SAPS   H5Y 8903   4.906   2.012   6.584  0.2243  1.4156  1.0286
   91SAPS   C36 8904   5.021   1.958   6.771 -0.4784  0.2772  0.0169
   91SAPS   H6X 8905   5.030   2.066   6.799 -0.9960  0.6047 -1.0303
   91SAPS   H6Y 8906   5.117   1.907   6.792 -1.3266 -0.4690  2.4010
   91SAPS   C37 8907   4.908   1.894   6.846  0.3719 -0.1575 -0.0521
   91SAPS   H7X 8908   4.882   1.793   6.809 -3.3454 -0.3630  2.5663
   91SAPS   H7Y 8909   4.813   1.948   6.830 -1.6218 -3.0916  1.0698
   91SAPS   C38 8910   4.938   1.885   6.999  0.5635  0.5686  0.3885
   91SAPS   H8X 8911   5.009   1.803   7.022  0.0044  0.4759  1.8973
   91SAPS   H8Y 8912   4.841   1.860   7.047  1.5612 -2.1633  1.1738
   91SAPS   C39 8913   4.988   2.017   7.064 -0.2828  0.3957 -0.3224
   91SAPS   H9X 8914   4.903   2.090   7.063  0.5434  1.3928  0.2495
   91SAPS   H9Y 8915   5.084   2.048   7.017  1.4252 -1.4598  1.7301
   91SAPS  C310 8916   5.023   1.990   7.213 -0.4365 -0.3346 -0.4084
   91SAPS  H10X 8917   5.095   2.065   7.252  0.0456 -0.2448 -1.4335
   91SAPS  H10Y 8918   5.082   1.896   7.209  0.5723  0.2983 -0.9259
   91SAPS  C311 8919   4.898   1.978   7.298 -0.1185  0.0470 -0.3732
   91SAPS  H11X 8920   4.852   1.880   7.270  0.8812 -0.8592  1.0023
   91SAPS  H11Y 8921   4.829   2.063   7.285  0.3337  0.6980  1.2425
   91SAPS  C312 8922   4.947   1.958   7.444  0.0395  0.2290 -0.5330
   91SAPS  H12X 8923   5.023   2.037   7.466 -1.7049  1.7280  0.3890
   91SAPS  H12Y 8924   4.969   1.851   7.466 -2.0466  0.2229  2.0568
   91SAPS  C313 8925   4.827   1.983   7.542 -0.0461  0.2254  0.0155
   91SAPS  H13X 8926   4.738   1.928   7.506  1.0637 -0.9055 -1.1307
   91SAPS  H13Y 8927   4.805   2.091   7.549 -0.6680  0.0983  0.0232
   91SAPS  C314 8928   4.859   1.950   7.685 -0.1453 -0.3095 -0.1892
   91SAPS  H14X 8929   4.874   1.840   7.690  1.8454 -0.1356 -1.2880
   91SAPS  H14Y 8930   4.766   1.968   7.742  0.7113  0.0647  1.1263
   91SAPS  C315 8931   4.972   2.034   7.754  0.6027 -0.2819  0.7695
   91SAPS  H15X 8932   4.949   2.143   7.751  0.5641 -0.2383  1.9728
   91SAPS  H15Y 8933   5.069   2.032   7.700  0.1416  1.4122 -0.1931
   91SAPS  C316 8934   4.998   2.004   7.908  0.1850  0.0313  0.2929
   91SAPS  H16X 8935   5.043   1.902   7.910  0.3296  0.0942  0.2619
   91SAPS  H16Y 8936   4.903   2.003   7.965  0.4503 -0.5653  0.7321
   91SAPS  C317 8937   5.111   2.089   7.969 -0.2991 -0.1538 -0.7753
   91SAPS  H17X 8938   5.092   2.198   7.959  0.5354  0.0356 -0.3926
   91SAPS  H17Y 8939   5.208   2.065   7.919  0.7969 -0.0336  1.1940
   91SAPS  C318 8940   5.140   2.055   8.123  0.3482  0.2991  0.2219
   91SAPS  H18X 8941   5.190   1.957   8.132 -0.0036  0.0554 -0.3966
   91SAPS  H18Y 8942   5.041   2.052   8.173  0.6463  0.7073  0.8430
   91SAPS  H18Z 8943   5.210   2.128   8.168 -0.1659  0.5096  0.6944
   92SAPS     N 8944   3.441   6.779   6.279  0.0778 -0.1904  0.0443
   92SAPS   HN1 8945   3.391   6.870   6.273  2.5841  1.2468 -0.4034
   92SAPS   HN2 8946   3.364   6.709   6.279  0.2148 -0.3560 -0.8649
   92SAPS   HN3 8947   3.495   6.785   6.368  0.7150 -2.0999 -0.1666
   92SAPS   C12 8948   3.531   6.763   6.162 -0.2443 -0.8786 -0.2127
   92SAPS  H12A 8949   3.579   6.666   6.169 -1.4613 -1.5106 -0.2030
   92SAPS   C13 8950   3.459   6.781   6.020  0.6901  0.1916 -0.2288
   92SAPS  O13A 8951   3.335   6.798   6.015  0.2320  0.9527 -0.1276
   92SAPS  O13B 8952   3.528   6.788   5.915  0.0253  0.0968  0.2172
   92SAPS   C11 8953   3.647   6.862   6.175  0.1176 -0.3170  1.0629
   92SAPS  H11A 8954   3.601   6.963   6.181 -1.5640 -0.6247 -3.2565
   92SAPS  H11B 8955   3.715   6.857   6.088 -0.2749 -0.9052  0.7842
   92SAPS     P 8956   3.853   6.928   6.339 -0.2769  0.3088  0.1981
   92SAPS   O13 8957   3.980   6.883   6.274 -0.1088  0.0924 -0.8027
   92SAPS   O14 8958   3.811   7.072   6.325  0.2435 -0.2817  0.4174
   92SAPS   O12 8959   3.728   6.837   6.288  0.1500 -0.4029  0.1581
   92SAPS   O11 8960   3.850   6.883   6.490  0.9997 -0.0499  0.4046
   92SAPS    C1 8961   3.774   6.957   6.587 -0.2607  0.5675  0.0721
   92SAPS    HA 8962   3.809   7.062   6.592  0.6564  0.3717 -1.6345
   92SAPS    HB 8963   3.664   6.951   6.571 -0.3137 -2.3410  0.8548
   92SAPS    C2 8964   3.798   6.897   6.732 -0.5413 -0.5430  0.8170
   92SAPS    HS 8965   3.895   6.941   6.765 -1.4938  1.6649  0.8140
   92SAPS   O21 8966   3.788   6.756   6.732 -0.1080 -0.6833 -0.1079
   92SAPS   C21 8967   3.843   6.701   6.840 -0.5041 -0.0826  1.0366
   92SAPS   O22 8968   3.918   6.760   6.915 -0.1517  0.7159  0.1846
   92SAPS   C22 8969   3.796   6.555   6.837 -0.0169  0.3443  0.1202
   92SAPS   H2R 8970   3.808   6.517   6.733 -0.8100  0.2428  0.0578
   92SAPS   H2S 8971   3.852   6.494   6.911 -1.4373 -0.1057  0.8761
   92SAPS    C3 8972   3.692   6.960   6.829 -0.2483  0.8913 -0.6584
   92SAPS    HX 8973   3.595   6.922   6.791  0.0136 -0.8062  0.3028
   92SAPS    HY 8974   3.694   7.070   6.810 -0.2399  1.0414  0.2031
   92SAPS   O31 8975   3.712   6.932   6.973  0.2561 -0.0525  0.1394
   92SAPS   C31 8976   3.733   7.034   7.050 -0.2102 -0.5704  0.3783
   92SAPS   O32 8977   3.734   7.155   7.016 -0.2794  0.5463 -0.6884
   92SAPS   C32 8978   3.756   6.981   7.194  0.2736 -0.2204  0.1904
   92SAPS   H2X 8979   3.862   6.946   7.195  0.1900 -0.5464 -0.8848
   92SAPS   H2Y 8980   3.690   6.892   7.204  2.1353 -1.8349 -1.0547
   92SAPS   C23 8981   3.651   6.531   6.877  0.5356  0.2781 -0.0828
   92SAPS   H3R 8982   3.630   6.426   6.847  1.4451  0.0637 -0.0260
   92SAPS   H3S 8983   3.590   6.605   6.821  0.6252  1.0195  0.7784
   92SAPS   C24 8984   3.637   6.548   7.028 -0.2505  0.5157 -0.2469
   92SAPS   H4R 8985   3.630   6.658   7.044  0.2547  0.5382 -0.1688
   92SAPS   H4S 8986   3.721   6.507   7.086 -1.8278 -2.3064  0.2129
   92SAPS   C25 8987   3.514   6.477   7.081  0.1706 -0.1902  0.0060
   92SAPS   H5R 8988   3.426   6.493   7.017  0.9987  2.1435 -0.6726
   92SAPS   C26 8989   3.493   6.438   7.211  1.0860 -0.9776 -0.2373
   92SAPS   H6R 8990   3.394   6.402   7.243  1.9801 -1.1690  2.6373
   92SAPS   C27 8991   3.589   6.437   7.324 -0.0366 -0.2792  0.0844
   92SAPS   H7R 8992   3.558   6.513   7.399  0.9922  0.3070 -0.0638
   92SAPS   H7S 8993   3.693   6.463   7.295  0.0131  0.2825  0.7498
   92SAPS   C28 8994   3.585   6.300   7.388  0.0745  0.2854  0.2382
   92SAPS   H8R 8995   3.639   6.224   7.330  1.4766  1.3459  0.1198
   92SAPS   C29 8996   3.513   6.269   7.495  0.2191  0.4590 -0.5086
   92SAPS   H9R 8997   3.546   6.179   7.549  2.3968  1.8766  0.6789
   92SAPS  C210 8998   3.424   6.353   7.582  0.0368  0.4294 -0.2094
   92SAPS  H10R 8999   3.365   6.280   7.641  1.6865  2.3588  4.2753
   92SAPS  H10S 9000   3.353   6.408   7.517  1.0469  0.4722 -1.3217
   92SAPS  C211 9001   3.495   6.455   7.672 -0.2321  0.3288  0.2268
   92SAPS  H11R 9002   3.533   6.538   7.610 -1.0108 -1.9685 -3.6664
   92SAPS  C212 9003   3.491   6.465   7.805  0.1061  0.1877 -0.3011
   92SAPS  H12R 9004   3.550   6.545   7.853 -0.8132  1.2774 -0.9204
   92SAPS  C213 9005   3.430   6.377   7.911  0.0291  0.1599  0.4066
   92SAPS  H13R 9006   3.323   6.406   7.911 -0.6392 -1.9561 -2.1111
   92SAPS  H13S 9007   3.477   6.406   8.007 -1.7450 -0.4678  1.5108
   92SAPS  C214 9008   3.439   6.230   7.901 -0.2652  0.2172  0.3696
   92SAPS  H14R 9009   3.434   6.190   7.798  1.5215  0.9218 -0.0327
   92SAPS  C215 9010   3.454   6.142   7.996 -0.1872  0.0514 -0.0969
   92SAPS  H15R 9011   3.447   6.033   7.978  0.8768 -0.0570  0.0707
   92SAPS  C216 9012   3.467   6.175   8.143  0.6409  0.1317 -0.2378
   92SAPS  H16R 9013   3.478   6.283   8.169  1.9134 -0.4725  1.9251
   92SAPS  H16S 9014   3.567   6.139   8.175  0.3580 -0.0134  0.4777
   92SAPS  C217 9015   3.368   6.107   8.239 -0.3164  0.4606 -0.2694
   92SAPS  H17R 9016   3.414   6.119   8.339 -0.0946  4.2883 -0.7068
   92SAPS  H17S 9017   3.367   6.001   8.206  1.9720  0.4936 -0.5873
   92SAPS  C218 9018   3.232   6.168   8.249 -0.2232  0.4363  0.3576
   92SAPS  H18R 9019   3.170   6.114   8.324  0.2266 -0.2519  0.2341
   92SAPS  H18S 9020   3.180   6.151   8.153 -0.6643  1.0425  0.4803
   92SAPS  C219 9021   3.239   6.309   8.306 -0.0323  0.3571 -0.6460
   92SAPS  H19R 9022   3.259   6.385   8.228 -0.7491  0.7364 -0.4743
   92SAPS  H19S 9023   3.320   6.304   8.381 -0.6137 -0.0955 -0.0349
   92SAPS  C220 9024   3.112   6.355   8.374 -0.3709  0.2485 -0.1982
   92SAPS  H20R 9025   3.034   6.389   8.303 -1.0771  0.9212  0.8553
   92SAPS  H20S 9026   3.119   6.452   8.428 -0.7549 -0.1282  0.5517
   92SAPS  H20T 9027   3.065   6.285   8.447 -1.2608  1.2509  0.2136
   92SAPS   C33 9028   3.762   7.092   7.307 -0.3725  0.3767 -0.0583
   92SAPS   H3X 9029   3.672   7.157   7.308 -1.2977 -0.8632 -0.2034
   92SAPS   H3Y 9030   3.848   7.159   7.290  1.0243 -1.4738 -0.6713
   92SAPS   C34 9031   3.766   7.042   7.451  0.4992  0.2798  0.1430
   92SAPS   H4X 9032   3.797   7.116   7.528  0.0320 -1.3960  2.0288
   92SAPS   H4Y 9033   3.841   6.959   7.456 -0.2803 -0.5143 -0.8634
   92SAPS   C35 9034   3.634   6.985   7.495 -0.4208  0.6286  0.0844
   92SAPS   H5X 9035   3.602   6.908   7.422 -0.6224 -0.1221  0.9412
   92SAPS   H5Y 9036   3.559   7.067   7.502 -3.2126 -1.7606  0.4138
   92SAPS   C36 9037   3.646   6.919   7.640  0.8088  0.9380  0.4945
   92SAPS   H6X 9038   3.709   6.829   7.623  3.9406  3.0150  0.2485
   92SAPS   H6Y 9039   3.542   6.904   7.676  1.0696 -3.8043 -0.0802
   92SAPS   C37 9040   3.702   7.007   7.754  0.2132  0.5234 -0.7117
   92SAPS   H7X 9041   3.655   7.108   7.754  1.5064  1.1836  1.4041
   92SAPS   H7Y 9042   3.811   7.024   7.745  0.7498 -1.1091  1.8171
   92SAPS   C38 9043   3.686   6.952   7.899 -0.5804  0.3116  0.6766
   92SAPS   H8X 9044   3.585   6.908   7.916 -2.0392  2.2936 -2.0709
   92SAPS   H8Y 9045   3.714   7.022   7.981 -0.6758 -0.6549  1.5608
   92SAPS   C39 9046   3.795   6.839   7.912 -0.4410 -0.3933  0.7107
   92SAPS   H9X 9047   3.896   6.879   7.888 -0.7898 -1.5093 -3.3689
   92SAPS   H9Y 9048   3.781   6.763   7.832  1.1378  0.5257 -0.4705
   92SAPS  C310 9049   3.781   6.766   8.051 -0.2081  0.6252 -0.1125
   92SAPS  H10X 9050   3.675   6.759   8.084 -0.3549  1.3911 -0.3996
   92SAPS  H10Y 9051   3.838   6.817   8.131 -0.6680  2.5732 -0.9814
   92SAPS  C311 9052   3.846   6.628   8.029  0.7346  0.2502  0.4345
   92SAPS  H11X 9053   3.945   6.645   7.982  0.2061  0.4574 -0.6173
   92SAPS  H11Y 9054   3.795   6.559   7.959 -0.6448  0.6197  1.0324
   92SAPS  C312 9055   3.886   6.547   8.155 -0.0157  0.5886  0.1557
   92SAPS  H12X 9056   3.947   6.604   8.229 -0.7210  1.0979  0.3609
   92SAPS  H12Y 9057   3.949   6.467   8.111  0.4154 -0.1624  2.0627
   92SAPS  C313 9058   3.768   6.491   8.237 -0.4719  0.0199 -0.1580
   92SAPS  H13X 9059   3.712   6.413   8.181 -4.6840  2.4693  0.2500
   92SAPS  H13Y 9060   3.705   6.581   8.251  1.2139  0.7983  3.4619
   92SAPS  C314 9061   3.812   6.433   8.374  0.0843 -0.2947  0.2324
   92SAPS  H14X 9062   3.861   6.510   8.437  1.4491  1.3988 -2.7020
   92SAPS  H14Y 9063   3.882   6.347   8.364  0.3408  0.0334 -1.0054
   92SAPS  C315 9064   3.693   6.382   8.447  0.4711  0.1388 -0.5399
   92SAPS  H15X 9065   3.650   6.287   8.409 -1.4407  0.9985 -0.6431
   92SAPS  H15Y 9066   3.606   6.451   8.442 -0.0209 -0.3909  0.4291
   92SAPS  C316 9067   3.734   6.348   8.597  0.6280 -0.4896  0.7383
   92SAPS  H16X 9068   3.642   6.323   8.654  0.0187  0.5564  0.2365
   92SAPS  H16Y 9069   3.782   6.432   8.652  0.0381  1.2226 -1.2464
   92SAPS  C317 9070   3.813   6.223   8.595  0.0335  0.1961 -0.3409
   92SAPS  H17X 9071   3.911   6.242   8.546 -0.5890 -0.2132 -1.8162
   92SAPS  H17Y 9072   3.769   6.142   8.532 -1.8613  0.2062  0.8924
   92SAPS  C318 9073   3.840   6.164   8.732  0.2794 -0.3871  0.0674
   92SAPS  H18X 9074   3.902   6.072   8.732 -0.1382 -0.6712 -0.0801
   92SAPS  H18Y 9075   3.742   6.135   8.775 -0.9327  0.5662 -1.9021
   92SAPS  H18Z 9076   3.875   6.245   8.800 -0.1659  0.2243 -0.4122
   93SAPS     N 9077   5.477   1.275   5.859  0.6817 -0.6238  0.3091
   93SAPS   HN1 9078   5.387   1.314   5.825  0.8670 -0.7192 -0.2918
   93SAPS   HN2 9079   5.470   1.234   5.955  1.2023 -2.2429 -0.3191
   93SAPS   HN3 9080   5.538   1.359   5.862 -0.3671  0.1361  2.1491
   93SAPS   C12 9081   5.532   1.173   5.769 -0.1341  0.2211  0.2989
   93SAPS  H12A 9082   5.537   1.204   5.666  0.4234 -0.1705  0.2027
   93SAPS   C13 9083   5.687   1.146   5.801 -0.3635  0.1111 -0.0415
   93SAPS  O13A 9084   5.745   1.205   5.895  0.5566  0.0680  0.1563
   93SAPS  O13B 9085   5.750   1.083   5.718 -0.1029 -0.0457  0.7789
   93SAPS   C11 9086   5.460   1.030   5.778 -0.0419  0.1403 -0.4681
   93SAPS  H11A 9087   5.467   0.997   5.884  0.6494 -2.2117 -1.1739
   93SAPS  H11B 9088   5.514   0.953   5.718  0.9353 -0.0294  0.5943
   93SAPS     P 9089   5.197   0.998   5.820  0.2949  0.1669 -0.2586
   93SAPS   O13 9090   5.135   1.114   5.888  0.2255 -0.4319 -0.1741
   93SAPS   O14 9091   5.111   0.912   5.736 -0.4535 -0.3207 -0.6938
   93SAPS   O12 9092   5.322   1.043   5.728  0.0861 -0.1047  0.1103
   93SAPS   O11 9093   5.268   0.905   5.936 -0.4937 -0.7577 -0.4585
   93SAPS    C1 9094   5.190   0.830   6.025  0.8180  0.5270  0.1465
   93SAPS    HA 9095   5.089   0.877   6.029  1.1512  1.2487  0.3623
   93SAPS    HB 9096   5.182   0.724   5.995 -1.0001  0.9988 -1.2071
   93SAPS    C2 9097   5.235   0.838   6.176 -0.0680  0.1610 -0.6617
   93SAPS    HS 9098   5.171   0.771   6.238  0.5770 -2.8337 -3.0252
   93SAPS   O21 9099   5.211   0.971   6.218  0.0794  0.3906 -0.0213
   93SAPS   C21 9100   5.092   1.000   6.267 -0.1054 -0.2847 -0.6671
   93SAPS   O22 9101   4.998   0.924   6.274  0.1180 -0.0072  0.8942
   93SAPS   C22 9102   5.087   1.138   6.331 -0.2230 -0.6489  0.5540
   93SAPS   H2R 9103   5.186   1.184   6.314 -0.3199 -0.7922 -0.4593
   93SAPS   H2S 9104   5.011   1.200   6.279  0.3881 -0.1404  0.2642
   93SAPS    C3 9105   5.387   0.796   6.189 -0.4624 -0.0672 -0.0882
   93SAPS    HX 9106   5.453   0.846   6.116 -0.8392 -1.8393 -1.7173
   93SAPS    HY 9107   5.403   0.691   6.155  2.4221  0.8350 -1.8476
   93SAPS   O31 9108   5.431   0.812   6.327 -0.0038 -0.6861 -0.1478
   93SAPS   C31 9109   5.401   0.719   6.410 -0.2537 -0.4240 -0.4874
   93SAPS   O32 9110   5.346   0.618   6.381  0.7277  0.0941  0.0209
   93SAPS   C32 9111   5.433   0.762   6.553 -0.3745  0.3376  0.9801
   93SAPS   H2X 9112   5.407   0.870   6.553 -0.6781  0.2643  0.9184
   93SAPS   H2Y 9113   5.541   0.746   6.572 -0.2542  0.0445  0.0914
   93SAPS   C23 9114   5.054   1.138   6.475 -0.5925  0.0471 -0.2278
   93SAPS   H3R 9115   4.958   1.091   6.505 -1.7783  2.7248  0.4935
   93SAPS   H3S 9116   5.042   1.237   6.524 -2.1914 -0.9672  1.5868
   93SAPS   C24 9117   5.176   1.077   6.549 -0.3655  0.3704 -0.5825
   93SAPS   H4R 9118   5.264   1.134   6.513  0.0310 -0.6148 -1.2515
   93SAPS   H4S 9119   5.194   0.972   6.515 -2.6612  0.2007 -1.4544
   93SAPS   C25 9120   5.172   1.075   6.701  0.6590  0.0884  0.2175
   93SAPS   H5R 9121   5.244   1.142   6.749  0.5541  0.3047  0.0788
   93SAPS   C26 9122   5.096   1.001   6.782 -0.5463  0.0130  0.0672
   93SAPS   H6R 9123   5.114   1.025   6.888 -0.2357  3.2213 -0.6326
   93SAPS   C27 9124   4.994   0.894   6.744  0.0780  0.0701 -0.1029
   93SAPS   H7R 9125   5.036   0.794   6.768 -0.0585  0.1317  0.3976
   93SAPS   H7S 9126   4.966   0.893   6.637 -0.2695 -0.9034 -0.0085
   93SAPS   C28 9127   4.861   0.923   6.818  0.2089 -0.3151  0.3435
   93SAPS   H8R 9128   4.784   0.958   6.748  3.2294  0.1467 -3.0744
   93SAPS   C29 9129   4.824   0.905   6.941  0.0080  0.8358 -0.0060
   93SAPS   H9R 9130   4.718   0.897   6.968 -0.3255  1.8836 -0.9285
   93SAPS  C210 9131   4.917   0.852   7.050  0.3849 -0.8708  0.2430
   93SAPS  H10R 9132   4.902   0.908   7.145 -2.2057 -1.8929  0.5114
   93SAPS  H10S 9133   5.021   0.873   7.017  0.2696  0.3202  0.5805
   93SAPS  C211 9134   4.894   0.704   7.073  0.4449 -0.3950 -0.1721
   93SAPS  H11R 9135   4.841   0.647   6.996  1.0456 -0.7182 -0.3497
   93SAPS  C212 9136   4.939   0.629   7.176 -0.5422 -0.3773 -0.2965
   93SAPS  H12R 9137   4.899   0.527   7.187  0.1468 -0.6280 -0.0388
   93SAPS  C213 9138   5.010   0.690   7.294 -0.0451  0.1160 -0.3264
   93SAPS  H13R 9139   4.948   0.754   7.360  0.5463 -0.5301  0.8896
   93SAPS  H13S 9140   5.094   0.756   7.262 -0.1592 -0.0352 -0.9485
   93SAPS  C214 9141   5.073   0.577   7.368  0.1664 -0.3359  0.2590
   93SAPS  H14R 9142   5.127   0.499   7.312 -3.0586 -1.5409 -1.4874
   93SAPS  C215 9143   5.077   0.559   7.494 -0.0132  0.3724 -0.8817
   93SAPS  H15R 9144   5.107   0.460   7.534 -0.3748  0.7060  0.2473
   93SAPS  C216 9145   5.038   0.657   7.601 -0.2957 -0.3529  0.0053
   93SAPS  H16R 9146   4.951   0.721   7.575  0.9911  2.9828  3.0347
   93SAPS  H16S 9147   5.121   0.729   7.588  0.9637 -1.6635  0.6115
   93SAPS  C217 9148   5.036   0.590   7.736  0.7892  0.0735 -0.1917
   93SAPS  H17R 9149   5.113   0.511   7.749 -0.5232 -1.1996  0.0361
   93SAPS  H17S 9150   4.942   0.534   7.755 -0.0496  1.4366 -0.1997
   93SAPS  C218 9151   5.047   0.680   7.853 -0.2274 -0.1433 -0.9354
   93SAPS  H18R 9152   4.965   0.755   7.841 -1.2707 -1.1077 -0.0934
   93SAPS  H18S 9153   5.150   0.720   7.843  1.2111 -3.3073 -0.1256
   93SAPS  C219 9154   5.031   0.630   7.998 -0.0320 -0.9553 -0.6793
   93SAPS  H19R 9155   5.105   0.548   8.012  1.5610  0.2558 -1.6656
   93SAPS  H19S 9156   4.933   0.578   8.005  0.1751 -1.1379  3.1859
   93SAPS  C220 9157   5.048   0.737   8.101  0.3300 -0.6530  0.1552
   93SAPS  H20R 9158   5.137   0.798   8.074 -1.1264 -0.0815 -4.0007
   93SAPS  H20S 9159   5.063   0.689   8.200 -0.6164 -0.9847  0.1428
   93SAPS  H20T 9160   4.971   0.816   8.110  1.0151 -0.0634  1.1316
   93SAPS   C33 9161   5.354   0.684   6.661 -0.3690 -0.0684 -0.1555
   93SAPS   H3X 9162   5.365   0.574   6.658  0.5048 -0.0058  0.2699
   93SAPS   H3Y 9163   5.246   0.708   6.651 -1.4897 -4.4263 -0.2162
   93SAPS   C34 9164   5.403   0.713   6.801 -0.2508  0.2825 -0.2272
   93SAPS   H4X 9165   5.411   0.823   6.815  0.0141  0.1735  0.5467
   93SAPS   H4Y 9166   5.504   0.668   6.814 -0.8659 -0.7890  1.1015
   93SAPS   C35 9167   5.318   0.641   6.913 -0.6879  0.2968  0.4528
   93SAPS   H5X 9168   5.295   0.540   6.873  0.2030  1.2571 -2.8161
   93SAPS   H5Y 9169   5.223   0.697   6.912 -0.8387  0.0421  0.4665
   93SAPS   C36 9170   5.384   0.636   7.049  0.1225  0.0758  0.9406
   93SAPS   H6X 9171   5.487   0.594   7.047 -0.0336 -0.3183  1.0789
   93SAPS   H6Y 9172   5.321   0.570   7.113 -1.0660  0.4684  0.2013
   93SAPS   C37 9173   5.378   0.776   7.110 -0.3556  0.3378 -0.3423
   93SAPS   H7X 9174   5.270   0.801   7.121 -0.7192 -1.5950  0.9825
   93SAPS   H7Y 9175   5.427   0.853   7.047  0.3093  3.0416  3.1664
   93SAPS   C38 9176   5.459   0.791   7.246  0.4874 -0.3747 -0.4646
   93SAPS   H8X 9177   5.440   0.895   7.282  2.3699  0.4874 -1.8079
   93SAPS   H8Y 9178   5.566   0.777   7.223  0.6650  1.4103 -0.8847
   93SAPS   C39 9179   5.417   0.695   7.358 -0.1510  0.3558 -0.0044
   93SAPS   H9X 9180   5.433   0.592   7.319 -0.3940 -0.2812  1.5203
   93SAPS   H9Y 9181   5.309   0.720   7.367  0.2410  1.4774  2.3299
   93SAPS  C310 9182   5.469   0.734   7.498 -0.4267  0.1647 -0.3487
   93SAPS  H10X 9183   5.433   0.839   7.508  0.0316  0.1579  1.8720
   93SAPS  H10Y 9184   5.579   0.730   7.484 -0.4042  1.7067 -0.8307
   93SAPS  C311 9185   5.420   0.644   7.607  0.4936  0.7813 -0.6512
   93SAPS  H11X 9186   5.475   0.547   7.600 -0.3940  0.0270  1.8028
   93SAPS  H11Y 9187   5.313   0.621   7.590  0.1455  0.9037  1.1573
   93SAPS  C312 9188   5.443   0.702   7.748 -1.2237 -0.4136  0.1868
   93SAPS  H12X 9189   5.377   0.790   7.761  0.0965  0.4877  1.0917
   93SAPS  H12Y 9190   5.550   0.730   7.757 -1.6063  1.8832 -1.5058
   93SAPS  C313 9191   5.416   0.605   7.857  1.1765  0.3055 -0.6443
   93SAPS  H13X 9192   5.476   0.511   7.856  1.1529  0.2746 -2.4103
   93SAPS  H13Y 9193   5.309   0.581   7.839  1.1202  1.5090 -2.0792
   93SAPS  C314 9194   5.436   0.651   8.001 -0.3101  0.2914 -0.5099
   93SAPS  H14X 9195   5.358   0.728   8.019 -0.9143 -0.9344  2.8755
   93SAPS  H14Y 9196   5.533   0.701   8.019 -0.8826  0.9192  0.9489
   93SAPS  C315 9197   5.409   0.542   8.100 -0.0067 -0.9736  0.0441
   93SAPS  H15X 9198   5.472   0.454   8.080  0.1780 -0.7869 -0.1949
   93SAPS  H15Y 9199   5.300   0.521   8.087  0.2134 -0.8097 -2.5768
   93SAPS  C316 9200   5.437   0.597   8.240 -0.1500  0.0772 -0.0760
   93SAPS  H16X 9201   5.367   0.679   8.268 -0.1564 -0.2764  0.9870
   93SAPS  H16Y 9202   5.544   0.628   8.242  0.6466 -2.3783 -0.9399
   93SAPS  C317 9203   5.413   0.496   8.355  0.0578 -0.2864  0.1012
   93SAPS  H17X 9204   5.306   0.468   8.363 -0.4705  1.9607  2.4561
   93SAPS  H17Y 9205   5.435   0.556   8.446  1.1523  1.9990 -1.5637
   93SAPS  C318 9206   5.508   0.374   8.346 -0.2575 -0.5822 -0.0456
   93SAPS  H18X 9207   5.463   0.290   8.289  1.2190 -1.9602  0.7573
   93SAPS  H18Y 9208   5.531   0.330   8.445  0.4633  0.7301  0.3919
   93SAPS  H18Z 9209   5.605   0.403   8.299 -1.2296 -1.1377 -2.5524
   94SAPS     N 9210   5.461   1.934   5.612  0.4707  0.0046 -0.4479
   94SAPS   HN1 9211   5.494   1.938   5.513  0.6164  1.0388 -0.3664
   94SAPS   HN2 9212   5.532   1.888   5.674  0.7851 -0.3210 -1.0376
   94SAPS   HN3 9213   5.376   1.878   5.593 -0.4194  1.2103 -0.1128
   94SAPS   C12 9214   5.431   2.078   5.644  0.5687  0.2142  0.4793
   94SAPS  H12A 9215   5.525   2.130   5.645  1.1756 -0.8426  1.5947
   94SAPS   C13 9216   5.333   2.143   5.540 -0.4673 -0.4833  0.4407
   94SAPS  O13A 9217   5.305   2.082   5.443 -0.1038  1.1241  0.3631
   94SAPS  O13B 9218   5.318   2.268   5.545  0.4980  0.5006  0.1129
   94SAPS   C11 9219   5.370   2.091   5.793  0.2303 -0.3348  0.1635
   94SAPS  H11A 9220   5.284   2.023   5.811 -0.4482  1.2569  3.7396
   94SAPS  H11B 9221   5.344   2.197   5.810  2.0751 -0.0364  1.3820
   94SAPS     P 9222   5.565   2.162   5.956 -0.3163  0.1280 -0.1949
   94SAPS   O13 9223   5.650   2.091   6.053  0.1571 -0.0866  0.0256
   94SAPS   O14 9224   5.632   2.252   5.858  0.1459  0.0907  0.6644
   94SAPS   O12 9225   5.474   2.052   5.882 -0.1663 -0.4023  0.0385
   94SAPS   O11 9226   5.459   2.242   6.035  0.2688 -0.8487 -0.3617
   94SAPS    C1 9227   5.474   2.388   6.048  0.3266  0.4862 -0.4789
   94SAPS    HA 9228   5.578   2.426   6.058 -0.6443  4.1079 -2.3329
   94SAPS    HB 9229   5.424   2.440   5.963 -1.8664 -0.2419  0.3019
   94SAPS    C2 9230   5.400   2.441   6.176  0.2119 -0.3560  0.4960
   94SAPS    HS 9231   5.468   2.521   6.211  0.9509 -0.4491 -0.6413
   94SAPS   O21 9232   5.381   2.333   6.273 -0.7946 -0.7424 -0.2567
   94SAPS   C21 9233   5.503   2.300   6.333 -0.5790  0.6153  0.4574
   94SAPS   O22 9234   5.598   2.369   6.330 -0.0854 -0.4258  0.6879
   94SAPS   C22 9235   5.486   2.169   6.407  0.4061  0.5841 -0.1142
   94SAPS   H2R 9236   5.411   2.184   6.487  0.7679  1.2775  0.1021
   94SAPS   H2S 9237   5.450   2.092   6.335 -0.0978  1.0596 -0.3783
   94SAPS    C3 9238   5.260   2.521   6.152  0.6040 -0.7553 -0.2028
   94SAPS    HX 9239   5.196   2.454   6.092  0.5595 -0.7443 -0.1677
   94SAPS    HY 9240   5.297   2.607   6.092  3.0199 -1.2303  0.4788
   94SAPS   O31 9241   5.193   2.565   6.274 -0.0505  0.2082  0.0538
   94SAPS   C31 9242   5.114   2.477   6.322  0.2999 -0.3465  0.0128
   94SAPS   O32 9243   5.093   2.365   6.283 -0.3015  0.1315 -0.0422
   94SAPS   C32 9244   5.039   2.536   6.448  0.3742  0.5119 -0.1164
   94SAPS   H2X 9245   4.932   2.530   6.419  0.7655  2.8137 -2.4906
   94SAPS   H2Y 9246   5.071   2.642   6.462  0.2551  0.6271 -0.6821
   94SAPS   C23 9247   5.607   2.106   6.477 -0.7687 -0.4858 -0.2034
   94SAPS   H3R 9248   5.644   2.184   6.547  3.7201 -2.0235 -0.5479
   94SAPS   H3S 9249   5.697   2.103   6.411 -0.1747  0.1794  0.5652
   94SAPS   C24 9250   5.576   1.972   6.554 -0.9050 -0.2146  0.4548
   94SAPS   H4R 9251   5.536   1.891   6.490 -1.6257 -0.8776  1.7134
   94SAPS   H4S 9252   5.484   1.985   6.615 -0.3737 -0.5054  1.3340
   94SAPS   C25 9253   5.692   1.932   6.642  0.1520 -0.4804 -0.2214
   94SAPS   H5R 9254   5.791   1.931   6.594  0.4656 -1.4161  0.3934
   94SAPS   C26 9255   5.693   1.929   6.780  0.1624  0.2406 -0.2224
   94SAPS   H6R 9256   5.783   1.902   6.838 -0.1594  0.8025  0.5487
   94SAPS   C27 9257   5.575   1.946   6.870 -0.0945  0.2915  0.1966
   94SAPS   H7R 9258   5.506   1.863   6.843  1.8725 -1.3347 -0.0444
   94SAPS   H7S 9259   5.530   2.046   6.855  0.3347  0.5747  0.7549
   94SAPS   C28 9260   5.608   1.939   7.015 -0.1644 -0.7752  0.4979
   94SAPS   H8R 9261   5.679   2.012   7.058  0.0947 -0.4281 -0.4833
   94SAPS   C29 9262   5.577   1.845   7.104  0.2220  0.6005  0.2162
   94SAPS   H9R 9263   5.620   1.847   7.205  2.5807 -2.7367 -0.5686
   94SAPS  C210 9264   5.483   1.722   7.090 -0.8829 -0.4374  0.7714
   94SAPS  H10R 9265   5.538   1.649   7.153  1.4622 -0.6966 -1.3837
   94SAPS  H10S 9266   5.475   1.683   6.986  0.9127  0.4704  0.2449
   94SAPS  C211 9267   5.347   1.758   7.147 -0.3506 -0.4138 -0.3998
   94SAPS  H11R 9268   5.273   1.789   7.073 -1.6241 -1.2501  0.4787
   94SAPS  C212 9269   5.312   1.733   7.277 -0.6711 -0.5742  0.6557
   94SAPS  H12R 9270   5.216   1.773   7.312 -0.6930 -0.1104  0.0793
   94SAPS  C213 9271   5.402   1.669   7.382 -0.2661  0.4723  0.2784
   94SAPS  H13R 9272   5.430   1.754   7.448 -0.3562  0.7170  0.0040
   94SAPS  H13S 9273   5.499   1.633   7.343  0.0077  1.1522  0.3254
   94SAPS  C214 9274   5.345   1.553   7.463  0.8565  0.3599  0.0470
   94SAPS  H14R 9275   5.383   1.458   7.425 -1.1417 -0.3760 -0.2278
   94SAPS  C215 9276   5.263   1.561   7.570 -0.2438  0.2546 -0.9042
   94SAPS  H15R 9277   5.218   1.470   7.612  1.3362 -0.2512 -0.2691
   94SAPS  C216 9278   5.216   1.690   7.636  0.1866 -0.0752 -0.0528
   94SAPS  H16R 9279   5.108   1.680   7.662 -0.2339  0.1440 -1.6275
   94SAPS  H16S 9280   5.229   1.772   7.564 -0.0051  0.1130  0.1243
   94SAPS  C217 9281   5.297   1.723   7.758  0.4829 -0.5924  0.2073
   94SAPS  H17R 9282   5.254   1.816   7.801 -0.5778 -0.1085 -1.7627
   94SAPS  H17S 9283   5.404   1.745   7.733  0.8815 -2.5646  0.0466
   94SAPS  C218 9284   5.293   1.626   7.878  0.1564  0.1436 -0.0488
   94SAPS  H18R 9285   5.357   1.541   7.847  0.3039  0.1537  0.2268
   94SAPS  H18S 9286   5.187   1.591   7.881  0.5533 -1.0752  0.5427
   94SAPS  C219 9287   5.339   1.685   8.013  0.4426  0.5341 -0.0755
   94SAPS  H19R 9288   5.303   1.623   8.097 -0.8500 -0.6288 -1.4159
   94SAPS  H19S 9289   5.297   1.787   8.024 -1.5008 -0.3043  0.6826
   94SAPS  C220 9290   5.492   1.691   8.017 -0.1590  0.3466  0.4991
   94SAPS  H20R 9291   5.532   1.700   8.121  1.0194  1.8222 -0.0430
   94SAPS  H20S 9292   5.517   1.777   7.952  0.4302 -0.1006  0.1216
   94SAPS  H20T 9293   5.533   1.595   7.979  2.1385  1.3792  0.2232
   94SAPS   C33 9294   5.066   2.452   6.576  0.6062  0.2425  0.3214
   94SAPS   H3X 9295   5.025   2.352   6.547 -1.3971  1.0788  0.1130
   94SAPS   H3Y 9296   4.999   2.486   6.658  2.2304 -0.2982  1.9260
   94SAPS   C34 9297   5.211   2.441   6.621  0.5110  0.0995 -0.2698
   94SAPS   H4X 9298   5.248   2.545   6.613 -0.5926  0.5623  0.3813
   94SAPS   H4Y 9299   5.261   2.380   6.543  1.4642  0.6985 -0.1412
   94SAPS   C35 9300   5.241   2.379   6.762 -0.0015  0.3042  1.1011
   94SAPS   H5X 9301   5.351   2.384   6.779 -0.1882 -0.3881  2.7466
   94SAPS   H5Y 9302   5.204   2.274   6.770  0.0740  0.2735  1.0426
   94SAPS   C36 9303   5.169   2.453   6.870 -0.0579  0.3223 -0.3738
   94SAPS   H6X 9304   5.061   2.448   6.843 -0.9624  1.4635  2.6271
   94SAPS   H6Y 9305   5.201   2.560   6.873 -0.5977  0.4754  0.0733
   94SAPS   C37 9306   5.191   2.392   7.009 -0.0620 -0.4166  0.0264
   94SAPS   H7X 9307   5.189   2.281   7.004  1.0786 -0.3930 -2.0627
   94SAPS   H7Y 9308   5.107   2.425   7.074 -1.8044 -2.5368 -1.0016
   94SAPS   C38 9309   5.326   2.433   7.077 -0.0461  0.4986  0.2087
   94SAPS   H8X 9310   5.319   2.543   7.091  0.4482  0.3203  2.1007
   94SAPS   H8Y 9311   5.408   2.405   7.007  0.7042 -1.0127  1.6166
   94SAPS   C39 9312   5.349   2.364   7.209 -0.1464 -0.1907 -0.2424
   94SAPS   H9X 9313   5.435   2.423   7.248 -0.1350 -1.2117  1.3912
   94SAPS   H9Y 9314   5.371   2.258   7.186  1.0003  0.3941 -2.0680
   94SAPS  C310 9315   5.243   2.383   7.321 -0.6156  0.0182 -0.5866
   94SAPS  H10X 9316   5.162   2.311   7.296  0.8313 -2.0299  0.2945
   94SAPS  H10Y 9317   5.205   2.487   7.332  0.9213  0.5529 -0.1029
   94SAPS  C311 9318   5.298   2.324   7.455 -0.4476  0.0716  0.3295
   94SAPS  H11X 9319   5.385   2.388   7.484 -2.6817  2.6248  1.8027
   94SAPS  H11Y 9320   5.339   2.223   7.435 -0.1856  0.0010  1.1731
   94SAPS  C312 9321   5.209   2.333   7.579  0.3249  0.0949  0.0801
   94SAPS  H12X 9322   5.126   2.262   7.556 -0.8831  1.3889  0.2783
   94SAPS  H12Y 9323   5.175   2.437   7.595 -1.0741 -0.2870 -0.2117
   94SAPS  C313 9324   5.277   2.281   7.706 -0.5107 -0.4487 -0.8108
   94SAPS  H13X 9325   5.350   2.199   7.690 -0.0225  0.0134 -1.0110
   94SAPS  H13Y 9326   5.195   2.246   7.772 -0.2666  1.1191  0.3837
   94SAPS  C314 9327   5.361   2.396   7.778  0.2790  0.1451  0.0463
   94SAPS  H14X 9328   5.302   2.488   7.799  0.2990  0.2060 -0.1589
   94SAPS  H14Y 9329   5.443   2.421   7.707  0.8835  0.4743  0.8543
   94SAPS  C315 9330   5.426   2.336   7.905  0.2931 -0.1762  0.2181
   94SAPS  H15X 9331   5.347   2.302   7.976  2.6597 -4.8255  1.0540
   94SAPS  H15Y 9332   5.482   2.417   7.956  2.3363 -0.4729 -1.4186
   94SAPS  C316 9333   5.522   2.224   7.890 -0.1113  0.3012  0.4893
   94SAPS  H16X 9334   5.613   2.266   7.843  0.5335 -0.0610  1.3853
   94SAPS  H16Y 9335   5.474   2.141   7.834 -0.4204  0.0384  1.1303
   94SAPS  C317 9336   5.566   2.161   8.022  0.4901  0.1421  0.4520
   94SAPS  H17X 9337   5.474   2.125   8.072  0.3646  1.4966  1.2624
   94SAPS  H17Y 9338   5.605   2.235   8.095  0.6545  2.0686 -1.4869
   94SAPS  C318 9339   5.675   2.048   8.025  0.3844  0.6791 -0.0878
   94SAPS  H18X 9340   5.673   2.008   8.129 -1.3651  0.5623 -0.1364
   94SAPS  H18Y 9341   5.771   2.097   8.000  0.2192  0.1775 -1.8812
   94SAPS  H18Z 9342   5.652   1.977   7.943  0.3300  1.0331 -0.3812
   95SAPS     N 9343   1.783   6.261   6.199  0.2825  0.2546 -0.0317
   95SAPS   HN1 9344   1.804   6.259   6.301  0.5664 -0.2901 -0.0965
   95SAPS   HN2 9345   1.686   6.224   6.193 -0.1530  1.5853 -1.8640
   95SAPS   HN3 9346   1.847   6.197   6.148 -0.7468 -0.9094  0.0991
   95SAPS   C12 9347   1.784   6.392   6.146  0.4740  0.3805 -0.9299
   95SAPS  H12A 9348   1.858   6.437   6.210  1.4445 -3.4102  0.8424
   95SAPS   C13 9349   1.833   6.400   5.996 -0.0985 -0.1099 -0.1673
   95SAPS  O13A 9350   1.840   6.292   5.931 -0.3680 -0.1735  0.0177
   95SAPS  O13B 9351   1.817   6.504   5.924  0.8411 -0.2071 -0.1668
   95SAPS   C11 9352   1.640   6.453   6.163 -0.1438  0.3464  0.0248
   95SAPS  H11A 9353   1.574   6.400   6.091  0.5345 -1.0003  0.3484
   95SAPS  H11B 9354   1.647   6.557   6.126 -1.6904 -0.5778 -3.2780
   95SAPS     P 9355   1.459   6.528   6.333  0.2164 -0.1853 -0.2330
   95SAPS   O13 9356   1.474   6.673   6.311 -0.3847 -0.4745  0.1970
   95SAPS   O14 9357   1.337   6.467   6.268  0.1266  0.7185  0.2879
   95SAPS   O12 9358   1.589   6.442   6.296  0.1954 -0.1018  0.7276
   95SAPS   O11 9359   1.447   6.508   6.493 -0.0809  0.7040  0.2267
   95SAPS    C1 9360   1.566   6.459   6.567  0.1206 -0.7670 -0.2905
   95SAPS    HA 9361   1.555   6.348   6.567 -0.0446 -0.7840  1.3262
   95SAPS    HB 9362   1.659   6.502   6.525  0.2159 -0.0521  0.6106
   95SAPS    C2 9363   1.565   6.503   6.714  0.9200 -0.8007  0.2757
   95SAPS    HS 9364   1.660   6.462   6.755  1.4263 -0.8262 -0.9022
   95SAPS   O21 9365   1.440   6.465   6.779  0.4737 -0.3261  0.1118
   95SAPS   C21 9366   1.455   6.347   6.828  0.3346  0.9187  0.0348
   95SAPS   O22 9367   1.558   6.274   6.813 -0.2485 -0.1453 -0.4957
   95SAPS   C22 9368   1.338   6.308   6.920 -0.3718 -0.1054  0.3215
   95SAPS   H2R 9369   1.262   6.390   6.919 -1.9654 -1.4661  2.2792
   95SAPS   H2S 9370   1.272   6.232   6.874 -0.3397 -0.1296  0.3152
   95SAPS    C3 9371   1.570   6.658   6.725  0.2482 -0.4050  0.2338
   95SAPS    HX 9372   1.474   6.702   6.689  1.7045  1.8948 -1.0333
   95SAPS    HY 9373   1.638   6.702   6.650 -0.8799  1.7954  0.4226
   95SAPS   O31 9374   1.585   6.705   6.862  0.4912  0.0535  0.0151
   95SAPS   C31 9375   1.647   6.816   6.881  0.2271 -0.3811 -0.1186
   95SAPS   O32 9376   1.686   6.896   6.794 -0.1837 -0.5085  0.2819
   95SAPS   C32 9377   1.677   6.837   7.029 -0.0606  0.0902  0.8587
   95SAPS   H2X 9378   1.788   6.842   7.026 -0.1329  1.8396 -0.9488
   95SAPS   H2Y 9379   1.648   6.749   7.090  0.2709  0.1203  1.0598
   95SAPS   C23 9380   1.380   6.263   7.061 -0.5572  0.6979  0.2929
   95SAPS   H3R 9381   1.459   6.187   7.043  0.8917  2.6335 -2.2885
   95SAPS   H3S 9382   1.302   6.208   7.117  0.4136 -0.0535  0.9303
   95SAPS   C24 9383   1.431   6.379   7.153  0.2564 -0.6549 -0.0184
   95SAPS   H4R 9384   1.438   6.326   7.250 -0.1908  1.6640  1.3651
   95SAPS   H4S 9385   1.355   6.460   7.155 -0.7315 -1.3618 -3.1881
   95SAPS   C25 9386   1.562   6.450   7.123 -0.0131  0.4020 -0.0577
   95SAPS   H5R 9387   1.572   6.488   7.020 -0.8722  0.7461 -0.0172
   95SAPS   C26 9388   1.664   6.468   7.214 -0.9175  0.1449 -0.1847
   95SAPS   H6R 9389   1.752   6.522   7.178 -0.8577 -2.2359 -4.2606
   95SAPS   C27 9390   1.649   6.437   7.362 -0.2800 -0.3441 -0.8354
   95SAPS   H7R 9391   1.681   6.334   7.389  1.4660  0.5149  0.5611
   95SAPS   H7S 9392   1.541   6.430   7.389 -0.3320  0.2323 -0.8726
   95SAPS   C28 9393   1.716   6.535   7.453  0.2649  0.0112  0.2629
   95SAPS   H8R 9394   1.778   6.610   7.400 -0.2965 -1.3483 -2.4951
   95SAPS   C29 9395   1.707   6.531   7.590  0.7887 -0.5501 -0.6517
   95SAPS   H9R 9396   1.764   6.605   7.649 -0.1534  1.6240 -2.3220
   95SAPS  C210 9397   1.641   6.420   7.663 -0.0881 -0.4366  0.4930
   95SAPS  H10R 9398   1.606   6.337   7.598  1.0659  1.0333 -2.1471
   95SAPS  H10S 9399   1.546   6.459   7.706 -0.4667 -1.8143  0.9307
   95SAPS  C211 9400   1.722   6.353   7.771 -0.1363 -0.1190  0.4103
   95SAPS  H11R 9401   1.797   6.279   7.742 -0.3585  0.0504 -0.6268
   95SAPS  C212 9402   1.701   6.377   7.903 -0.9310  0.2579  0.2038
   95SAPS  H12R 9403   1.760   6.309   7.968  1.0346 -1.9309 -3.5481
   95SAPS  C213 9404   1.602   6.467   7.963  0.5465 -0.8547 -0.6912
   95SAPS  H13R 9405   1.506   6.452   7.909  1.5934 -0.1467 -2.8802
   95SAPS  H13S 9406   1.629   6.574   7.948 -0.0205 -0.7121 -0.7295
   95SAPS  C214 9407   1.570   6.441   8.108  0.0390  0.4808  0.0317
   95SAPS  H14R 9408   1.615   6.514   8.177  0.4070  1.0399 -0.7838
   95SAPS  C215 9409   1.480   6.353   8.152  0.2306  1.2335  0.2455
   95SAPS  H15R 9410   1.461   6.342   8.260  0.1014 -1.0683  0.0326
   95SAPS  C216 9411   1.414   6.241   8.067  0.6422  0.3047 -0.2607
   95SAPS  H16R 9412   1.425   6.139   8.109 -2.0810  0.2858  0.6085
   95SAPS  H16S 9413   1.448   6.248   7.962 -2.4228 -0.7300 -1.4025
   95SAPS  C217 9414   1.258   6.260   8.068 -0.0011 -0.5204  0.2120
   95SAPS  H17R 9415   1.220   6.205   7.979  0.1057  2.4415 -1.8065
   95SAPS  H17S 9416   1.233   6.364   8.036 -1.0560 -1.3096 -1.7351
   95SAPS  C218 9417   1.197   6.224   8.208 -0.4976 -0.4936 -0.3127
   95SAPS  H18R 9418   1.227   6.296   8.287 -0.7163  0.2410 -0.8883
   95SAPS  H18S 9419   1.238   6.124   8.235  0.3943  0.0850  0.5403
   95SAPS  C219 9420   1.044   6.219   8.200  0.3428  0.7723  0.0015
   95SAPS  H19R 9421   1.007   6.212   8.304 -3.1451  2.8537 -0.9222
   95SAPS  H19S 9422   1.015   6.128   8.143 -0.3282 -0.1905  1.8088
   95SAPS  C220 9423   0.986   6.349   8.143 -0.3363 -0.0936 -0.3407
   95SAPS  H20R 9424   1.028   6.438   8.196  1.8689 -1.2858  0.0227
   95SAPS  H20S 9425   0.875   6.350   8.157 -0.2827 -2.0905  0.6662
   95SAPS  H20T 9426   1.019   6.352   8.037  1.5439 -2.1404  0.1215
   95SAPS   C33 9427   1.624   6.971   7.081  0.3562  0.0824  0.0970
   95SAPS   H3X 9428   1.516   6.973   7.057  0.7043 -0.9006 -1.8050
   95SAPS   H3Y 9429   1.675   7.052   7.024 -3.0207  1.5227 -1.1547
   95SAPS   C34 9430   1.637   6.976   7.232  0.2334 -0.5591 -0.1456
   95SAPS   H4X 9431   1.745   6.965   7.254  0.6874  1.0691 -1.3152
   95SAPS   H4Y 9432   1.582   6.893   7.281  2.9726 -1.7897  1.0323
   95SAPS   C35 9433   1.601   7.119   7.290  0.0997 -0.1690  0.0899
   95SAPS   H5X 9434   1.491   7.131   7.296  0.2955  1.3659  1.0710
   95SAPS   H5Y 9435   1.646   7.194   7.221  1.1803  1.7082  2.6903
   95SAPS   C36 9436   1.648   7.151   7.431  0.3625  0.1476  0.4015
   95SAPS   H6X 9437   1.633   7.259   7.451 -0.2461 -0.0455  1.0665
   95SAPS   H6Y 9438   1.757   7.135   7.421  0.0614 -1.2999 -0.9849
   95SAPS   C37 9439   1.596   7.067   7.546 -0.0906  0.4910  0.2595
   95SAPS   H7X 9440   1.625   6.960   7.541 -2.9017 -0.3851  0.7405
   95SAPS   H7Y 9441   1.485   7.063   7.538  0.0593 -3.4423 -2.8342
   95SAPS   C38 9442   1.635   7.119   7.680 -0.1146 -0.0768  0.3637
   95SAPS   H8X 9443   1.580   7.214   7.692 -2.7373 -1.5880  1.1178
   95SAPS   H8Y 9444   1.742   7.141   7.702 -0.8823  1.5971  2.8241
   95SAPS   C39 9445   1.578   7.030   7.800 -0.0382  0.0511 -0.0144
   95SAPS   H9X 9446   1.630   6.932   7.803  0.0612  0.1284  1.8336
   95SAPS   H9Y 9447   1.472   7.000   7.784 -0.2233  0.7008 -0.0345
   95SAPS  C310 9448   1.588   7.100   7.935  0.1847  0.3223 -0.5628
   95SAPS  H10X 9449   1.500   7.057   7.988  0.6192 -2.5478 -1.9671
   95SAPS  H10Y 9450   1.564   7.207   7.917  0.3300  0.0558 -2.6600
   95SAPS  C311 9451   1.713   7.080   8.018 -0.1056  0.2996 -0.2122
   95SAPS  H11X 9452   1.796   7.149   7.993  3.2104 -2.9216  1.0290
   95SAPS  H11Y 9453   1.752   6.976   8.013 -1.5980 -0.2786 -0.4728
   95SAPS  C312 9454   1.687   7.108   8.171 -0.3521  0.2492  0.4295
   95SAPS  H12X 9455   1.590   7.068   8.209 -1.1120 -1.6767 -3.1645
   95SAPS  H12Y 9456   1.678   7.216   8.194 -0.6708  0.0556  1.2818
   95SAPS  C313 9457   1.805   7.041   8.247  0.2809 -0.3341  0.0357
   95SAPS  H13X 9458   1.901   7.061   8.194 -1.2051  0.8387 -2.3782
   95SAPS  H13Y 9459   1.782   6.933   8.238 -1.1590 -0.1347  1.0486
   95SAPS  C314 9460   1.819   7.070   8.392 -0.4838  0.4105  0.2147
   95SAPS  H14X 9461   1.721   7.061   8.445  0.1463 -0.5018  1.2783
   95SAPS  H14Y 9462   1.864   7.172   8.390  0.5074 -0.0369 -1.0688
   95SAPS  C315 9463   1.925   6.985   8.473 -0.2305 -0.7405 -0.4640
   95SAPS  H15X 9464   2.022   6.973   8.419  0.2896  3.5985 -0.8373
   95SAPS  H15Y 9465   1.873   6.888   8.484 -0.0617 -0.8852 -0.9136
   95SAPS  C316 9466   1.949   7.052   8.610 -0.4376 -0.7012 -0.7723
   95SAPS  H16X 9467   1.851   7.086   8.650  0.5474  2.7044 -0.9708
   95SAPS  H16Y 9468   2.011   7.143   8.598  1.4811 -1.9514 -0.8440
   95SAPS  C317 9469   2.020   6.966   8.721 -0.1741 -0.7664  0.3872
   95SAPS  H17X 9470   2.088   6.889   8.677 -0.5441 -0.5171 -0.6423
   95SAPS  H17Y 9471   1.936   6.909   8.765 -1.6416 -2.0921 -3.6221
   95SAPS  C318 9472   2.102   7.054   8.815 -0.0843 -0.3730  0.7896
   95SAPS  H18X 9473   2.177   6.984   8.856 -1.0983 -2.0133 -0.0391
   95SAPS  H18Y 9474   2.039   7.109   8.888  0.0541  0.4811  0.2789
   95SAPS  H18Z 9475   2.173   7.124   8.767  1.4274 -2.6103 -0.4306
   96SAPS     N 9476   2.701   1.261   6.397 -0.0436  0.4372  0.4557
   96SAPS   HN1 9477   2.641   1.344   6.381  0.9534  1.0118 -0.4465
   96SAPS   HN2 9478   2.635   1.187   6.429 -2.1060  1.3649 -1.4150
   96SAPS   HN3 9479   2.774   1.283   6.468  1.1248  1.7010 -1.0603
   96SAPS   C12 9480   2.780   1.222   6.272  0.3689 -0.3591 -0.4060
   96SAPS  H12A 9481   2.706   1.187   6.202 -0.4913 -1.9933  1.2278
   96SAPS   C13 9482   2.853   1.323   6.197 -0.5109 -0.3784  0.0512
   96SAPS  O13A 9483   2.851   1.445   6.243 -0.2796  0.4103  0.1068
   96SAPS  O13B 9484   2.891   1.305   6.074 -0.1424 -0.6292 -1.2212
   96SAPS   C11 9485   2.879   1.110   6.306 -0.5646  0.0083 -0.2337
   96SAPS  H11A 9486   2.963   1.149   6.367  0.8661 -0.3824 -1.9092
   96SAPS  H11B 9487   2.932   1.077   6.214  0.1974  0.0789  0.1723
   96SAPS     P 9488   2.907   0.898   6.453 -0.0557  0.0952 -0.4926
   96SAPS   O13 9489   2.824   0.819   6.542  0.4640  0.0911  0.2320
   96SAPS   O14 9490   3.001   0.824   6.372  0.2993 -0.6496  0.7554
   96SAPS   O12 9491   2.813   1.000   6.367 -0.3398 -0.0070 -0.0267
   96SAPS   O11 9492   2.998   1.001   6.538  0.4655  0.3270  0.4254
   96SAPS    C1 9493   2.948   1.051   6.665 -0.1135  0.1657  0.3578
   96SAPS    HA 9494   2.907   1.154   6.652  1.5527  0.7645 -0.5044
   96SAPS    HB 9495   2.877   0.991   6.726  1.9841 -1.0319  1.7265
   96SAPS    C2 9496   3.060   1.054   6.771 -0.0413 -0.3025  0.3034
   96SAPS    HS 9497   3.027   1.110   6.861 -1.1407  0.6014 -0.6276
   96SAPS   O21 9498   3.178   1.116   6.722  0.5652 -0.2624  0.5902
   96SAPS   C21 9499   3.175   1.242   6.680 -0.5483  1.2311 -0.4354
   96SAPS   O22 9500   3.080   1.315   6.687 -0.4246  0.0382 -0.2822
   96SAPS   C22 9501   3.323   1.290   6.674  0.6362  0.4686  0.1590
   96SAPS   H2R 9502   3.395   1.209   6.697 -0.0941  0.1084  1.2454
   96SAPS   H2S 9503   3.342   1.343   6.578  1.0322  2.1595  1.1210
   96SAPS    C3 9504   3.096   0.919   6.831 -0.1207  0.2577  0.5351
   96SAPS    HX 9505   3.140   0.857   6.750  2.6194  0.6847  1.6001
   96SAPS    HY 9506   2.999   0.878   6.864  0.3255 -1.0108  0.3275
   96SAPS   O31 9507   3.195   0.936   6.937  0.6444 -0.3362  0.1260
   96SAPS   C31 9508   3.328   0.937   6.918  0.4900  0.4248 -0.2985
   96SAPS   O32 9509   3.393   0.943   6.816 -0.1371  0.2141 -0.5052
   96SAPS   C32 9510   3.394   0.926   7.060  0.2258  0.2693 -0.2446
   96SAPS   H2X 9511   3.495   0.971   7.057  0.9529 -1.2955 -0.2772
   96SAPS   H2Y 9512   3.392   0.819   7.091 -3.4149  0.8063  2.0856
   96SAPS   C23 9513   3.348   1.400   6.776 -0.6876  0.0850 -0.8275
   96SAPS   H3R 9514   3.344   1.354   6.877  1.4359  2.4593  0.4423
   96SAPS   H3S 9515   3.271   1.480   6.765  1.0810  1.9255 -0.4876
   96SAPS   C24 9516   3.492   1.455   6.778 -0.1431  0.0582  0.4802
   96SAPS   H4R 9517   3.500   1.505   6.680 -0.0799  2.1332  1.4934
   96SAPS   H4S 9518   3.558   1.365   6.775 -1.1222 -0.6476 -1.0224
   96SAPS   C25 9519   3.530   1.546   6.893  0.6488 -0.7746  0.7729
   96SAPS   H5R 9520   3.494   1.649   6.887  0.9590 -0.6205  1.5380
   96SAPS   C26 9521   3.585   1.520   7.012 -0.7599  0.3033 -0.1596
   96SAPS   H6R 9522   3.617   1.598   7.082  2.5682 -1.2212  0.1872
   96SAPS   C27 9523   3.641   1.390   7.051 -0.3387 -0.0284 -0.2647
   96SAPS   H7R 9524   3.750   1.402   7.066 -0.4683  0.6057  0.1864
   96SAPS   H7S 9525   3.622   1.308   6.977 -1.5625 -0.2557  0.2823
   96SAPS   C28 9526   3.588   1.348   7.185 -0.2288 -0.0083 -0.7975
   96SAPS   H8R 9527   3.486   1.308   7.188 -0.0535 -0.4118  0.6535
   96SAPS   C29 9528   3.659   1.334   7.297 -0.0922 -0.1025  0.2208
   96SAPS   H9R 9529   3.615   1.286   7.386  0.0500  0.9876  0.9037
   96SAPS  C210 9530   3.801   1.383   7.306 -0.0934  0.7979 -0.4527
   96SAPS  H10R 9531   3.805   1.489   7.272 -1.2231  0.4945 -1.6072
   96SAPS  H10S 9532   3.872   1.329   7.240  3.0080  0.5329  2.8261
   96SAPS  C211 9533   3.863   1.385   7.448  0.2176  0.0535 -0.6129
   96SAPS  H11R 9534   3.867   1.483   7.499 -0.8361  0.2950 -0.9788
   96SAPS  C212 9535   3.917   1.278   7.511  0.2755  0.0015 -0.4085
   96SAPS  H12R 9536   3.972   1.285   7.606  0.9629 -0.3966 -0.7723
   96SAPS  C213 9537   3.915   1.144   7.450  0.1184  0.2461 -0.3888
   96SAPS  H13R 9538   3.837   1.120   7.376 -0.4126 -0.0953  0.2714
   96SAPS  H13S 9539   3.906   1.072   7.534  1.0773 -0.0492 -0.5180
   96SAPS  C214 9540   4.050   1.117   7.385 -0.0109 -0.7806 -0.3102
   96SAPS  H14R 9541   4.083   1.193   7.312 -1.3681 -0.7547 -0.9358
   96SAPS  C215 9542   4.127   1.010   7.389 -0.9894 -0.2730  0.5670
   96SAPS  H15R 9543   4.222   0.992   7.338 -1.5524 -1.0728 -0.2333
   96SAPS  C216 9544   4.102   0.890   7.468  0.6026 -0.6324 -0.0036
   96SAPS  H16R 9545   4.109   0.807   7.394 -0.5717  0.2815 -1.2174
   96SAPS  H16S 9546   3.999   0.894   7.510  0.2692  2.2749 -0.8596
   96SAPS  C217 9547   4.221   0.867   7.562  0.0463  0.3943  0.5758
   96SAPS  H17R 9548   4.323   0.882   7.520  0.2384 -1.1972  0.4086
   96SAPS  H17S 9549   4.216   0.758   7.585 -1.1582  0.2432 -0.2953
   96SAPS  C218 9550   4.208   0.944   7.689 -0.4282 -0.4716 -0.1728
   96SAPS  H18R 9551   4.114   0.905   7.734 -0.4634 -0.5378 -0.3036
   96SAPS  H18S 9552   4.189   1.053   7.681  0.6032 -0.2790 -0.1484
   96SAPS  C219 9553   4.314   0.906   7.794  0.2701 -0.0538  0.0212
   96SAPS  H19R 9554   4.413   0.899   7.744 -0.0048 -0.8523 -0.4345
   96SAPS  H19S 9555   4.299   0.805   7.837  1.1734  0.5955  1.9625
   96SAPS  C220 9556   4.323   1.014   7.898  0.0138  0.3162 -0.2883
   96SAPS  H20R 9557   4.388   1.097   7.862  0.5696 -0.2767 -0.6730
   96SAPS  H20S 9558   4.368   0.982   7.994 -1.2796 -1.7501 -0.3118
   96SAPS  H20T 9559   4.224   1.059   7.920  1.0147  2.0597  0.8956
   96SAPS   C33 9560   3.308   0.984   7.172  0.9395 -0.4524  0.4796
   96SAPS   H3X 9561   3.215   0.927   7.193  0.2957  0.6448  0.6338
   96SAPS   H3Y 9562   3.271   1.076   7.123  1.7295 -0.1626  0.4089
   96SAPS   C34 9563   3.387   1.009   7.300  0.1111  0.3848 -0.2817
   96SAPS   H4X 9564   3.482   1.067   7.301  0.9151 -0.8761  1.1317
   96SAPS   H4Y 9565   3.434   0.918   7.343 -1.1272  0.6274  1.7208
   96SAPS   C35 9566   3.297   1.077   7.404  0.5607 -0.8731  0.0505
   96SAPS   H5X 9567   3.202   1.020   7.416 -0.7083  1.3416  1.4058
   96SAPS   H5Y 9568   3.260   1.178   7.375  0.0681 -1.3770 -1.1548
   96SAPS   C36 9569   3.351   1.090   7.548 -0.3666  0.3387  0.3064
   96SAPS   H6X 9570   3.436   1.161   7.544  2.0784 -2.3667 -4.4383
   96SAPS   H6Y 9571   3.385   0.987   7.571 -0.0237  0.4225  0.1770
   96SAPS   C37 9572   3.251   1.136   7.651 -0.1970  0.7230  0.3431
   96SAPS   H7X 9573   3.165   1.067   7.648 -0.0787  0.4961  1.5627
   96SAPS   H7Y 9574   3.219   1.240   7.628 -1.3939  0.8587  2.3467
   96SAPS   C38 9575   3.319   1.132   7.795  0.6892 -0.5115 -0.6504
   96SAPS   H8X 9576   3.423   1.168   7.785  0.4228  0.1357 -1.1285
   96SAPS   H8Y 9577   3.317   1.028   7.834  1.3182 -0.7245 -1.1707
   96SAPS   C39 9578   3.242   1.224   7.895  0.1439  0.8742 -1.1035
   96SAPS   H9X 9579   3.256   1.330   7.864 -1.8687  0.7975 -2.4853
   96SAPS   H9Y 9580   3.279   1.212   7.999 -2.0428  1.0267 -0.2523
   96SAPS  C310 9581   3.087   1.206   7.905  0.4110  0.4972 -0.2471
   96SAPS  H10X 9582   3.051   1.199   7.801  0.5807 -0.2038 -0.2657
   96SAPS  H10Y 9583   3.047   1.292   7.963  1.6053 -0.6463  2.4359
   96SAPS  C311 9584   3.037   1.073   7.977 -0.2118  0.2536  0.2272
   96SAPS  H11X 9585   3.065   0.985   7.915  1.2586  1.4515 -0.8855
   96SAPS  H11Y 9586   2.927   1.084   7.992 -0.1685  1.7408 -0.4477
   96SAPS  C312 9587   3.088   1.048   8.124  0.2974  0.5537  0.0222
   96SAPS  H12X 9588   3.058   1.135   8.186 -0.8700  1.1310 -1.2970
   96SAPS  H12Y 9589   3.199   1.041   8.113  0.2165  1.3378 -1.7145
   96SAPS  C313 9590   3.048   0.920   8.185 -0.5235 -0.0732  0.4815
   96SAPS  H13X 9591   3.088   0.846   8.113 -1.6256  1.5775 -1.9618
   96SAPS  H13Y 9592   2.938   0.921   8.197 -0.7883  1.9768 -1.4297
   96SAPS  C314 9593   3.107   0.916   8.329  0.1863  0.5380 -0.3068
   96SAPS  H14X 9594   3.068   1.004   8.384 -0.3408 -0.6855  1.3506
   96SAPS  H14Y 9595   3.216   0.915   8.304 -0.1592 -2.8903 -2.3422
   96SAPS  C315 9596   3.070   0.788   8.411  0.0955 -0.2668 -0.4557
   96SAPS  H15X 9597   2.960   0.784   8.428 -0.0690  0.6928 -1.2363
   96SAPS  H15Y 9598   3.122   0.789   8.509  1.0199  2.3118 -0.8882
   96SAPS  C316 9599   3.118   0.660   8.341  0.5233 -0.2201 -0.2690
   96SAPS  H16X 9600   3.228   0.649   8.331  0.4893 -0.8961  0.0698
   96SAPS  H16Y 9601   3.081   0.679   8.238  1.1299  1.5135 -0.2087
   96SAPS  C317 9602   3.069   0.529   8.399 -0.3239 -0.0419  0.6626
   96SAPS  H17X 9603   2.958   0.527   8.391 -0.3507 -0.1710  1.0417
   96SAPS  H17Y 9604   3.089   0.519   8.507 -1.0025 -1.9720  0.6478
   96SAPS  C318 9605   3.134   0.413   8.330  0.0239  0.5224 -0.5151
   96SAPS  H18X 9606   3.064   0.356   8.266 -0.7328  0.9189 -0.0575
   96SAPS  H18Y 9607   3.177   0.348   8.409  0.8193  1.9827  0.2979
   96SAPS  H18Z 9608   3.220   0.441   8.265  0.7048 -1.0818 -0.3401
   97SAPS     N 9609   1.434   4.870   6.196  0.5955 -0.6438 -0.0716
   97SAPS   HN1 9610   1.448   4.850   6.095 -0.8500 -0.7814 -0.2665
   97SAPS   HN2 9611   1.529   4.869   6.237  0.7634  0.9551 -0.3598
   97SAPS   HN3 9612   1.378   4.799   6.247  2.5484 -1.2365  1.3292
   97SAPS   C12 9613   1.367   5.005   6.196  0.2994  0.1974  0.3084
   97SAPS  H12A 9614   1.427   5.089   6.163 -0.3594  0.7057  0.3685
   97SAPS   C13 9615   1.244   5.008   6.092 -0.2196  0.2046  0.2633
   97SAPS  O13A 9616   1.202   4.903   6.034  0.7394 -0.2616  0.2022
   97SAPS  O13B 9617   1.180   5.116   6.080 -0.0670  0.0949 -0.3373
   97SAPS   C11 9618   1.325   5.037   6.344 -0.0879 -0.4111 -0.3616
   97SAPS  H11A 9619   1.251   4.961   6.378  0.5657 -0.7989  0.2176
   97SAPS  H11B 9620   1.276   5.136   6.346  2.2580  0.8933 -2.1965
   97SAPS     P 9621   1.447   5.104   6.567 -0.1845 -0.1966 -0.0249
   97SAPS   O13 9622   1.549   5.058   6.669  0.6877 -0.2208  0.1657
   97SAPS   O14 9623   1.479   5.237   6.515 -0.0347  0.2131 -0.0152
   97SAPS   O12 9624   1.439   5.014   6.438 -0.2226  0.0464  0.1623
   97SAPS   O11 9625   1.303   5.092   6.635 -0.1580 -0.2750  0.4196
   97SAPS    C1 9626   1.195   5.184   6.615  0.2588  0.3750  0.4707
   97SAPS    HA 9627   1.212   5.263   6.539 -0.9806  0.8938  0.7043
   97SAPS    HB 9628   1.107   5.130   6.574 -0.2849  1.4336  0.1807
   97SAPS    C2 9629   1.144   5.255   6.749  0.2581  0.5227 -0.0138
   97SAPS    HS 9630   1.208   5.343   6.772  2.8751 -1.1974 -0.2854
   97SAPS   O21 9631   1.166   5.151   6.854  0.0585 -0.7048 -0.0278
   97SAPS   C21 9632   1.222   5.189   6.965 -0.1608 -0.9256 -0.6839
   97SAPS   O22 9633   1.269   5.302   6.988  0.2546 -0.4383  0.4919
   97SAPS   C22 9634   1.208   5.075   7.073 -0.0622 -0.5388  0.2114
   97SAPS   H2R 9635   1.182   5.129   7.166 -0.3398 -1.7283  0.8460
   97SAPS   H2S 9636   1.128   5.002   7.048 -0.3640 -0.4205  0.8102
   97SAPS    C3 9637   0.995   5.302   6.749 -0.2380  0.2843 -0.0390
   97SAPS    HX 9638   0.937   5.211   6.722  0.6279 -0.9909  2.1668
   97SAPS    HY 9639   0.984   5.381   6.671 -0.8977  0.5062  0.2781
   97SAPS   O31 9640   0.943   5.334   6.873 -0.3293 -0.2600  0.1850
   97SAPS   C31 9641   0.875   5.447   6.873  0.5140 -0.2868  0.0889
   97SAPS   O32 9642   0.839   5.513   6.778 -0.6359 -0.5474 -0.4967
   97SAPS   C32 9643   0.856   5.495   7.017 -0.4871 -0.1003 -0.4671
   97SAPS   H2X 9644   0.955   5.511   7.065 -2.3323  4.1406  2.6389
   97SAPS   H2Y 9645   0.799   5.422   7.078  2.0497 -0.9150  1.0865
   97SAPS   C23 9646   1.343   4.999   7.081 -0.2127  0.0476  0.4949
   97SAPS   H3R 9647   1.427   5.069   7.104  2.1122 -1.7617 -1.7766
   97SAPS   H3S 9648   1.365   4.953   6.982  2.2534  2.5383 -0.2828
   97SAPS   C24 9649   1.359   4.889   7.186  0.0157 -0.4220 -0.1237
   97SAPS   H4R 9650   1.355   4.941   7.284  1.0010 -1.1489  0.3279
   97SAPS   H4S 9651   1.466   4.860   7.193 -0.1505 -0.8037  1.0542
   97SAPS   C25 9652   1.264   4.774   7.188 -0.9626 -0.2235  0.4675
   97SAPS   H5R 9653   1.234   4.739   7.088 -2.2456 -0.1391  0.7967
   97SAPS   C26 9654   1.188   4.734   7.296  0.4067  0.0575 -0.5776
   97SAPS   H6R 9655   1.127   4.644   7.281  1.6083 -1.1766  1.3812
   97SAPS   C27 9656   1.205   4.779   7.438 -0.9970  0.1921  0.1011
   97SAPS   H7R 9657   1.118   4.756   7.504 -0.9817  2.2311  0.8954
   97SAPS   H7S 9658   1.189   4.888   7.429 -1.0279  0.1650 -0.1765
   97SAPS   C28 9659   1.342   4.768   7.507 -0.0326 -0.2340  0.4502
   97SAPS   H8R 9660   1.430   4.796   7.447 -0.9318  0.8649 -0.4045
   97SAPS   C29 9661   1.362   4.735   7.636  0.7107  0.1181 -0.3673
   97SAPS   H9R 9662   1.468   4.729   7.664  0.2406  1.4294  2.0643
   97SAPS  C210 9663   1.260   4.719   7.746 -0.4581  1.3381  0.9226
   97SAPS  H10R 9664   1.284   4.636   7.815 -1.2443 -0.3177 -0.7278
   97SAPS  H10S 9665   1.165   4.686   7.700 -0.4037  3.5710 -1.0049
   97SAPS  C211 9666   1.225   4.843   7.817 -0.0639  0.2251 -0.5514
   97SAPS  H11R 9667   1.271   4.933   7.773 -0.5866  0.3547 -0.8370
   97SAPS  C212 9668   1.143   4.863   7.923  0.3162  0.0233  0.5215
   97SAPS  H12R 9669   1.122   4.968   7.951 -2.0850  0.4034 -2.2460
   97SAPS  C213 9670   1.081   4.745   7.994  0.7547  0.4156 -1.0970
   97SAPS  H13R 9671   1.165   4.697   8.050 -1.1455 -0.8812  0.8259
   97SAPS  H13S 9672   1.020   4.678   7.929 -1.4316  0.1073  1.0885
   97SAPS  C214 9673   0.970   4.778   8.097 -0.4735  0.3560 -0.1195
   97SAPS  H14R 9674   0.887   4.832   8.050  0.7845 -0.2050 -3.2662
   97SAPS  C215 9675   0.982   4.756   8.228  0.8324  0.3559 -0.0162
   97SAPS  H15R 9676   0.894   4.777   8.290  0.5575  0.8759 -0.5700
   97SAPS  C216 9677   1.095   4.690   8.302 -0.5930  0.7294 -0.3664
   97SAPS  H16R 9678   1.191   4.711   8.250  0.1561 -1.5630 -0.0294
   97SAPS  H16S 9679   1.076   4.581   8.313  1.1495  0.4592  0.2920
   97SAPS  C217 9680   1.125   4.749   8.445  0.2771  0.5136  0.4674
   97SAPS  H17R 9681   1.205   4.686   8.489 -1.9874 -2.9627 -0.0148
   97SAPS  H17S 9682   1.029   4.748   8.500 -0.7076 -2.9678 -1.0472
   97SAPS  C218 9683   1.176   4.894   8.435  0.2935  0.5426 -0.5172
   97SAPS  H18R 9684   1.093   4.968   8.436 -1.4376 -1.2347  2.5234
   97SAPS  H18S 9685   1.234   4.905   8.341  0.0101 -0.2082 -0.7845
   97SAPS  C219 9686   1.258   4.932   8.562  0.3355 -0.5045 -0.4740
   97SAPS  H19R 9687   1.302   5.034   8.554  0.5540 -0.3738  1.7795
   97SAPS  H19S 9688   1.341   4.859   8.572  1.8105  0.7514 -2.6101
   97SAPS  C220 9689   1.176   4.925   8.694  0.0791  0.1781 -0.7632
   97SAPS  H20R 9690   1.143   4.826   8.733  1.2578  0.9858  2.5666
   97SAPS  H20S 9691   1.084   4.985   8.680 -0.9664 -0.9901  0.6841
   97SAPS  H20T 9692   1.231   4.969   8.779 -1.1885 -0.2354  0.3093
   97SAPS   C33 9693   0.793   5.633   7.033 -0.2130 -0.8111 -0.5148
   97SAPS   H3X 9694   0.699   5.647   6.976  1.4910  1.7416 -2.9983
   97SAPS   H3Y 9695   0.865   5.705   6.988  0.6104 -1.2422  0.0762
   97SAPS   C34 9696   0.759   5.677   7.179  0.3565 -0.4381 -0.1323
   97SAPS   H4X 9697   0.706   5.595   7.233  0.6007 -0.3773  0.2033
   97SAPS   H4Y 9698   0.695   5.768   7.181 -1.3163 -1.5407 -1.0002
   97SAPS   C35 9699   0.875   5.702   7.273 -0.4042  0.8874  0.4120
   97SAPS   H5X 9700   0.939   5.780   7.227  2.1748 -0.7916  0.9318
   97SAPS   H5Y 9701   0.942   5.614   7.273  1.3994  2.1736 -1.1128
   97SAPS   C36 9702   0.837   5.739   7.409  0.2069 -0.2095  0.0579
   97SAPS   H6X 9703   0.778   5.657   7.457 -1.3550  2.1365  2.4705
   97SAPS   H6Y 9704   0.760   5.819   7.410  0.6066  0.1804  0.0063
   97SAPS   C37 9705   0.948   5.772   7.510  0.1009 -0.9482  0.4976
   97SAPS   H7X 9706   0.975   5.880   7.501 -3.0157 -0.0568  0.7291
   97SAPS   H7Y 9707   1.043   5.715   7.504  1.0559  0.5852  0.2823
   97SAPS   C38 9708   0.887   5.770   7.647  0.1502  0.1590 -0.3564
   97SAPS   H8X 9709   0.797   5.834   7.650 -0.3027 -0.2193 -3.2074
   97SAPS   H8Y 9710   0.964   5.805   7.720 -2.1626  0.3535  2.1266
   97SAPS   C39 9711   0.834   5.634   7.709  0.2120 -0.4457 -0.3791
   97SAPS   H9X 9712   0.921   5.566   7.717  0.7884  0.3251  0.0780
   97SAPS   H9Y 9713   0.749   5.590   7.653  1.8226 -5.1329  0.4740
   97SAPS  C310 9714   0.769   5.651   7.843  0.4384  0.2275  0.0269
   97SAPS  H10X 9715   0.739   5.554   7.886  0.5671  0.5834  0.9527
   97SAPS  H10Y 9716   0.682   5.719   7.834  0.2381 -0.0111  0.1849
   97SAPS  C311 9717   0.856   5.714   7.948 -0.5712  0.5643 -0.0552
   97SAPS  H11X 9718   0.884   5.818   7.921 -1.1335  0.8282  0.3568
   97SAPS  H11Y 9719   0.955   5.668   7.969 -0.8862 -0.1874 -0.1820
   97SAPS  C312 9720   0.790   5.721   8.090 -0.0974 -0.1785 -0.4721
   97SAPS  H12X 9721   0.786   5.611   8.109 -1.5465 -0.0165  0.2904
   97SAPS  H12Y 9722   0.689   5.767   8.095  0.4731  0.9753  1.5030
   97SAPS  C313 9723   0.891   5.788   8.175 -0.2637  0.0288  0.0498
   97SAPS  H13X 9724   0.888   5.895   8.145  0.0195  0.8082  2.5797
   97SAPS  H13Y 9725   0.992   5.747   8.155 -0.5024 -1.6349  1.9114
   97SAPS  C314 9726   0.865   5.787   8.324  0.4053  0.0145 -0.0918
   97SAPS  H14X 9727   0.842   5.684   8.357  1.6316  0.2208  1.5729
   97SAPS  H14Y 9728   0.778   5.854   8.339  1.6116  1.7784 -0.5859
   97SAPS  C315 9729   0.981   5.838   8.410  0.5769 -0.0739 -0.1783
   97SAPS  H15X 9730   0.944   5.831   8.514 -1.3628 -0.0923 -0.8361
   97SAPS  H15Y 9731   1.000   5.945   8.386  0.8872  0.0079  0.4026
   97SAPS  C316 9732   1.110   5.767   8.396  0.0917  0.3966 -0.1662
   97SAPS  H16X 9733   1.153   5.794   8.297  2.0451 -1.4929  0.0778
   97SAPS  H16Y 9734   1.093   5.657   8.401  0.5056  0.2519 -1.5141
   97SAPS  C317 9735   1.218   5.814   8.494  0.3009  0.6798 -0.2562
   97SAPS  H17X 9736   1.194   5.764   8.590  1.5327 -1.4712 -0.9950
   97SAPS  H17Y 9737   1.212   5.925   8.505 -1.7685  0.4277  1.8118
   97SAPS  C318 9738   1.364   5.786   8.460 -0.2622  0.2076  0.0766
   97SAPS  H18X 9739   1.430   5.818   8.544 -0.4236  1.4601 -0.2466
   97SAPS  H18Y 9740   1.395   5.850   8.374 -1.7396  2.6197  1.2426
   97SAPS  H18Z 9741   1.380   5.678   8.439 -0.8512  0.1473 -0.0854
   98SAPS     N 9742   1.517   5.934   6.555  0.1314 -0.3835  0.4520
   98SAPS   HN1 9743   1.436   5.912   6.616 -2.7667 -1.3150 -3.4104
   98SAPS   HN2 9744   1.577   5.851   6.534 -0.1817 -0.7408  0.9324
   98SAPS   HN3 9745   1.577   6.002   6.607 -0.3418 -1.3421  2.3734
   98SAPS   C12 9746   1.471   6.001   6.430 -0.2042 -0.0682  0.2274
   98SAPS  H12A 9747   1.409   6.082   6.465  2.3261  1.3936  1.5218
   98SAPS   C13 9748   1.579   6.065   6.343 -0.2754 -0.5314 -0.3448
   98SAPS  O13A 9749   1.700   6.032   6.358  0.4789  0.1560  0.1561
   98SAPS  O13B 9750   1.546   6.121   6.235 -0.5037 -0.4297 -0.0742
   98SAPS   C11 9751   1.386   5.903   6.346 -1.0986  0.2726 -0.0688
   98SAPS  H11A 9752   1.456   5.825   6.309  2.3129  2.2874  1.6252
   98SAPS  H11B 9753   1.328   5.958   6.269 -2.0791 -2.3350 -1.3037
   98SAPS     P 9754   1.177   5.756   6.373 -0.2756  0.6119 -0.1616
   98SAPS   O13 9755   1.155   5.792   6.234 -0.3004 -0.5710  0.4519
   98SAPS   O14 9756   1.200   5.612   6.407  0.3402  0.5629 -0.1574
   98SAPS   O12 9757   1.292   5.840   6.432 -0.9753 -0.0850  0.2921
   98SAPS   O11 9758   1.048   5.795   6.453 -0.0625  0.2396  0.0968
   98SAPS    C1 9759   1.025   5.942   6.478 -0.4703  0.6443  0.0996
   98SAPS    HA 9760   1.056   6.001   6.390 -0.0394  0.4216  0.0993
   98SAPS    HB 9761   0.915   5.953   6.473 -0.5835 -0.4359  0.0589
   98SAPS    C2 9762   1.079   6.001   6.612 -1.2547 -0.4520 -0.0281
   98SAPS    HS 9763   1.180   6.040   6.588 -1.3276  0.6960  1.4292
   98SAPS   O21 9764   1.080   5.900   6.712 -0.1667 -0.6248  0.4384
   98SAPS   C21 9765   1.198   5.859   6.753  0.3207  0.2270  0.4344
   98SAPS   O22 9766   1.312   5.883   6.710 -0.1051 -0.2365 -0.1626
   98SAPS   C22 9767   1.166   5.768   6.871  0.0823 -0.2840 -0.6162
   98SAPS   H2R 9768   1.056   5.760   6.878 -0.0176  1.7002  1.5407
   98SAPS   H2S 9769   1.203   5.666   6.851  0.2861 -0.0909 -1.2332
   98SAPS    C3 9770   0.995   6.126   6.666 -0.2196 -0.0188  0.8104
   98SAPS    HX 9771   0.992   6.211   6.595 -1.0461 -1.4204 -0.9055
   98SAPS    HY 9772   1.050   6.162   6.756  0.0196 -0.9106  1.0347
   98SAPS   O31 9773   0.864   6.087   6.702 -0.0696 -0.8756 -0.0935
   98SAPS   C31 9774   0.824   6.145   6.818 -0.5614  0.8250  0.3277
   98SAPS   O32 9775   0.889   6.217   6.891 -0.3563  0.4905  0.1240
   98SAPS   C32 9776   0.691   6.085   6.868 -0.1542 -0.0243 -0.0246
   98SAPS   H2X 9777   0.687   5.981   6.829 -0.2950 -0.2859  0.6742
   98SAPS   H2Y 9778   0.605   6.131   6.814  0.2664  0.5586 -0.2122
   98SAPS   C23 9779   1.225   5.833   7.008 -0.8074 -0.0728  0.6953
   98SAPS   H3R 9780   1.194   5.777   7.098 -1.2542  0.6666  1.0114
   98SAPS   H3S 9781   1.172   5.930   7.016 -1.1536  0.0553 -2.1551
   98SAPS   C24 9782   1.378   5.849   7.017 -0.3516  0.0613 -0.8628
   98SAPS   H4R 9783   1.412   5.894   7.112  2.0392 -0.9074 -1.1833
   98SAPS   H4S 9784   1.414   5.931   6.952 -1.0409  1.6334  0.6682
   98SAPS   C25 9785   1.453   5.718   7.011 -0.6537 -0.0517  0.2279
   98SAPS   H5R 9786   1.486   5.688   6.911  2.4278 -0.2196  1.1821
   98SAPS   C26 9787   1.502   5.645   7.114  0.7757  0.3269 -0.4746
   98SAPS   H6R 9788   1.551   5.549   7.094 -0.2848 -0.4188  0.3881
   98SAPS   C27 9789   1.488   5.677   7.266 -0.0204 -0.5469  0.3422
   98SAPS   H7R 9790   1.438   5.771   7.299 -0.0466 -0.7632  0.9284
   98SAPS   H7S 9791   1.588   5.682   7.313 -0.2935 -1.5685  1.0692
   98SAPS   C28 9792   1.414   5.555   7.335  0.8356  0.1197  0.7102
   98SAPS   H8R 9793   1.415   5.461   7.278 -0.0143  0.5084  0.0387
   98SAPS   C29 9794   1.369   5.550   7.458  0.6124 -0.1982 -0.3641
   98SAPS   H9R 9795   1.341   5.451   7.498  0.3718  0.3747  0.9279
   98SAPS  C210 9796   1.364   5.674   7.547  0.6413  0.2838 -0.7529
   98SAPS  H10R 9797   1.273   5.724   7.506  1.4029  1.9515 -0.4895
   98SAPS  H10S 9798   1.455   5.738   7.543 -0.9781  2.6937 -1.2460
   98SAPS  C211 9799   1.341   5.640   7.695 -0.2204  0.1402  0.3813
   98SAPS  H11R 9800   1.334   5.534   7.724  2.7682 -0.2782 -0.0825
   98SAPS  C212 9801   1.336   5.727   7.800 -0.9912  0.2240 -0.0935
   98SAPS  H12R 9802   1.292   5.691   7.894 -2.6025 -1.4636 -1.4075
   98SAPS  C213 9803   1.348   5.882   7.791 -0.1365 -0.1927  0.0261
   98SAPS  H13R 9804   1.382   5.905   7.687  1.6940  2.8916  1.1728
   98SAPS  H13S 9805   1.427   5.932   7.852  1.3635 -0.2499 -1.7703
   98SAPS  C214 9806   1.211   5.945   7.815 -0.1122 -0.4963 -0.8661
   98SAPS  H14R 9807   1.145   5.893   7.886  2.2741 -1.9758  0.3914
   98SAPS  C215 9808   1.178   6.066   7.759  0.6609  0.3999  0.4964
   98SAPS  H15R 9809   1.074   6.100   7.768  0.3357 -0.7636  1.4951
   98SAPS  C216 9810   1.266   6.156   7.673 -0.2483 -0.0127  0.0805
   98SAPS  H16R 9811   1.375   6.143   7.689  0.3722  2.8656 -1.2437
   98SAPS  H16S 9812   1.234   6.256   7.707 -2.8380 -0.9972  0.7601
   98SAPS  C217 9813   1.251   6.148   7.524 -0.4667 -0.6805 -0.0857
   98SAPS  H17R 9814   1.277   6.047   7.484  1.8733 -0.5294  0.8632
   98SAPS  H17S 9815   1.311   6.221   7.464 -2.6765  1.4058  0.0924
   98SAPS  C218 9816   1.109   6.174   7.477  0.4989  0.1363  0.1117
   98SAPS  H18R 9817   1.085   6.276   7.516 -0.5177 -0.4338  1.0218
   98SAPS  H18S 9818   1.033   6.099   7.506 -1.2561  0.9842 -2.0529
   98SAPS  C219 9819   1.109   6.186   7.324 -0.7699 -0.8238 -0.1409
   98SAPS  H19R 9820   1.161   6.091   7.297 -1.0595 -0.4050 -2.3946
   98SAPS  H19S 9821   1.194   6.250   7.293 -0.3788 -1.5841 -0.6697
   98SAPS  C220 9822   0.978   6.205   7.252  0.2854  0.3375 -0.1371
   98SAPS  H20R 9823   0.909   6.121   7.278 -0.3071  0.6085 -0.7714
   98SAPS  H20S 9824   0.984   6.212   7.141 -1.9728  0.5881 -0.2944
   98SAPS  H20T 9825   0.922   6.300   7.268  1.4642  1.1521 -0.6830
   98SAPS   C33 9826   0.662   6.088   7.021  0.2443 -0.8688  0.5552
   98SAPS   H3X 9827   0.752   6.083   7.086  0.1895 -0.1203  0.6971
   98SAPS   H3Y 9828   0.591   6.007   7.049  0.4270  0.0499  4.1162
   98SAPS   C34 9829   0.594   6.229   7.061 -0.1852  0.6805 -0.4484
   98SAPS   H4X 9830   0.534   6.262   6.974 -1.0295  0.7159  0.1391
   98SAPS   H4Y 9831   0.675   6.303   7.077 -0.6771  0.9828  0.7262
   98SAPS   C35 9832   0.487   6.212   7.168 -0.4260 -0.3328  0.4751
   98SAPS   H5X 9833   0.407   6.142   7.134  0.0490  0.2605 -2.1126
   98SAPS   H5Y 9834   0.443   6.314   7.167 -1.4805 -0.7638  1.2705
   98SAPS   C36 9835   0.545   6.173   7.306  0.0821  0.5375 -0.4156
   98SAPS   H6X 9836   0.650   6.208   7.307  0.6811 -1.1868 -0.1669
   98SAPS   H6Y 9837   0.541   6.062   7.313  0.4226  0.5026 -0.7451
   98SAPS   C37 9838   0.476   6.216   7.436  1.0301  0.0349  0.1940
   98SAPS   H7X 9839   0.402   6.137   7.459  0.1981  1.1354  1.4494
   98SAPS   H7Y 9840   0.426   6.314   7.418  0.0127 -0.3470  0.8388
   98SAPS   C38 9841   0.560   6.223   7.567 -0.2407  0.5855  0.0316
   98SAPS   H8X 9842   0.489   6.259   7.645  0.2147  0.6183  0.4325
   98SAPS   H8Y 9843   0.651   6.285   7.554 -0.1831  0.2570 -1.3019
   98SAPS   C39 9844   0.608   6.088   7.613  0.4872  0.3439 -0.0003
   98SAPS   H9X 9845   0.674   6.035   7.541 -0.5557 -1.1788  0.1057
   98SAPS   H9Y 9846   0.521   6.019   7.615 -0.7085  1.7919 -0.8477
   98SAPS  C310 9847   0.679   6.091   7.751 -0.0590  0.7344  0.1971
   98SAPS  H10X 9848   0.780   6.134   7.733 -0.0471  0.5029 -0.3030
   98SAPS  H10Y 9849   0.708   5.987   7.780 -0.6239 -0.4519 -3.0892
   98SAPS  C311 9850   0.603   6.155   7.867  0.7658  0.0618  0.3845
   98SAPS  H11X 9851   0.507   6.104   7.890  1.1646 -0.7402  0.3327
   98SAPS  H11Y 9852   0.580   6.259   7.837 -1.1864 -0.4407  0.0066
   98SAPS  C312 9853   0.680   6.145   8.004 -0.7418 -0.3367 -0.6147
   98SAPS  H12X 9854   0.726   6.245   8.024  0.9759 -0.9820 -1.1312
   98SAPS  H12Y 9855   0.760   6.068   8.005 -1.1960 -0.8102 -0.3542
   98SAPS  C313 9856   0.587   6.100   8.122  0.2411 -0.3573  0.0338
   98SAPS  H13X 9857   0.578   5.989   8.132  1.2895 -0.3153  1.6740
   98SAPS  H13Y 9858   0.486   6.146   8.112 -1.1706 -3.1612  0.1989
   98SAPS  C314 9859   0.639   6.149   8.255 -0.6515 -0.1402  0.0801
   98SAPS  H14X 9860   0.634   6.260   8.263  2.1811  0.2083 -1.4147
   98SAPS  H14Y 9861   0.749   6.131   8.256 -0.7228 -0.7185 -1.1400
   98SAPS  C315 9862   0.573   6.088   8.380  0.0080 -0.0119  0.8350
   98SAPS  H15X 9863   0.594   5.980   8.369 -0.5724  0.0783 -1.6825
   98SAPS  H15Y 9864   0.463   6.086   8.367  0.1281  1.8561 -1.0243
   98SAPS  C316 9865   0.604   6.153   8.512 -0.3042 -0.7788 -0.7944
   98SAPS  H16X 9866   0.554   6.090   8.589 -1.7549  1.0759 -0.1329
   98SAPS  H16Y 9867   0.551   6.250   8.525 -1.6637 -1.6021  0.1333
   98SAPS  C317 9868   0.757   6.163   8.545 -0.7477 -0.8526  0.3655
   98SAPS  H17X 9869   0.804   6.250   8.493 -0.3509  0.4856  2.7924
   98SAPS  H17Y 9870   0.813   6.073   8.514 -0.5237 -0.6441  0.1593
   98SAPS  C318 9871   0.785   6.194   8.698  0.2521  0.2187  0.3848
   98SAPS  H18X 9872   0.740   6.293   8.720  0.3324  0.6155 -1.1229
   98SAPS  H18Y 9873   0.895   6.202   8.710  0.1296  0.1386  1.6745
   98SAPS  H18Z 9874   0.739   6.115   8.762 -1.8103  2.7196  2.2156
   99SAPS     N 9875   6.039   4.144   6.138  0.3001  0.1916  0.2198
   99SAPS   HN1 9876   6.009   4.231   6.186 -0.3982  0.1427 -0.1158
   99SAPS   HN2 9877   6.103   4.154   6.057  0.8470  0.7739  0.7049
   99SAPS   HN3 9878   5.960   4.097   6.090 -0.3429  0.7928  0.6622
   99SAPS   C12 9879   6.104   4.050   6.231  0.1127  0.1636  0.6928
   99SAPS  H12A 9880   6.028   4.019   6.302  0.9952 -1.5439  0.9410
   99SAPS   C13 9881   6.159   3.924   6.160 -0.2167  0.7380 -0.7338
   99SAPS  O13A 9882   6.153   3.917   6.034 -0.5267 -0.4294  0.1085
   99SAPS  O13B 9883   6.190   3.816   6.225 -0.3522 -0.1675 -0.1986
   99SAPS   C11 9884   6.214   4.121   6.310 -0.3766  0.1734  0.0799
   99SAPS  H11A 9885   6.312   4.098   6.261 -1.6773  0.4198 -2.8718
   99SAPS  H11B 9886   6.209   4.086   6.415 -1.1170 -0.3096 -0.1122
   99SAPS     P 9887   6.272   4.391   6.291 -0.3771  0.2726 -0.0669
   99SAPS   O13 9888   6.392   4.356   6.209  0.2905 -0.3918  0.3654
   99SAPS   O14 9889   6.187   4.495   6.242 -0.0011 -0.1200 -0.4543
   99SAPS   O12 9890   6.185   4.264   6.322 -0.1699 -0.2676 -0.0153
   99SAPS   O11 9891   6.333   4.415   6.439  0.0575 -0.3560 -0.4790
   99SAPS    C1 9892   6.265   4.402   6.564 -0.1675 -0.1263  0.1898
   99SAPS    HA 9893   6.159   4.433   6.551 -0.6419 -1.6183  0.2989
   99SAPS    HB 9894   6.254   4.296   6.594 -1.0749  0.4470  2.0594
   99SAPS    C2 9895   6.326   4.480   6.684  0.3019 -0.1626  0.5947
   99SAPS    HS 9896   6.328   4.585   6.648  0.2456 -0.3513  0.0178
   99SAPS   O21 9897   6.463   4.432   6.699  0.3750 -0.1526  0.7327
   99SAPS   C21 9898   6.547   4.526   6.728  0.0843  0.4541  0.1205
   99SAPS   O22 9899   6.521   4.643   6.750  0.6061  0.7246 -0.0074
   99SAPS   C22 9900   6.688   4.458   6.735  1.5223 -0.6298 -0.2603
   99SAPS   H2R 9901   6.675   4.349   6.720 -0.2439 -0.5356  0.3568
   99SAPS   H2S 9902   6.743   4.500   6.648  1.5266  1.2719  0.6102
   99SAPS    C3 9903   6.247   4.470   6.821  0.0531 -0.6450 -0.1622
   99SAPS    HX 9904   6.141   4.501   6.813 -0.4450 -1.7934  1.3887
   99SAPS    HY 9905   6.298   4.541   6.889 -2.1521 -2.0421  3.1891
   99SAPS   O31 9906   6.254   4.334   6.860  0.5234 -0.6784  0.3943
   99SAPS   C31 9907   6.147   4.259   6.842 -0.2658 -0.6037  0.1529
   99SAPS   O32 9908   6.044   4.293   6.787 -0.4952  0.1008  1.1086
   99SAPS   C32 9909   6.180   4.118   6.896 -0.7438 -0.4938  0.4266
   99SAPS   H2X 9910   6.289   4.119   6.920 -0.8682  4.2475  1.6940
   99SAPS   H2Y 9911   6.162   4.045   6.815  0.9303  0.2646 -0.6922
   99SAPS   C23 9912   6.782   4.490   6.858  0.0109 -0.8286  0.3250
   99SAPS   H3R 9913   6.822   4.593   6.869 -1.4641 -0.4097  2.7626
   99SAPS   H3S 9914   6.871   4.426   6.841 -0.5541 -0.9373 -2.7081
   99SAPS   C24 9915   6.717   4.461   6.989 -0.4726  0.2335  0.2768
   99SAPS   H4R 9916   6.621   4.517   6.995 -0.7330  0.1356 -2.1020
   99SAPS   H4S 9917   6.780   4.493   7.075 -0.1692  3.0364 -0.9036
   99SAPS   C25 9918   6.674   4.319   7.007 -0.4676 -1.0787  0.0398
   99SAPS   H5R 9919   6.669   4.261   6.914  1.1184 -1.7784  0.3563
   99SAPS   C26 9920   6.640   4.260   7.128  0.0405 -0.3038  0.9977
   99SAPS   H6R 9921   6.599   4.158   7.134  0.4492 -0.4950  0.6455
   99SAPS   C27 9922   6.624   4.333   7.258  0.0169 -0.0747  0.4125
   99SAPS   H7R 9923   6.691   4.421   7.270 -0.2775  0.2633 -0.2988
   99SAPS   H7S 9924   6.638   4.255   7.335  0.8999 -1.2370 -0.8790
   99SAPS   C28 9925   6.474   4.383   7.278 -0.5334 -0.1325  0.2217
   99SAPS   H8R 9926   6.428   4.429   7.189  2.0872 -0.4822 -1.4574
   99SAPS   C29 9927   6.410   4.384   7.391 -0.4830  0.1051 -0.0090
   99SAPS   H9R 9928   6.315   4.440   7.392 -0.3145  0.4480 -1.4200
   99SAPS  C210 9929   6.466   4.342   7.528 -1.0266  0.0719 -0.5764
   99SAPS  H10R 9930   6.575   4.359   7.526 -0.3039 -3.4328  0.8718
   99SAPS  H10S 9931   6.459   4.232   7.547 -0.1763  0.4608  2.4569
   99SAPS  C211 9932   6.395   4.401   7.641  0.0510  0.1420  1.1449
   99SAPS  H11R 9933   6.292   4.364   7.652 -0.1920  0.2560 -0.4939
   99SAPS  C212 9934   6.414   4.520   7.703 -0.4791 -0.0405 -0.4141
   99SAPS  H12R 9935   6.351   4.549   7.789 -1.1336  0.6941 -1.1292
   99SAPS  C213 9936   6.520   4.617   7.691  0.0033 -0.3727  0.0019
   99SAPS  H13R 9937   6.590   4.590   7.609  0.3750  1.1581 -0.2198
   99SAPS  H13S 9938   6.581   4.611   7.784 -0.0061  0.2012  0.0546
   99SAPS  C214 9939   6.461   4.759   7.682 -0.6239 -0.9866 -0.5921
   99SAPS  H14R 9940   6.413   4.782   7.587 -2.2064  0.5651  0.5186
   99SAPS  C215 9941   6.436   4.844   7.786 -0.3676  1.0322 -0.1319
   99SAPS  H15R 9942   6.387   4.938   7.757 -0.7813  0.5132 -1.1365
   99SAPS  C216 9943   6.479   4.838   7.931 -0.2790 -0.5061 -0.1491
   99SAPS  H16R 9944   6.544   4.925   7.952  0.0852 -0.4425 -1.4764
   99SAPS  H16S 9945   6.545   4.751   7.953  0.1059  0.4100  2.8690
   99SAPS  C217 9946   6.383   4.821   8.056  0.4496  0.0425  0.0171
   99SAPS  H17R 9947   6.439   4.841   8.150  0.5925  1.3536 -0.3284
   99SAPS  H17S 9948   6.352   4.715   8.066  3.0778 -0.9099 -1.1996
   99SAPS  C218 9949   6.253   4.901   8.038  0.4945 -0.0174  0.7478
   99SAPS  H18R 9950   6.198   4.862   7.950  0.6435  0.3920  0.4682
   99SAPS  H18S 9951   6.288   5.007   8.029 -2.0570  0.8727  0.5317
   99SAPS  C219 9952   6.150   4.894   8.154  0.0550 -0.6675 -0.3945
   99SAPS  H19R 9953   6.206   4.922   8.246 -0.4943 -0.7450 -0.0354
   99SAPS  H19S 9954   6.114   4.790   8.168  1.9733 -1.6382 -2.0837
   99SAPS  C220 9955   6.035   4.987   8.121  0.0580  0.4604 -0.3122
   99SAPS  H20R 9956   6.078   5.087   8.101  0.5576 -0.1457 -2.6081
   99SAPS  H20S 9957   5.957   4.989   8.200  1.1078 -1.2086  0.8308
   99SAPS  H20T 9958   5.988   4.955   8.026  1.8445 -1.7421 -0.5289
   99SAPS   C33 9959   6.096   4.081   7.017  0.2186 -0.7081  0.1643
   99SAPS   H3X 9960   6.092   3.974   7.048 -0.6727 -0.1491  2.1310
   99SAPS   H3Y 9961   5.988   4.096   6.996 -0.1995 -3.3933  0.0081
   99SAPS   C34 9962   6.114   4.170   7.145  0.9938 -0.4547  0.0296
   99SAPS   H4X 9963   6.079   4.274   7.124 -0.9381 -1.5722 -2.8381
   99SAPS   H4Y 9964   6.224   4.167   7.162  0.8779 -0.7777  0.7443
   99SAPS   C35 9965   6.053   4.116   7.275 -0.2412 -0.1997  0.4207
   99SAPS   H5X 9966   6.079   4.008   7.272  1.7028  0.2352 -1.9770
   99SAPS   H5Y 9967   5.943   4.123   7.259  0.0031  0.7759 -1.0798
   99SAPS   C36 9968   6.093   4.181   7.409 -0.3984 -0.4119  0.2574
   99SAPS   H6X 9969   6.046   4.281   7.415 -2.6990 -1.1467 -2.9794
   99SAPS   H6Y 9970   6.204   4.192   7.411 -0.5670  2.0366 -0.2512
   99SAPS   C37 9971   6.027   4.099   7.521 -0.3979  0.2113  0.1413
   99SAPS   H7X 9972   6.073   3.998   7.532  1.1662  1.0170  1.5835
   99SAPS   H7Y 9973   5.919   4.091   7.494 -0.5026  0.7359  0.3843
   99SAPS   C38 9974   6.043   4.156   7.662 -0.5006  0.5048 -0.2435
   99SAPS   H8X 9975   5.998   4.256   7.649 -0.4620  0.5189 -0.2673
   99SAPS   H8Y 9976   6.146   4.164   7.703 -0.2940  1.0594 -0.8592
   99SAPS   C39 9977   5.954   4.077   7.766 -0.6816 -0.8678 -0.0333
   99SAPS   H9X 9978   5.997   3.976   7.788 -0.0434 -0.1374  2.3007
   99SAPS   H9Y 9979   5.854   4.060   7.720 -0.4207  3.9563 -3.0236
   99SAPS  C310 9980   5.926   4.152   7.892 -0.1467 -0.2875 -0.1084
   99SAPS  H10X 9981   5.869   4.246   7.872 -1.5634 -1.3656 -1.3859
   99SAPS  H10Y 9982   6.021   4.180   7.942 -0.3568 -3.4096  2.3335
   99SAPS  C311 9983   5.846   4.079   7.998 -0.2340  0.3140 -0.2109
   99SAPS  H11X 9984   5.825   4.146   8.084 -0.0781 -0.2508  0.2728
   99SAPS  H11Y 9985   5.901   3.985   8.021 -0.2728  0.2981 -0.1847
   99SAPS  C312 9986   5.713   4.024   7.943  0.0268 -0.4665 -0.8949
   99SAPS  H12X 9987   5.730   3.941   7.870 -1.3411 -0.3863 -1.3392
   99SAPS  H12Y 9988   5.660   4.107   7.892 -1.9491 -1.2685 -0.2781
   99SAPS  C313 9989   5.610   3.990   8.052 -0.2257 -0.2794  0.3461
   99SAPS  H13X 9990   5.516   3.977   7.993 -0.2640 -2.8795  0.8531
   99SAPS  H13Y 9991   5.607   4.080   8.116  2.7035  0.0716  0.0991
   99SAPS  C314 9992   5.636   3.862   8.132 -0.5757 -0.0041  0.5727
   99SAPS  H14X 9993   5.622   3.872   8.242 -0.7508 -1.2639  0.6816
   99SAPS  H14Y 9994   5.747   3.854   8.133 -0.6528 -1.4687  0.9719
   99SAPS  C315 9995   5.562   3.732   8.080 -0.2174  0.1415  0.3721
   99SAPS  H15X 9996   5.613   3.642   8.121 -1.5617 -0.8730 -0.0966
   99SAPS  H15Y 9997   5.582   3.732   7.971  1.2472 -0.4797  0.6170
   99SAPS  C316 9998   5.409   3.725   8.112  0.2056  0.4061  0.1348
   99SAPS  H16X 9999   5.368   3.628   8.076 -1.3246  0.4787  1.6100
   99SAPS  H16Y10000   5.348   3.804   8.063  0.0286 -0.5473 -1.2502
   99SAPS  C31710001   5.382   3.732   8.268  0.7675  0.1902  0.8359
   99SAPS  H17X10002   5.395   3.841   8.285 -0.6590  0.9050 -2.0170
   99SAPS  H17Y10003   5.456   3.679   8.333  0.0265 -1.4418  0.4034
   99SAPS  C31810004   5.247   3.683   8.312  0.0687  0.1947  1.1207
   99SAPS  H18X10005   5.228   3.716   8.416 -0.2000 -3.3484  2.3251
   99SAPS  H18Y10006   5.235   3.573   8.301  0.6545  0.1783  0.5468
   99SAPS  H18Z10007   5.172   3.727   8.243  1.5836  1.5275  0.2366
  100SAPS     N10008   3.027   6.348   6.343  0.1538  0.3327  0.2198
  100SAPS   HN110009   3.013   6.450   6.324 -0.8585 -0.1220 -1.7322
  100SAPS   HN210010   2.954   6.305   6.402  0.0161 -3.2014 -2.2068
  100SAPS   HN310011   3.115   6.319   6.391  0.1434 -0.2000 -0.0727
  100SAPS   C1210012   3.018   6.281   6.212  0.7160 -0.4620 -0.3471
  100SAPS  H12A10013   2.917   6.260   6.182  0.5447 -1.4303  0.8387
  100SAPS   C1310014   3.074   6.362   6.096 -0.4297  0.8036  0.2224
  100SAPS  O13A10015   3.132   6.471   6.112 -0.0521 -0.2492 -0.0608
  100SAPS  O13B10016   3.065   6.315   5.977 -0.4196  0.1658 -0.2876
  100SAPS   C1110017   3.063   6.139   6.214 -0.7255  0.1088 -0.5151
  100SAPS  H11A10018   3.172   6.133   6.233 -0.2061 -1.8785 -3.4667
  100SAPS  H11B10019   3.049   6.090   6.115 -0.7253 -3.1086  0.9642
  100SAPS     P10020   3.051   5.940   6.382  0.6911  0.1839 -0.0324
  100SAPS   O1310021   2.964   5.897   6.491  0.0798 -0.0525 -0.2393
  100SAPS   O1410022   3.084   5.845   6.275 -0.0654 -0.3044 -0.0828
  100SAPS   O1210023   2.991   6.063   6.308 -0.0332  0.3967 -0.0958
  100SAPS   O1110024   3.182   5.993   6.449  0.3613  0.0542 -0.1991
  100SAPS    C110025   3.298   5.917   6.481  0.8880 -0.4600 -0.6638
  100SAPS    HA10026   3.304   5.827   6.416 -2.1404  1.0501 -3.2821
  100SAPS    HB10027   3.391   5.976   6.473  0.7552 -0.1768 -0.1950
  100SAPS    C210028   3.288   5.879   6.631  0.0151  0.2031 -0.2409
  100SAPS    HS10029   3.196   5.819   6.642 -0.4377  0.6979 -1.2041
  100SAPS   O2110030   3.292   5.998   6.712  0.4563 -0.0883 -0.4619
  100SAPS   C2110031   3.214   5.982   6.819  0.0649  0.3204  0.0562
  100SAPS   O2210032   3.142   5.889   6.842 -0.0325 -0.0494 -0.4549
  100SAPS   C2210033   3.230   6.101   6.921  0.5737  0.8651  0.4004
  100SAPS   H2R10034   3.336   6.104   6.955  1.2309  0.8326 -1.5289
  100SAPS   H2S10035   3.207   6.187   6.854 -1.9900 -0.4091 -0.4909
  100SAPS    C310036   3.419   5.797   6.657  0.8756 -0.2171 -0.5456
  100SAPS    HX10037   3.504   5.865   6.640  2.3047 -1.3514  1.6172
  100SAPS    HY10038   3.425   5.718   6.579 -1.7967 -1.1389  0.0644
  100SAPS   O3110039   3.421   5.748   6.792 -0.4158 -0.3042 -0.0965
  100SAPS   C3110040   3.332   5.648   6.804  0.1445  0.5466  0.2044
  100SAPS   O3210041   3.272   5.593   6.708 -0.7264  0.1411 -0.6504
  100SAPS   C3210042   3.316   5.636   6.953 -0.4126 -0.4912  0.1564
  100SAPS   H2X10043   3.304   5.735   7.003 -0.9133 -0.6294  0.3196
  100SAPS   H2Y10044   3.410   5.590   6.991  0.2072  0.2115 -0.5165
  100SAPS   C2310045   3.132   6.070   7.029 -0.8490  0.0463 -0.3276
  100SAPS   H3R10046   3.133   5.964   7.063  0.5049 -0.5106 -1.9346
  100SAPS   H3S10047   3.034   6.082   6.978 -1.0651 -1.2591 -0.2545
  100SAPS   C2410048   3.121   6.158   7.152  0.7598  0.8459  0.4868
  100SAPS   H4R10049   3.036   6.116   7.210  1.9344 -0.5911  1.2224
  100SAPS   H4S10050   3.083   6.254   7.111 -0.4752  0.8226  1.5062
  100SAPS   C2510051   3.244   6.163   7.228 -0.6113  0.1642 -0.6889
  100SAPS   H5R10052   3.319   6.216   7.168  0.0721  0.0820  0.0715
  100SAPS   C2610053   3.276   6.114   7.346  0.1015  0.0517 -0.3037
  100SAPS   H6R10054   3.382   6.113   7.375  0.3273  3.5192 -0.5871
  100SAPS   C2710055   3.193   6.029   7.436 -0.0710  0.0299 -0.1217
  100SAPS   H7R10056   3.253   5.936   7.435  0.7987  0.4866  2.2558
  100SAPS   H7S10057   3.092   6.009   7.394  0.0186 -1.5390  0.3662
  100SAPS   C2810058   3.171   6.088   7.572  0.3713  0.3531  0.0380
  100SAPS   H8R10059   3.182   6.197   7.580 -2.7811  0.7017  0.7548
  100SAPS   C2910060   3.148   6.022   7.686  0.2697  0.1194  0.4235
  100SAPS   H9R10061   3.119   6.078   7.776  0.0383 -1.9453  1.7105
  100SAPS  C21010062   3.138   5.871   7.715 -0.2428  0.3739 -0.6429
  100SAPS  H10R10063   3.237   5.843   7.756 -1.7303 -1.0327  2.3534
  100SAPS  H10S10064   3.133   5.821   7.616 -0.0160 -0.3313 -0.3035
  100SAPS  C21110065   3.020   5.835   7.802  0.7439 -0.1373 -0.0481
  100SAPS  H11R10066   2.919   5.844   7.758  0.3696 -0.5351  0.7064
  100SAPS  C21210067   3.030   5.762   7.915 -0.1045  0.2286  0.4086
  100SAPS  H12R10068   2.941   5.742   7.976 -0.5994  0.2607 -0.2974
  100SAPS  C21310069   3.161   5.715   7.974 -0.1214 -0.5537  0.6719
  100SAPS  H13R10070   3.216   5.795   8.028 -0.5196 -0.9996  1.7557
  100SAPS  H13S10071   3.233   5.680   7.896 -0.9346 -0.3606 -0.1818
  100SAPS  C21410072   3.149   5.598   8.075  0.6589 -0.0582  1.0371
  100SAPS  H14R10073   3.162   5.498   8.030 -0.9373  0.1367  0.0823
  100SAPS  C21510074   3.108   5.612   8.201 -0.2067  0.4677  0.6686
  100SAPS  H15R10075   3.081   5.524   8.261 -2.1612 -0.6237 -1.6167
  100SAPS  C21610076   3.062   5.741   8.265 -0.7345  0.8424  0.0133
  100SAPS  H16R10077   2.969   5.771   8.212 -0.2717  0.0152 -1.3239
  100SAPS  H16S10078   3.137   5.822   8.257 -0.3938  0.3829 -2.0355
  100SAPS  C21710079   3.044   5.710   8.417  0.0170  0.5572 -1.4379
  100SAPS  H17R10080   3.127   5.653   8.464 -1.3690 -0.1625  0.2420
  100SAPS  H17S10081   2.951   5.651   8.423 -0.2273  0.7773 -2.8061
  100SAPS  C21810082   3.015   5.840   8.498 -0.2549  0.1036 -0.1513
  100SAPS  H18R10083   2.957   5.910   8.434  0.6869  1.3224  0.2753
  100SAPS  H18S10084   3.112   5.895   8.508 -1.6712  2.4577  1.8373
  100SAPS  C21910085   2.958   5.808   8.635  0.0921  0.4938 -0.1570
  100SAPS  H19R10086   2.866   5.748   8.617  0.9921 -1.4327  1.3097
  100SAPS  H19S10087   2.929   5.901   8.689 -0.3046  0.5101 -0.3910
  100SAPS  C22010088   3.048   5.738   8.733  0.0890 -0.6081  0.0389
  100SAPS  H20R10089   3.148   5.786   8.732  0.1547 -0.6505  1.4938
  100SAPS  H20S10090   3.067   5.631   8.715  0.7254 -0.2509 -1.5636
  100SAPS  H20T10091   3.005   5.754   8.835  0.9361  2.3355  0.0487
  100SAPS   C3310092   3.195   5.547   6.994 -0.3302  0.3866 -0.3394
  100SAPS   H3X10093   3.191   5.451   6.939  2.0125  0.5542 -0.9163
  100SAPS   H3Y10094   3.101   5.605   6.978 -0.2534  0.6910  0.3029
  100SAPS   C3410095   3.191   5.504   7.147  0.6343  0.2105 -0.1668
  100SAPS   H4X10096   3.290   5.461   7.172  1.7153  1.7979 -1.4716
  100SAPS   H4Y10097   3.115   5.424   7.159 -0.6755  1.5320  0.8041
  100SAPS   C3510098   3.148   5.614   7.241  0.6464 -0.3623 -0.2627
  100SAPS   H5X10099   3.069   5.681   7.203  0.9877  1.3071  1.7682
  100SAPS   H5Y10100   3.235   5.683   7.250  0.5363  0.0079 -1.7297
  100SAPS   C3610101   3.093   5.561   7.377  0.0066 -0.2148  0.4723
  100SAPS   H6X10102   3.001   5.504   7.353  0.7937 -1.6681  0.7356
  100SAPS   H6Y10103   3.062   5.649   7.436 -3.2278 -0.7087 -0.3277
  100SAPS   C3710104   3.192   5.474   7.456  0.5242 -0.6869  0.5084
  100SAPS   H7X10105   3.284   5.532   7.483 -0.3895 -0.1368  2.6187
  100SAPS   H7Y10106   3.211   5.395   7.380  2.3150 -0.6153  0.8385
  100SAPS   C3810107   3.125   5.408   7.574 -0.2111 -0.3791  0.4226
  100SAPS   H8X10108   3.053   5.328   7.547 -0.0178 -0.1555 -0.8346
  100SAPS   H8Y10109   3.076   5.500   7.612  0.6175 -0.3532  1.4770
  100SAPS   C3910110   3.223   5.350   7.675  0.3512  0.1547  0.2259
  100SAPS   H9X10111   3.282   5.435   7.714 -4.0026  2.8989  1.6300
  100SAPS   H9Y10112   3.292   5.279   7.625 -2.9053 -1.0198 -3.1421
  100SAPS  C31010113   3.155   5.277   7.796 -0.5397  0.3160 -0.0832
  100SAPS  H10X10114   3.105   5.183   7.764  0.2516  0.3614 -1.5109
  100SAPS  H10Y10115   3.074   5.351   7.813 -2.3629 -0.5244 -3.9466
  100SAPS  C31110116   3.255   5.251   7.913 -0.9055 -0.0800 -0.6406
  100SAPS  H11X10117   3.303   5.344   7.952 -1.1919  0.3938 -1.3918
  100SAPS  H11Y10118   3.334   5.180   7.881  0.9895  1.0775  1.1774
  100SAPS  C31210119   3.182   5.200   8.034  0.0967 -0.3200 -0.4600
  100SAPS  H12X10120   3.112   5.119   8.004  1.8214 -2.1294  0.1637
  100SAPS  H12Y10121   3.127   5.287   8.076 -0.3089 -1.5680  1.7238
  100SAPS  C31310122   3.278   5.143   8.143 -0.0837 -0.6028 -0.5908
  100SAPS  H13X10123   3.346   5.228   8.166 -1.0647  0.9505 -2.9838
  100SAPS  H13Y10124   3.350   5.068   8.105  0.6547 -0.3461  0.2804
  100SAPS  C31410125   3.209   5.073   8.260 -0.4246 -0.0467  0.5873
  100SAPS  H14X10126   3.269   5.017   8.336 -2.8043 -0.2805  2.4198
  100SAPS  H14Y10127   3.143   4.995   8.215  1.6969 -1.2417 -0.6732
  100SAPS  C31510128   3.119   5.171   8.331  0.2799  0.5250  0.2459
  100SAPS  H15X10129   3.030   5.185   8.266  0.0807 -0.7874  0.2150
  100SAPS  H15Y10130   3.164   5.272   8.344  1.0466  0.4668 -1.6091
  100SAPS  C31610131   3.073   5.120   8.471 -0.1238 -0.5161  0.0643
  100SAPS  H16X10132   3.017   5.202   8.521 -1.1729 -0.7717 -0.6698
  100SAPS  H16Y10133   3.160   5.102   8.538  0.2298  1.8774  0.3619
  100SAPS  C31710134   2.985   4.993   8.467 -0.1419  0.9168 -0.3560
  100SAPS  H17X10135   3.022   4.931   8.382  2.6161  1.2274  0.5154
  100SAPS  H17Y10136   2.882   5.028   8.443 -0.2710  0.3129 -0.7140
  100SAPS  C31810137   2.991   4.906   8.595  0.1081 -0.1575 -0.4983
  100SAPS  H18X10138   2.950   4.965   8.680  2.1641 -0.2080  0.5851
  100SAPS  H18Y10139   3.094   4.873   8.619  0.1774 -0.5440 -1.2916
  100SAPS  H18Z10140   2.919   4.824   8.576  1.9010 -1.4580 -2.1047
  101OSM      N10141   0.713   5.559  11.106 -0.0551  0.3561  0.2696
  101OSM    C1510142   0.861   5.565  11.108  0.4902 -0.0200 -0.0213
  101OSM   H15A10143   0.889   5.668  11.094 -0.5134  0.4039  0.9045
  101OSM   H15B10144   0.905   5.512  11.024 -0.0749 -0.0911 -0.2798
  101OSM   H15C10145   0.898   5.522  11.200  1.7253  1.1876  0.0690
  101OSM    C1410146   0.676   5.409  11.111  0.0361 -0.3671 -0.8712
  101OSM   H14A10147   0.693   5.373  11.011 -1.6534  0.8480 -1.6257
  101OSM   H14B10148   0.572   5.381  11.126  0.2152 -0.5725  0.0644
  101OSM   H14C10149   0.731   5.349  11.183 -0.6516 -3.1790 -2.5452
  101OSM    C1310150   0.654   5.618  11.230 -0.6717  0.0175  0.5746
  101OSM   H13A10151   0.700   5.582  11.321  0.0197  0.2127  0.3044
  101OSM   H13B10152   0.548   5.599  11.232 -0.6107 -0.5650 -0.9179
  101OSM   H13C10153   0.679   5.724  11.232  3.0192 -0.7142  2.5742
  101OSM    C1210154   0.646   5.622  10.981 -0.0231 -0.3569  0.4803
  101OSM   H12A10155   0.673   5.726  10.969  2.4205 -0.8866  0.9718
  101OSM   H12B10156   0.539   5.627  10.995  0.2311  2.1319  2.1208
  101OSM    C1110157   0.663   5.565  10.838  0.6577  0.0965  0.2398
  101OSM   H11A10158   0.771   5.581  10.818  0.7812  2.4473  2.3589
  101OSM   H11B10159   0.608   5.637  10.775  0.2056  1.1795  1.8254
  101OSM      P10160   0.464   5.405  10.822  0.1103  0.1049 -0.5544
  101OSM    O1310161   0.423   5.266  10.854  0.5193  0.3128  0.0314
  101OSM    O1410162   0.394   5.508  10.898  0.1350 -1.0052 -0.3269
  101OSM    O1110163   0.426   5.428  10.669  0.3689 -0.0250  0.1867
  101OSM    O1210164   0.623   5.427  10.818 -0.2004  0.3918  0.1467
  101OSM    C1S10165   0.527   5.392  10.570 -0.4370  0.1523  0.1052
  101OSM    H1S10166   0.550   5.283  10.566 -0.7799 -0.0281  2.0277
  101OSM    H1T10167   0.624   5.444  10.581  0.9884 -1.7929 -2.2459
  101OSM     NF10168   0.549   5.369  10.327  0.1679  0.3277 -0.5307
  101OSM    HNF10169   0.625   5.425  10.294 -2.0734  3.8359 -0.3110
  101OSM    C2S10170   0.463   5.422  10.434 -0.2437 -0.5479  0.8168
  101OSM    H2S10171   0.362   5.375  10.430 -0.4101 -0.1048 -0.4398
  101OSM    C3S10172   0.433   5.572  10.416  0.1377  0.4297  0.3628
  101OSM    H3S10173   0.527   5.625  10.390  0.1271 -0.3841 -1.4760
  101OSM     O310174   0.382   5.641  10.527 -0.0042 -0.0731 -0.0361
  101OSM    HO310175   0.387   5.577  10.598 -1.0265 -2.2049 -1.7765
  101OSM    C4S10176   0.338   5.587  10.297 -0.1271 -0.0572 -0.5303
  101OSM    H4S10177   0.384   5.562  10.200 -0.4912 -1.7936 -0.2897
  101OSM    C5S10178   0.207   5.595  10.292 -0.0831  0.6187  0.8095
  101OSM    H5S10179   0.145   5.598  10.382 -0.6716 -1.3645  0.5161
  101OSM    C6S10180   0.117   5.587  10.171  0.6041 -0.3465 -0.1545
  101OSM    H6S10181   0.068   5.685  10.158  1.7234  0.1768 -0.5753
  101OSM    H6T10182   0.051   5.499  10.186  0.7515  0.0234  3.8093
  101OSM    C7S10183   0.182   5.564  10.033  0.0148  1.1126 -0.3278
  101OSM    H7S10184   0.233   5.466  10.044 -2.3758 -0.6759 -3.5492
  101OSM    H7T10185   0.252   5.645  10.005 -1.1567  3.1500  2.1466
  101OSM    C8S10186   0.082   5.539   9.919 -0.3992 -0.5837 -0.4272
  101OSM    H8S10187   0.042   5.643   9.907  0.8375 -0.2402 -1.9277
  101OSM    H8T10188   0.005   5.466   9.951 -0.0625 -1.2275 -1.0795
  101OSM    C9S10189   0.164   5.494   9.796  0.2570 -0.1511  0.2226
  101OSM    H9S10190   0.211   5.396   9.817  0.7278  0.3221  1.4348
  101OSM    H9T10191   0.248   5.566   9.784  1.2282 -1.3508 -0.5032
  101OSM   C10S10192   0.079   5.490   9.673 -0.6053 -0.3242  0.6737
  101OSM   H10S10193   0.018   5.583   9.673  0.1111  0.1581 -0.3800
  101OSM   H10T10194   0.010   5.402   9.676 -1.0749 -0.0060 -0.3103
  101OSM   C11S10195   0.158   5.481   9.543  0.8207 -0.0153  0.4918
  101OSM   H11S10196   0.172   5.377   9.506 -2.9444 -0.7841  0.7389
  101OSM   H11T10197   0.250   5.542   9.543  2.4366 -2.2178 -1.8965
  101OSM   C12S10198   0.071   5.530   9.425 -0.5598 -0.2261  0.5253
  101OSM   H12S10199   0.061   5.640   9.433  4.0936  0.4622 -0.1840
  101OSM   H12T10200  -0.028   5.478   9.424 -1.0846  0.7660 -0.4835
  101OSM   C13S10201   0.136   5.509   9.285  0.7256 -0.3021 -0.5597
  101OSM   H13S10202   0.164   5.402   9.268  0.1055 -0.6187  0.3572
  101OSM   H13T10203   0.231   5.566   9.299  0.5666 -0.4844  1.6091
  101OSM   C14S10204   0.062   5.558   9.162  1.0265  0.0420 -0.3929
  101OSM   H14S10205   0.013   5.654   9.188  1.6351 -0.1465  1.7049
  101OSM   H14T10206  -0.013   5.478   9.142 -0.6604  1.4759 -0.0495
  101OSM   C15S10207   0.148   5.555   9.036 -0.3429  0.0064  0.4131
  101OSM   H15S10208   0.173   5.451   9.007  1.7368 -0.0506  2.1618
  101OSM   H15T10209   0.240   5.610   9.065  0.4310 -0.8646 -0.3692
  101OSM   C16S10210   0.070   5.632   8.930 -0.1390 -0.1192  0.2226
  101OSM   H16S10211   0.078   5.740   8.957  0.0456 -0.7441  3.0044
  101OSM   H16T10212  -0.040   5.616   8.929 -0.1562 -0.0717  0.8284
  101OSM   C17S10213   0.114   5.609   8.782 -0.5738  0.5790 -0.0321
  101OSM   H17S10214   0.223   5.622   8.763 -0.6282 -0.0713 -0.8945
  101OSM   H17T10215   0.068   5.690   8.722  1.3209  2.1142  0.4691
  101OSM   C18S10216   0.065   5.482   8.716  0.5423  0.5795 -0.2888
  101OSM   H18S10217   0.115   5.390   8.753  0.6617  0.7300 -0.0714
  101OSM   H18T10218   0.054   5.493   8.606 -4.0030 -0.2796 -0.1329
  101OSM   H18U10219  -0.041   5.475   8.750  0.8652 -0.4630  0.5437
  101OSM    C1F10220   0.555   5.245  10.293  0.2298  0.1097 -0.6140
  101OSM     OF10221   0.491   5.156  10.345  0.1877 -0.4860  0.2862
  101OSM    C2F10222   0.655   5.222  10.187  0.3433  0.1800 -0.9451
  101OSM    H2F10223   0.747   5.252  10.240  0.6780 -2.2815 -0.0125
  101OSM    H2G10224   0.628   5.270  10.090  0.3933  2.3157  0.0569
  101OSM    C3F10225   0.655   5.079  10.151 -0.5762 -0.5149  0.3227
  101OSM    H3F10226   0.558   5.045  10.111 -1.8132 -0.9597  3.4102
  101OSM    H3G10227   0.679   5.014  10.239 -0.6033 -0.6337  0.2422
  101OSM    C4F10228   0.777   5.044  10.051  0.1786 -0.0512 -0.6560
  101OSM    H4F10229   0.803   4.937  10.067 -0.3566 -0.1508 -0.4288
  101OSM    H4G10230   0.858   5.109  10.088 -0.8276  0.6580  0.3435
  101OSM    C5F10231   0.756   5.049   9.899  0.3502 -0.0797 -0.2949
  101OSM    H5F10232   0.740   5.153   9.863  1.4823  0.8287  1.6209
  101OSM    H5G10233   0.664   4.992   9.875  1.3252 -1.3112 -1.2517
  101OSM    C6F10234   0.876   4.990   9.821  0.0492  0.0887 -0.1079
  101OSM    H6F10235   0.910   4.892   9.859  3.4756  1.2857  0.2133
  101OSM    H6G10236   0.963   5.057   9.836 -0.4850  0.8800 -0.4487
  101OSM    C7F10237   0.857   4.984   9.669  0.1362 -0.5343 -0.0859
  101OSM    H7F10238   0.764   4.931   9.643 -0.6386  1.3043 -1.2851
  101OSM    H7G10239   0.946   4.935   9.623  0.4586  0.1320 -0.1939
  101OSM    C8F10240   0.849   5.125   9.601  0.3355 -0.1351 -0.1167
  101OSM    H8F10241   0.941   5.187   9.606 -1.1810  2.3358 -1.2167
  101OSM    H8G10242   0.774   5.184   9.657  2.3563  0.4459  2.1607
  101OSM    C9F10243   0.788   5.124   9.458 -0.0540  0.0451 -0.5819
  101OSM    H9F10244   0.690   5.076   9.444 -0.4990  0.8805 -0.4316
  101OSM   C10F10245   0.852   5.172   9.353 -0.5379 -0.6566 -0.2482
  101OSM   H10F10246   0.799   5.159   9.257 -1.2603 -1.9484  0.2983
  101OSM   C11F10247   0.990   5.240   9.342 -0.2128  0.0581 -0.3453
  101OSM   H11F10248   1.066   5.198   9.411 -0.6004 -0.3950 -0.1883
  101OSM   H11G10249   0.966   5.344   9.374 -3.2446  0.2891 -2.8712
  101OSM   C12F10250   1.055   5.246   9.198 -0.7222 -0.2916  0.5577
  101OSM   H12F10251   1.074   5.142   9.166  1.2847  0.7005 -1.7698
  101OSM   H12G10252   1.143   5.313   9.202  0.7000 -2.0040 -0.6197
  101OSM   C13F10253   0.962   5.314   9.089 -0.0628  0.3552 -0.4656
  101OSM   H13F10254   0.951   5.423   9.110  0.7140  0.4218 -0.3818
  101OSM   H13G10255   0.871   5.251   9.075 -0.0651 -0.0131  1.0821
  101OSM   C14F10256   1.034   5.304   8.951 -0.1469  0.4911  0.2889
  101OSM   H14F10257   1.059   5.201   8.917 -1.4419  0.0904  0.5182
  101OSM   H14G10258   1.135   5.347   8.968  0.3458 -0.3365 -0.4465
  101OSM   C15F10259   0.953   5.373   8.844  0.3942 -1.0124 -0.1638
  101OSM   H15F10260   0.907   5.466   8.883 -0.9672 -1.8173  0.2005
  101OSM   H15G10261   0.865   5.318   8.804 -2.8531  3.2414  0.4570
  101OSM   C16F10262   1.047   5.426   8.731  0.4282 -0.5697 -0.4120
  101OSM   H16F10263   1.117   5.503   8.770 -0.6367  0.0791  0.2918
  101OSM   H16G10264   0.989   5.473   8.649  2.2315  0.1478 -1.3188
  101OSM   C17F10265   1.124   5.307   8.659  1.5381  0.6556 -0.0264
  101OSM   H17F10266   1.052   5.222   8.657  2.3100 -0.0457  0.7226
  101OSM   H17G10267   1.222   5.282   8.707  2.5922  2.6969 -0.9888
  101OSM   C18F10268   1.161   5.342   8.519  0.1313 -0.2946  0.1178
  101OSM   H18F10269   1.071   5.361   8.457 -1.0774  0.0349  1.8880
  101OSM   H18G10270   1.226   5.259   8.484  2.2004  1.7379 -1.1336
  101OSM   H18H10271   1.229   5.430   8.519 -0.2023 -0.0273  1.0321
  102OSM      N10272   1.120   4.141  10.820  0.1278 -0.3359  0.0797
  102OSM    C1510273   1.048   4.078  10.931 -0.1956  0.0983  0.2603
  102OSM   H15A10274   1.066   3.971  10.932  0.2029  0.1263  2.4457
  102OSM   H15B10275   0.945   4.110  10.937 -0.3318 -0.1582 -0.6209
  102OSM   H15C10276   1.093   4.102  11.027  1.7659  0.8990 -0.8018
  102OSM    C1410277   1.117   4.290  10.816  0.2480  0.0858  0.1430
  102OSM   H14A10278   1.154   4.324  10.720  0.3587 -1.2293 -0.3138
  102OSM   H14B10279   1.179   4.334  10.893  2.7566  0.2882 -1.8544
  102OSM   H14C10280   1.017   4.329  10.816 -0.3507 -1.1423 -2.8454
  102OSM    C1310281   1.257   4.097  10.843 -0.3683  0.4000 -0.2059
  102OSM   H13A10282   1.301   4.166  10.913 -1.5437  1.2607 -0.3020
  102OSM   H13B10283   1.316   4.114  10.753 -2.0575 -1.4897 -1.7587
  102OSM   H13C10284   1.270   3.991  10.864  1.7765  0.0409 -2.6658
  102OSM    C1210285   1.079   4.081  10.692  0.2789 -0.4437 -0.4716
  102OSM   H12A10286   1.096   3.974  10.689  0.3291 -0.4251 -0.9676
  102OSM   H12B10287   1.140   4.118  10.610  2.0903 -0.8648  0.6303
  102OSM    C1110288   0.924   4.101  10.662  0.2221  0.4843  0.2134
  102OSM   H11A10289   0.899   4.108  10.554  1.4475  1.0351 -0.0456
  102OSM   H11B10290   0.879   4.194  10.701 -2.8834 -1.6888  2.3046
  102OSM      P10291   0.807   3.875  10.651  0.2698 -0.4202 -0.0338
  102OSM    O1310292   0.896   3.849  10.535  0.0818 -0.4122  0.0138
  102OSM    O1410293   0.794   3.765  10.749 -0.2466 -0.1735  0.0397
  102OSM    O1110294   0.662   3.901  10.586  0.3922  0.8120  0.1992
  102OSM    O1210295   0.847   4.008  10.729  0.3291  0.4673 -0.2936
  102OSM    C1S10296   0.632   4.016  10.506  0.7770  0.0106  0.2279
  102OSM    H1S10297   0.677   4.108  10.549  1.0792 -0.3865  0.7702
  102OSM    H1T10298   0.521   4.025  10.511  0.6742 -0.6352 -0.5934
  102OSM     NF10299   0.598   4.115  10.285 -0.3501  0.0657  0.4904
  102OSM    HNF10300   0.513   4.104  10.235 -0.1965  1.6759 -0.1701
  102OSM    C2S10301   0.667   4.000  10.356  0.0112  0.0277  0.7142
  102OSM    H2S10302   0.777   4.005  10.339 -0.0134 -0.2325  0.4585
  102OSM    C3S10303   0.624   3.861  10.297 -0.1808 -0.5198 -0.1355
  102OSM    H3S10304   0.515   3.849  10.318 -0.5208 -1.1925 -2.1392
  102OSM     O310305   0.666   3.740  10.355  0.2821  0.6489 -0.0111
  102OSM    HO310306   0.696   3.762  10.443  0.4043 -0.8367  0.3345
  102OSM    C4S10307   0.649   3.856  10.150  0.1928  0.2535  0.5260
  102OSM    H4S10308   0.557   3.872  10.092  0.5523 -2.0834 -0.8103
  102OSM    C5S10309   0.765   3.829  10.089 -0.4567 -0.9281  0.5467
  102OSM    H5S10310   0.857   3.854  10.144  0.6151 -0.8338 -1.2133
  102OSM    C6S10311   0.788   3.837   9.938  0.0435  1.0512 -0.0002
  102OSM    H6S10312   0.893   3.802   9.935  0.9153  3.4262  0.7703
  102OSM    H6T10313   0.793   3.935   9.887  0.0292  0.9435 -0.2124
  102OSM    C7S10314   0.687   3.740   9.861 -0.5102 -0.4991 -0.8025
  102OSM    H7S10315   0.589   3.793   9.853  0.0951  0.4241 -2.5277
  102OSM    H7T10316   0.668   3.647   9.918 -0.9753 -1.0965 -1.8995
  102OSM    C8S10317   0.746   3.698   9.728  0.0758 -1.4569  0.3356
  102OSM    H8S10318   0.855   3.677   9.736  0.7324  1.4368 -0.1241
  102OSM    H8T10319   0.749   3.792   9.670 -1.2108 -1.3941  0.3280
  102OSM    C9S10320   0.668   3.585   9.658 -0.3775 -0.0132  1.0493
  102OSM    H9S10321   0.563   3.591   9.695  0.1687 -1.2044  2.9470
  102OSM    H9T10322   0.713   3.490   9.694 -1.4330 -1.4290 -1.1846
  102OSM   C10S10323   0.691   3.588   9.505 -0.7885  0.2916  0.9371
  102OSM   H10S10324   0.800   3.599   9.489 -0.7653 -1.2802 -0.2731
  102OSM   H10T10325   0.628   3.662   9.451  0.2624  3.3836  3.6176
  102OSM   C11S10326   0.666   3.461   9.429  0.0886  0.4969 -0.1534
  102OSM   H11S10327   0.559   3.433   9.437 -0.2672  1.4458 -1.3717
  102OSM   H11T10328   0.720   3.379   9.482  0.2777  1.4190  1.1123
  102OSM   C12S10329   0.707   3.473   9.280 -0.2822 -0.3740  0.5787
  102OSM   H12S10330   0.818   3.470   9.269 -0.2542  0.5184  0.4937
  102OSM   H12T10331   0.669   3.566   9.232  3.0982  0.1685 -1.3637
  102OSM   C13S10332   0.641   3.353   9.208 -0.2692 -0.4571 -0.1249
  102OSM   H13S10333   0.541   3.344   9.254  0.0693  1.0348  0.9872
  102OSM   H13T10334   0.686   3.259   9.246 -1.6408 -0.2425  2.2126
  102OSM   C14S10335   0.633   3.354   9.062  0.9271  0.3808 -0.4250
  102OSM   H14S10336   0.625   3.457   9.020  1.3347  0.0151 -1.4309
  102OSM   H14T10337   0.548   3.292   9.026  0.4903  0.8594 -0.2373
  102OSM   C15S10338   0.759   3.307   8.985 -0.4441  0.1483  0.0968
  102OSM   H15S10339   0.806   3.211   9.013  1.1839  0.2036 -2.1789
  102OSM   H15T10340   0.832   3.386   9.010 -0.6423 -0.3438  2.4218
  102OSM   C16S10341   0.747   3.313   8.826  0.1752 -0.1819  0.0376
  102OSM   H16S10342   0.736   3.419   8.794 -0.6397 -0.3940 -0.4015
  102OSM   H16T10343   0.655   3.262   8.791  0.9809  0.1076 -2.7979
  102OSM   C17S10344   0.882   3.264   8.773  0.5484  0.0514 -0.2402
  102OSM   H17S10345   0.896   3.158   8.804  0.1281  0.3323  0.9565
  102OSM   H17T10346   0.969   3.323   8.810  1.0747 -1.8120  1.7123
  102OSM   C18S10347   0.876   3.256   8.618 -0.2864  0.0144  0.5071
  102OSM   H18S10348   0.774   3.244   8.576 -1.0168 -1.6950  2.5649
  102OSM   H18T10349   0.930   3.167   8.577  1.7365  1.4979 -0.2164
  102OSM   H18U10350   0.919   3.351   8.582 -1.3564 -0.1690 -1.4054
  102OSM    C1F10351   0.645   4.241  10.298  0.0071 -0.4005 -0.7782
  102OSM     OF10352   0.744   4.269  10.368 -0.0146 -0.0678 -0.1497
  102OSM    C2F10353   0.578   4.357  10.229 -0.1321  0.5126  0.1653
  102OSM    H2F10354   0.570   4.440  10.304  0.0383  0.6139  0.0734
  102OSM    H2G10355   0.474   4.326  10.209 -1.3113  2.3664  2.7397
  102OSM    C3F10356   0.662   4.402  10.105 -0.2943  0.7214  0.4131
  102OSM    H3F10357   0.751   4.452  10.147  0.6659 -1.6853  1.4400
  102OSM    H3G10358   0.599   4.481  10.058 -0.9174  0.4047  0.7040
  102OSM    C4F10359   0.695   4.290  10.005 -0.9006  0.2201 -0.1496
  102OSM    H4F10360   0.609   4.220   9.998 -1.1355  0.5321 -0.4356
  102OSM    H4G10361   0.789   4.234  10.026 -1.2475 -0.3699 -0.1513
  102OSM    C5F10362   0.714   4.357   9.868  0.2793 -0.2189 -0.4861
  102OSM    H5F10363   0.794   4.434   9.873  1.6225 -1.6330  1.2138
  102OSM    H5G10364   0.622   4.409   9.836  0.6760 -0.0964 -1.4547
  102OSM    C6F10365   0.746   4.268   9.754  0.0318 -0.0678 -0.6187
  102OSM    H6F10366   0.840   4.209   9.765 -2.2150 -4.3810 -2.0140
  102OSM    H6G10367   0.747   4.323   9.657  3.1184 -1.7111 -1.6680
  102OSM    C7F10368   0.634   4.157   9.741  0.5196 -0.3492 -0.4124
  102OSM    H7F10369   0.530   4.196   9.733  1.4058  2.3997  0.3631
  102OSM    H7G10370   0.631   4.091   9.831  1.5700  0.3206  0.1341
  102OSM    C8F10371   0.660   4.062   9.624 -0.1910 -0.5171 -0.8568
  102OSM    H8F10372   0.593   3.974   9.631 -0.2112 -0.5012 -0.8523
  102OSM    H8G10373   0.766   4.031   9.634  0.2543  1.0615 -0.4141
  102OSM    C9F10374   0.630   4.108   9.485  0.2853  0.0996  0.0623
  102OSM    H9F10375   0.552   4.185   9.485  0.4744  0.4824  3.8149
  102OSM   C10F10376   0.693   4.058   9.372  0.1373  1.2463 -0.3961
  102OSM   H10F10377   0.658   4.089   9.272  2.1016  0.4733 -1.3710
  102OSM   C11F10378   0.798   3.945   9.379 -0.0336 -0.3315 -0.3469
  102OSM   H11F10379   0.784   3.889   9.474  1.9409  0.8365  0.7053
  102OSM   H11G10380   0.899   3.991   9.370  0.7228 -2.1670 -1.6212
  102OSM   C12F10381   0.782   3.836   9.266  0.3639 -1.0246  0.0228
  102OSM   H12F10382   0.675   3.809   9.261 -0.1953  0.8487  1.0200
  102OSM   H12G10383   0.840   3.749   9.305 -1.6466 -1.0610  3.3190
  102OSM   C13F10384   0.833   3.887   9.128 -0.1306  0.2992 -0.4072
  102OSM   H13F10385   0.941   3.912   9.134  0.0516 -0.5346  0.0110
  102OSM   H13G10386   0.792   3.985   9.096  1.9440  1.5137  0.5117
  102OSM   C14F10387   0.803   3.778   9.025 -0.1676  0.3789  0.9670
  102OSM   H14F10388   0.693   3.762   9.025 -0.0821 -0.7101 -1.9217
  102OSM   H14G10389   0.849   3.679   9.046  1.5818  0.5673 -1.5881
  102OSM   C15F10390   0.854   3.825   8.883 -0.0027 -0.0352 -0.5604
  102OSM   H15F10391   0.965   3.825   8.884  0.1591  4.2402 -0.4807
  102OSM   H15G10392   0.825   3.931   8.870  0.8216  0.4588  1.3281
  102OSM   C16F10393   0.808   3.726   8.776 -0.0565  0.5337  0.1651
  102OSM   H16F10394   0.705   3.688   8.796 -0.7905  2.0307 -0.5747
  102OSM   H16G10395   0.882   3.644   8.785 -1.9335 -1.3252 -0.7027
  102OSM   C17F10396   0.806   3.782   8.631  0.8737 -0.2742 -0.2254
  102OSM   H17F10397   0.789   3.698   8.559  1.4260  1.1360 -2.0973
  102OSM   H17G10398   0.908   3.819   8.610 -0.3942  2.9301 -1.3837
  102OSM   C18F10399   0.694   3.882   8.610  0.1229 -0.0856  0.4061
  102OSM   H18F10400   0.703   3.934   8.512  0.5434  1.5245  1.2525
  102OSM   H18G10401   0.688   3.954   8.695 -1.9062 -1.3187  1.3970
  102OSM   H18H10402   0.600   3.823   8.604 -1.0294  1.7909 -2.0573
  103OSM      N10403   3.255   1.293  11.079  0.5387 -0.0739 -0.1640
  103OSM    C1510404   3.372   1.237  11.009 -0.7443  0.6172 -0.2042
  103OSM   H15A10405   3.415   1.154  11.063  0.9373 -0.3976 -2.8573
  103OSM   H15B10406   3.455   1.304  10.991 -0.3738  0.5983  1.3178
  103OSM   H15C10407   3.331   1.183  10.924 -0.9931 -1.1196  0.9757
  103OSM    C1410408   3.297   1.378  11.197 -0.0816  0.0099  0.2506
  103OSM   H14A10409   3.212   1.427  11.242 -0.2377  0.7267 -0.7820
  103OSM   H14B10410   3.359   1.462  11.171 -0.6395 -0.0837 -1.5290
  103OSM   H14C10411   3.362   1.317  11.257  0.3415  2.2797  2.2025
  103OSM    C1310412   3.192   1.386  10.987  0.1518  0.0478  0.0776
  103OSM   H13A10413   3.111   1.446  11.025 -0.1314 -0.1203 -0.2502
  103OSM   H13B10414   3.146   1.334  10.904  0.7180 -0.1088 -0.1477
  103OSM   H13C10415   3.256   1.464  10.949  1.2135 -0.6093  0.4594
  103OSM    C1210416   3.153   1.185  11.122 -0.1869 -0.2529  0.1908
  103OSM   H12A10417   3.080   1.235  11.184 -0.8279 -1.1704  0.1966
  103OSM   H12B10418   3.204   1.118  11.189 -0.3850 -1.3188 -0.6984
  103OSM    C1110419   3.074   1.109  11.015 -0.1089 -0.5557  0.0156
  103OSM   H11A10420   3.009   1.184  10.965  1.1624  1.6311  1.4697
  103OSM   H11B10421   3.014   1.035  11.073 -1.6859  1.5290  1.2071
  103OSM      P10422   3.208   0.907  10.912 -0.4503  0.0346 -0.0975
  103OSM    O1310423   3.338   0.894  10.837  0.2429 -0.2529  0.5948
  103OSM    O1410424   3.213   0.870  11.047 -0.5148  1.1249  0.4702
  103OSM    O1110425   3.096   0.828  10.831 -0.1717  0.3709 -0.2454
  103OSM    O1210426   3.162   1.059  10.910  0.1781  0.1194  0.7182
  103OSM    C1S10427   2.981   0.889  10.765 -0.2406  0.5014 -0.6531
  103OSM    H1S10428   2.978   0.998  10.784  0.2486  0.3034  0.6793
  103OSM    H1T10429   2.886   0.846  10.806  0.5529  0.4128  1.2249
  103OSM     NF10430   2.878   0.925  10.542  0.5135  0.0299 -0.0274
  103OSM    HNF10431   2.812   0.853  10.520  0.4592 -0.2848  1.0925
  103OSM    C2S10432   2.997   0.872  10.611  0.0582  0.4579  0.5919
  103OSM    H2S10433   3.084   0.933  10.581  0.6973 -0.5031  0.4589
  103OSM    C3S10434   3.036   0.731  10.565  0.6828  0.3423  0.3440
  103OSM    H3S10435   2.966   0.656  10.608 -0.2424  0.3320 -1.1287
  103OSM     O310436   3.160   0.691  10.606 -0.3076 -0.9946  0.1479
  103OSM    HO310437   3.196   0.745  10.676  1.5895 -1.8475 -0.0997
  103OSM    C4S10438   3.028   0.717  10.412  0.1049 -0.0411 -0.3283
  103OSM    H4S10439   2.939   0.665  10.373  1.4554 -3.1134  0.3700
  103OSM    C5S10440   3.111   0.776  10.321 -0.8742  0.1649 -0.0091
  103OSM    H5S10441   3.198   0.827  10.366 -0.1952 -1.8445  1.0823
  103OSM    C6S10442   3.109   0.764  10.170  0.1918 -0.1105 -0.7374
  103OSM    H6S10443   3.208   0.793  10.130  1.3692 -2.1763  0.5500
  103OSM    H6T10444   3.028   0.822  10.119 -0.6362 -0.8112 -0.2480
  103OSM    C7S10445   3.082   0.615  10.126  0.1910 -0.1205 -0.5769
  103OSM    H7S10446   2.978   0.582  10.148 -0.1905  1.4781  0.1849
  103OSM    H7T10447   3.159   0.547  10.168  1.3398  0.0752 -2.2526
  103OSM    C8S10448   3.100   0.580   9.975 -0.6305 -0.2087 -0.3458
  103OSM    H8S10449   3.082   0.471   9.963  0.5919 -0.5662  0.8590
  103OSM    H8T10450   3.206   0.592   9.942 -0.8267  0.0175 -0.9106
  103OSM    C9S10451   3.002   0.655   9.887 -0.0844  0.2936  0.0434
  103OSM    H9S10452   3.018   0.765   9.894 -0.0766  0.2919  0.0519
  103OSM    H9T10453   2.899   0.624   9.914  0.0463  0.5287  0.8565
  103OSM   C10S10454   3.032   0.630   9.736 -0.3523 -0.1050 -0.0083
  103OSM   H10S10455   2.978   0.700   9.668  1.2028 -0.0156 -1.2042
  103OSM   H10T10456   3.008   0.526   9.705  0.7170 -0.6898  1.0644
  103OSM   C11S10457   3.178   0.653   9.688 -0.1526 -0.0105  0.8262
  103OSM   H11S10458   3.249   0.602   9.757 -1.0436  0.6588  2.2946
  103OSM   H11T10459   3.194   0.761   9.704 -0.3701 -0.0106  1.0541
  103OSM   C12S10460   3.194   0.629   9.534 -0.0578  0.3278 -1.0552
  103OSM   H12S10461   3.129   0.543   9.508 -1.8626  1.3327 -0.1086
  103OSM   H12T10462   3.300   0.600   9.518  0.3602  0.4639  1.1190
  103OSM   C13S10463   3.154   0.742   9.445  0.5816  0.8922 -0.2709
  103OSM   H13S10464   3.206   0.835   9.476  1.5536 -0.1770  1.5112
  103OSM   H13T10465   3.045   0.759   9.456  0.4530  1.1638 -1.7908
  103OSM   C14S10466   3.170   0.703   9.303 -0.5689 -0.4001  0.2402
  103OSM   H14S10467   3.112   0.610   9.284  0.3197 -0.8614 -0.2662
  103OSM   H14T10468   3.276   0.677   9.282  0.4475  1.7218  2.2137
  103OSM   C15S10469   3.130   0.812   9.207 -0.3987  0.3301  0.0010
  103OSM   H15S10470   3.187   0.902   9.239 -2.1284  2.2614 -2.0137
  103OSM   H15T10471   3.022   0.834   9.220 -0.2078  1.4216 -0.2042
  103OSM   C16S10472   3.169   0.781   9.063  0.7692 -0.3761 -0.5642
  103OSM   H16S10473   3.279   0.768   9.074  0.3912 -2.0335  2.0564
  103OSM   H16T10474   3.161   0.874   9.003 -1.0419 -1.9177 -2.9047
  103OSM   C17S10475   3.082   0.673   9.003 -0.0963 -0.6356 -0.1862
  103OSM   H17S10476   2.976   0.707   9.004  0.2217  0.4207 -0.8914
  103OSM   H17T10477   3.086   0.576   9.058 -0.5407 -1.2795 -1.2421
  103OSM   C18S10478   3.121   0.645   8.859  0.3823 -0.0376 -0.8470
  103OSM   H18S10479   3.145   0.732   8.795 -3.9071  0.6457 -1.8773
  103OSM   H18T10480   3.036   0.595   8.808  1.3400 -2.5572 -0.1124
  103OSM   H18U10481   3.198   0.565   8.854 -1.0118 -1.3888 -1.4782
  103OSM    C1F10482   2.847   1.052  10.537 -0.3504  0.4032  0.6718
  103OSM     OF10483   2.919   1.129  10.592 -0.6198  0.1138 -0.0351
  103OSM    C2F10484   2.720   1.091  10.459  0.9739 -0.0420 -0.5283
  103OSM    H2F10485   2.641   1.117  10.532  0.7816 -0.5985 -0.5361
  103OSM    H2G10486   2.686   1.005  10.397  0.6262 -0.5700  0.3750
  103OSM    C3F10487   2.757   1.220  10.377  0.2325 -0.4461 -0.4349
  103OSM    H3F10488   2.844   1.206  10.309  0.4112 -1.7194  0.0309
  103OSM    H3G10489   2.787   1.306  10.439  0.9165 -0.2284 -1.0628
  103OSM    C4F10490   2.620   1.255  10.302 -0.1568  0.3292 -0.2253
  103OSM    H4F10491   2.541   1.232  10.377  0.4475 -1.1026  0.0014
  103OSM    H4G10492   2.601   1.171  10.232  0.8566 -0.5270  0.5077
  103OSM    C5F10493   2.619   1.387  10.231 -0.3127 -0.8609  0.3467
  103OSM    H5F10494   2.712   1.395  10.171 -0.9620  2.8465 -0.4030
  103OSM    H5G10495   2.623   1.472  10.303  0.0214  0.2457 -0.9339
  103OSM    C6F10496   2.496   1.421  10.147  0.1234  0.1459  0.5115
  103OSM    H6F10497   2.526   1.513  10.093  1.8461 -0.8978 -0.4025
  103OSM    H6G10498   2.413   1.443  10.217 -0.3386  1.5824 -0.4477
  103OSM    C7F10499   2.440   1.305  10.055 -0.0928 -0.5024  0.5180
  103OSM    H7F10500   2.415   1.217  10.117  1.5054  0.9681  3.4334
  103OSM    H7G10501   2.523   1.295   9.982  0.8326 -0.5574  1.5684
  103OSM    C8F10502   2.315   1.335   9.966  0.5477  0.3959 -0.5925
  103OSM    H8F10503   2.230   1.359  10.034  0.8705  0.3271 -0.1645
  103OSM    H8G10504   2.276   1.240   9.922 -1.4813  0.3777  1.1073
  103OSM    C9F10505   2.329   1.450   9.878 -0.1444 -0.0833 -0.1706
  103OSM    H9F10506   2.339   1.546   9.931  1.6395  0.8929 -2.1754
  103OSM   C10F10507   2.352   1.440   9.746 -0.2556  0.0954 -0.4538
  103OSM   H10F10508   2.345   1.533   9.688 -0.4873  0.9024  0.8283
  103OSM   C11F10509   2.355   1.318   9.666 -0.0485  0.2776  0.3648
  103OSM   H11F10510   2.302   1.342   9.571  1.3511  0.1385 -0.4727
  103OSM   H11G10511   2.293   1.238   9.712  0.4912  0.1659  0.9017
  103OSM   C12F10512   2.492   1.278   9.631  0.2080  0.6941 -0.3243
  103OSM   H12F10513   2.486   1.178   9.582 -0.6033  0.4463  0.2576
  103OSM   H12G10514   2.538   1.252   9.729  2.6258  2.7465 -0.8048
  103OSM   C13F10515   2.571   1.380   9.542  0.4112  0.3779 -0.1426
  103OSM   H13F10516   2.577   1.478   9.594  0.6049  1.2739 -1.7965
  103OSM   H13G10517   2.674   1.344   9.524 -0.5335 -1.0728 -3.3119
  103OSM   C14F10518   2.516   1.408   9.400  0.2066  0.1776 -0.2845
  103OSM   H14F10519   2.601   1.468   9.361  0.0663  0.8082  0.3528
  103OSM   H14G10520   2.418   1.459   9.412 -1.4196 -1.9493 -3.2277
  103OSM   C15F10521   2.495   1.282   9.325  0.5999  0.3366 -0.6818
  103OSM   H15F10522   2.399   1.231   9.348  0.5618  0.2450 -1.0421
  103OSM   H15G10523   2.572   1.204   9.342  1.4907  1.5752  1.3081
  103OSM   C16F10524   2.491   1.322   9.178 -0.6993 -0.2240  0.6045
  103OSM   H16F10525   2.588   1.374   9.163  0.0354 -1.0729  2.1270
  103OSM   H16G10526   2.406   1.390   9.158  0.1590  1.0647  1.1974
  103OSM   C17F10527   2.484   1.209   9.075 -0.6787 -0.1417 -0.3358
  103OSM   H17F10528   2.563   1.137   9.105  3.3957  3.0333 -2.3411
  103OSM   H17G10529   2.517   1.257   8.980  0.8936 -0.1749  0.1558
  103OSM   C18F10530   2.349   1.150   9.052 -0.3477  0.4523 -0.9093
  103OSM   H18F10531   2.361   1.040   9.043 -1.1911 -0.1111  2.9773
  103OSM   H18G10532   2.315   1.175   8.949  0.6693 -0.8239 -1.5893
  103OSM   H18H10533   2.271   1.165   9.130  2.1700  0.9946  1.6657
  104OSM      N10534   4.618   0.708  10.476 -0.5752  0.1327 -0.5851
  104OSM    C1510535   4.509   0.780  10.556 -0.8761  0.1288 -0.3600
  104OSM   H15A10536   4.430   0.712  10.582  0.9439 -1.1103  2.3898
  104OSM   H15B10537   4.460   0.857  10.498 -1.1653  1.0039  0.9923
  104OSM   H15C10538   4.542   0.827  10.648  0.4222 -1.2382 -0.0976
  104OSM    C1410539   4.641   0.568  10.541 -0.4977  0.1510  0.5363
  104OSM   H14A10540   4.659   0.574  10.647 -2.0660  1.4431  0.7770
  104OSM   H14B10541   4.726   0.521  10.494 -0.2808  3.2208 -2.5154
  104OSM   H14C10542   4.553   0.507  10.530 -0.7533  0.7611 -1.1224
  104OSM    C1310543   4.553   0.696  10.339  0.4480  0.4110 -0.2988
  104OSM   H13A10544   4.612   0.638  10.269  1.8896  0.6484  0.6803
  104OSM   H13B10545   4.536   0.789  10.288  1.1294 -1.4547 -4.3533
  104OSM   H13C10546   4.461   0.639  10.340  0.8813 -0.3330 -1.2201
  104OSM    C1210547   4.751   0.784  10.467 -0.2072 -0.2672 -0.0726
  104OSM   H12A10548   4.780   0.799  10.570  0.1173  0.5664 -0.2836
  104OSM   H12B10549   4.732   0.886  10.437  4.1018  0.8294  0.3666
  104OSM    C1110550   4.868   0.717  10.396  0.3510 -0.3594 -0.9557
  104OSM   H11A10551   4.869   0.749  10.290  0.3940 -1.5921 -1.3521
  104OSM   H11B10552   4.845   0.608  10.400 -1.9901  0.1021  0.7663
  104OSM      P10553   5.119   0.815  10.406 -0.3416  0.1100  0.3152
  104OSM    O1310554   5.090   0.937  10.325  0.2777  1.1749 -0.3355
  104OSM    O1410555   5.215   0.832  10.521 -0.2307 -0.1881 -0.3474
  104OSM    O1110556   5.171   0.701  10.311  0.0189 -0.1073  0.0741
  104OSM    O1210557   4.984   0.755  10.466  0.7122  0.3330  0.0524
  104OSM    C1S10558   5.121   0.677  10.175  0.1972 -0.1514 -0.3926
  104OSM    H1S10559   5.079   0.767  10.124  0.6096  0.5313  0.4294
  104OSM    H1T10560   5.038   0.605  10.180 -1.1045  1.2921 -0.4200
  104OSM     NF10561   5.170   0.607   9.943  0.3696  0.3091  1.0231
  104OSM    HNF10562   5.142   0.517   9.909  0.0403  1.5862 -2.4513
  104OSM    C2S10563   5.224   0.623  10.080 -0.2901  0.2223  0.0937
  104OSM    H2S10564   5.298   0.705  10.080 -1.6405  1.4854  0.5622
  104OSM    C3S10565   5.290   0.493  10.141  0.5084 -0.1484 -0.0738
  104OSM    H3S10566   5.213   0.424  10.183  0.6327  0.8507  1.9259
  104OSM     O310567   5.365   0.527  10.257  0.1544  0.7158  0.0068
  104OSM    HO310568   5.321   0.608  10.286 -0.8138 -0.0756  0.8244
  104OSM    C4S10569   5.380   0.434  10.042 -0.1068 -0.0527  0.3196
  104OSM    H4S10570   5.463   0.496  10.004 -0.5026  0.0434 -0.4070
  104OSM    C5S10571   5.384   0.311   9.994 -0.3277  0.9258  0.5308
  104OSM    H5S10572   5.316   0.233  10.032 -0.4112 -0.5810 -2.4042
  104OSM    C6S10573   5.474   0.248   9.885  0.1556 -0.1244  0.2973
  104OSM    H6S10574   5.409   0.173   9.836 -1.6274  0.8233  1.0944
  104OSM    H6T10575   5.559   0.200   9.938 -0.7860 -2.0916  0.1062
  104OSM    C7S10576   5.530   0.339   9.778  0.2445 -0.0720  0.1776
  104OSM    H7S10577   5.590   0.420   9.826 -1.2371  1.7948 -0.9496
  104OSM    H7T10578   5.448   0.396   9.729  1.4951  1.0625 -0.6593
  104OSM    C8S10579   5.600   0.260   9.667 -0.1942  0.9058 -0.0343
  104OSM    H8S10580   5.541   0.171   9.637  1.1931 -0.2795  0.5738
  104OSM    H8T10581   5.692   0.206   9.699 -1.1163 -1.6018 -1.3351
  104OSM    C9S10582   5.642   0.339   9.542  0.3275 -0.3944  0.1099
  104OSM    H9S10583   5.548   0.363   9.488 -1.3203 -0.9328  2.5368
  104OSM    H9T10584   5.702   0.273   9.477  1.2287  4.3694 -4.6373
  104OSM   C10S10585   5.726   0.468   9.564  0.0421 -0.2756 -1.3334
  104OSM   H10S10586   5.815   0.445   9.627  0.2401  2.1449 -0.6273
  104OSM   H10T10587   5.662   0.532   9.629 -0.2854 -1.3099 -0.6012
  104OSM   C11S10588   5.761   0.531   9.425  0.1265  0.5878 -0.9201
  104OSM   H11S10589   5.673   0.571   9.370 -0.0146 -1.2795 -2.1589
  104OSM   H11T10590   5.797   0.445   9.364  0.5274 -0.1675  0.3295
  104OSM   C12S10591   5.877   0.624   9.435 -0.2597 -0.4595  0.5194
  104OSM   H12S10592   5.964   0.560   9.462  0.8768  0.2329 -1.2804
  104OSM   H12T10593   5.850   0.704   9.507  0.4852  1.3382 -1.0970
  104OSM   C13S10594   5.901   0.716   9.316 -0.2612 -0.2237 -0.2095
  104OSM   H13S10595   5.954   0.808   9.346 -0.4037  0.4089 -1.8223
  104OSM   H13T10596   5.807   0.752   9.269 -0.5123  0.6842  0.9565
  104OSM   C14S10597   5.980   0.644   9.207 -0.0285  0.1790 -0.1214
  104OSM   H14S10598   5.929   0.552   9.171 -0.7551  0.7714 -0.6439
  104OSM   H14T10599   6.081   0.613   9.240 -0.1527 -0.6169 -0.4478
  104OSM   C15S10600   6.006   0.729   9.084  0.7434 -0.4963 -0.1888
  104OSM   H15S10601   6.049   0.826   9.119 -0.0123 -0.6904  1.3611
  104OSM   H15T10602   5.913   0.760   9.031  0.6732  0.2904  0.3750
  104OSM   C16S10603   6.098   0.670   8.983  0.4460  0.5024 -0.3476
  104OSM   H16S10604   6.050   0.572   8.961  0.5897  0.3090  0.1859
  104OSM   H16T10605   6.192   0.652   9.040 -0.5685 -0.0457  1.1885
  104OSM   C17S10606   6.136   0.758   8.861 -0.3391  1.2226 -0.0161
  104OSM   H17S10607   6.183   0.853   8.896 -1.7429  1.2729  1.8751
  104OSM   H17T10608   6.042   0.798   8.818  0.3740  1.6097 -1.2979
  104OSM   C18S10609   6.221   0.681   8.758 -0.0823 -0.5345  0.2538
  104OSM   H18S10610   6.317   0.647   8.802  0.7667  1.4179 -0.0087
  104OSM   H18T10611   6.239   0.731   8.661 -5.4361 -1.9343 -1.7960
  104OSM   H18U10612   6.160   0.590   8.741 -2.0458  0.3022  2.2720
  104OSM    C1F10613   5.136   0.719   9.877 -0.2944  0.3300  0.2632
  104OSM     OF10614   5.172   0.825   9.921 -0.8179  0.2315  0.8363
  104OSM    C2F10615   5.038   0.703   9.763  0.6609 -0.4280 -1.2619
  104OSM    H2F10616   4.965   0.786   9.772  1.0590 -0.2335  0.5624
  104OSM    H2G10617   4.989   0.604   9.770  0.1414 -0.1319 -0.6046
  104OSM    C3F10618   5.108   0.718   9.631 -0.1365 -0.2067  0.4241
  104OSM    H3F10619   5.208   0.669   9.632  1.7522  3.3622  0.5948
  104OSM    H3G10620   5.113   0.825   9.603  0.6988 -1.1028 -3.5749
  104OSM    C4F10621   5.030   0.657   9.518  0.1184  0.0709  0.0573
  104OSM    H4F10622   5.071   0.706   9.427  2.1806  1.0057  1.4157
  104OSM    H4G10623   4.923   0.687   9.530  0.4638  0.4176  2.9355
  104OSM    C5F10624   5.036   0.511   9.489 -0.2310 -0.5168  0.0831
  104OSM    H5F10625   5.010   0.451   9.579 -0.5362  0.1685  0.4582
  104OSM    H5G10626   5.145   0.492   9.481 -0.3047 -1.5293  1.2461
  104OSM    C6F10627   4.959   0.470   9.359 -0.4003  0.5193 -0.0831
  104OSM    H6F10628   5.009   0.498   9.264  0.3348 -2.6011 -0.7175
  104OSM    H6G10629   4.856   0.514   9.358  0.4473  2.7471  1.6434
  104OSM    C7F10630   4.942   0.315   9.350  0.4187  0.2948  0.3433
  104OSM    H7F10631   4.906   0.272   9.445  1.5593  0.4210  0.8461
  104OSM    H7G10632   5.031   0.259   9.315  1.2206 -0.7705  3.8116
  104OSM    C8F10633   4.838   0.265   9.244  0.5345 -0.2908  0.3785
  104OSM    H8F10634   4.739   0.305   9.277  0.5092  0.1583 -0.2296
  104OSM    H8G10635   4.818   0.156   9.252 -0.1067 -0.2179 -0.1218
  104OSM    C9F10636   4.866   0.317   9.099 -0.3054 -0.3663 -0.3416
  104OSM    H9F10637   4.887   0.425   9.093 -2.4091  0.0408 -1.3504
  104OSM   C10F10638   4.861   0.258   8.978 -0.3880  0.0929 -0.0312
  104OSM   H10F10639   4.884   0.314   8.887  0.6064 -0.7173 -0.2972
  104OSM   C11F10640   4.823   0.111   8.970 -0.1032 -0.2799 -0.6914
  104OSM   H11F10641   4.737   0.101   8.900 -1.3092 -2.0239  0.9531
  104OSM   H11G10642   4.784   0.075   9.067 -2.5267  0.5551 -1.2866
  104OSM   C12F10643   4.942   0.022   8.949  0.1198 -0.2182  0.8677
  104OSM   H12F10644   5.029   0.064   9.002  0.2823  0.1442  0.3250
  104OSM   H12G10645   4.966   0.041   8.842  2.0217 -1.9190  0.9375
  104OSM   C13F10646   4.930  -0.130   8.976 -0.1277  0.2132 -0.4622
  104OSM   H13F10647   4.865  -0.147   9.065 -0.8789 -0.0641 -1.0453
  104OSM   H13G10648   5.033  -0.164   8.998 -0.4989 -0.4038  0.4263
  104OSM   C14F10649   4.873  -0.205   8.859  0.3155 -0.4142  0.5836
  104OSM   H14F10650   4.948  -0.227   8.781 -0.0947  1.2099 -0.3028
  104OSM   H14G10651   4.790  -0.152   8.807  1.2323  0.2976 -0.1782
  104OSM   C15F10652   4.817  -0.332   8.916 -0.1969 -0.4116 -0.9440
  104OSM   H15F10653   4.716  -0.316   8.959  0.5789 -2.1120  1.8587
  104OSM   H15G10654   4.885  -0.372   8.995  2.2479  2.1630 -1.5899
  104OSM   C16F10655   4.789  -0.428   8.798  0.0861 -0.1207  0.2316
  104OSM   H16F10656   4.886  -0.444   8.747 -0.3595  0.7417 -0.9337
  104OSM   H16G10657   4.724  -0.376   8.725 -0.3474  0.3612  0.9459
  104OSM   C17F10658   4.722  -0.561   8.832 -0.0033 -0.2960  0.2686
  104OSM   H17F10659   4.781  -0.601   8.917  2.8515  1.6619 -0.6677
  104OSM   H17G10660   4.728  -0.630   8.745 -2.2816 -0.2922  0.0418
  104OSM   C18F10661   4.583  -0.537   8.877  0.2610  0.8873 -0.3818
  104OSM   H18F10662   4.538  -0.638   8.885  0.7359  0.4767 -2.2952
  104OSM   H18G10663   4.517  -0.481   8.807  0.1577 -0.4537 -1.3917
  104OSM   H18H10664   4.582  -0.491   8.978  0.8894  0.7972 -0.3293
  105OSM      N10665   5.326   6.648  10.575  0.3056  0.6232 -0.2310
  105OSM    C1510666   5.213   6.739  10.585  0.0291 -0.1815  0.1201
  105OSM   H15A10667   5.229   6.822  10.518 -1.8744 -0.2815 -0.5054
  105OSM   H15B10668   5.209   6.772  10.687  0.7948 -2.5494  0.9793
  105OSM   H15C10669   5.125   6.693  10.544  1.4843 -1.1902 -2.1064
  105OSM    C1410670   5.452   6.734  10.590  0.5844  0.1671 -0.6340
  105OSM   H14A10671   5.454   6.787  10.685 -1.4252 -1.1595  0.2026
  105OSM   H14B10672   5.465   6.814  10.519  0.5453  1.6968  0.9990
  105OSM   H14C10673   5.540   6.672  10.585 -1.0190 -2.1199 -1.9940
  105OSM    C1310674   5.318   6.542  10.686  0.7325 -0.3960 -1.0992
  105OSM   H13A10675   5.226   6.486  10.675 -0.3170  0.5098  1.9624
  105OSM   H13B10676   5.317   6.599  10.778 -1.0871 -0.5801 -0.9568
  105OSM   H13C10677   5.401   6.473  10.679  2.3326  1.3287 -0.1992
  105OSM    C1210678   5.316   6.576  10.442  0.1273 -0.6921  0.1510
  105OSM   H12A10679   5.325   6.656  10.371  0.4503  0.0472  0.9986
  105OSM   H12B10680   5.219   6.531  10.428  1.2288 -3.4061  0.5207
  105OSM    C1110681   5.416   6.464  10.412 -0.2449  0.7091 -0.5802
  105OSM   H11A10682   5.520   6.480  10.447  0.2564 -1.5808 -0.8777
  105OSM   H11B10683   5.424   6.463  10.301 -1.6893 -0.1524 -0.7036
  105OSM      P10684   5.237   6.267  10.433  0.2430 -0.1912  0.0387
  105OSM    O1310685   5.231   6.149  10.523  0.0103  0.0424  0.0099
  105OSM    O1410686   5.119   6.358  10.435  0.2813  0.3833 -0.0162
  105OSM    O1110687   5.266   6.222  10.278 -0.3366 -0.5575  0.0904
  105OSM    O1210688   5.376   6.341  10.470 -0.3664  0.6645  0.2338
  105OSM    C1S10689   5.391   6.163  10.256 -0.0616  0.2068  1.2564
  105OSM    H1S10690   5.389   6.058  10.291  0.6149  0.2255  1.3641
  105OSM    H1T10691   5.478   6.220  10.295  0.5141  1.0369 -1.0575
  105OSM     NF10692   5.533   6.089  10.072  0.1125  0.0793  0.3611
  105OSM    HNF10693   5.613   6.142  10.045  1.4288 -1.9398  0.0974
  105OSM    C2S10694   5.410   6.159  10.102  0.1290 -0.2169  0.2168
  105OSM    H2S10695   5.326   6.100  10.060 -0.0058  0.7085 -0.8357
  105OSM    C3S10696   5.396   6.296  10.039 -0.0418  0.1033 -0.4915
  105OSM    H3S10697   5.477   6.363  10.076 -0.2588  0.6117 -0.9245
  105OSM     O310698   5.273   6.360  10.064 -0.1626 -0.6010 -0.0796
  105OSM    HO310699   5.241   6.325  10.147 -1.1297 -1.7037 -0.8919
  105OSM    C4S10700   5.423   6.304   9.892  0.6174  0.8758 -0.1801
  105OSM    H4S10701   5.524   6.326   9.855  0.1172  0.8883 -1.6119
  105OSM    C5S10702   5.337   6.287   9.791  0.7211  0.3432 -0.0883
  105OSM    H5S10703   5.233   6.260   9.815 -1.2818  2.4382 -5.0777
  105OSM    C6S10704   5.357   6.318   9.652 -0.2574 -0.2521  0.3473
  105OSM    H6S10705   5.315   6.415   9.620  1.8704  0.3510 -0.8071
  105OSM    H6T10706   5.304   6.247   9.584 -0.0971  0.2474 -0.3123
  105OSM    C7S10707   5.504   6.334   9.599 -0.3867 -0.0894  0.3827
  105OSM    H7S10708   5.557   6.241   9.627  1.4274  0.2064 -1.8388
  105OSM    H7T10709   5.553   6.421   9.648 -1.3526  0.0768  1.0994
  105OSM    C8S10710   5.506   6.329   9.446 -0.0883  0.9692  0.2091
  105OSM    H8S10711   5.454   6.423   9.421  0.6502  2.3027  3.2185
  105OSM    H8T10712   5.457   6.244   9.393 -0.6003  1.5869 -0.3157
  105OSM    C9S10713   5.650   6.342   9.387  0.1071 -0.2878  0.1754
  105OSM    H9S10714   5.705   6.249   9.414  2.4651  1.1232  0.4977
  105OSM    H9T10715   5.695   6.422   9.451 -0.1619 -0.1703  0.2208
  105OSM   C10S10716   5.662   6.385   9.243 -0.4466  0.7122  0.2801
  105OSM   H10S10717   5.621   6.488   9.240 -1.0378  0.4583 -0.9276
  105OSM   H10T10718   5.601   6.326   9.171  1.7513  0.3046 -1.3442
  105OSM   C11S10719   5.807   6.394   9.202  0.1967 -0.1289  0.1253
  105OSM   H11S10720   5.827   6.290   9.170 -0.5812 -0.4291  0.5934
  105OSM   H11T10721   5.875   6.430   9.282 -1.2130  1.6635  0.5873
  105OSM   C12S10722   5.823   6.505   9.102 -0.5911  0.2378 -0.2775
  105OSM   H12S10723   5.785   6.599   9.147  4.1754  0.6327  3.8261
  105OSM   H12T10724   5.776   6.474   9.006  1.6997  1.6845 -1.9881
  105OSM   C13S10725   5.965   6.554   9.074  0.0603  0.3444 -0.1602
  105OSM   H13S10726   6.006   6.577   9.175  0.6101  0.2461 -0.3554
  105OSM   H13T10727   5.961   6.646   9.011 -3.1273 -0.0895 -0.7680
  105OSM   C14S10728   6.059   6.450   9.014 -0.2549  0.1074  0.3078
  105OSM   H14S10729   6.028   6.352   9.057 -1.2042  0.4894  0.5226
  105OSM   H14T10730   6.164   6.475   9.040 -1.2759  2.9351  2.1376
  105OSM   C15S10731   6.059   6.433   8.866 -0.1388 -0.2184  0.1726
  105OSM   H15S10732   5.956   6.462   8.837  0.2868  0.6629 -0.5165
  105OSM   H15T10733   6.075   6.329   8.831  0.3745 -0.7637  1.9205
  105OSM   C16S10734   6.164   6.520   8.793 -0.3149 -0.1410  0.6348
  105OSM   H16S10735   6.262   6.471   8.806 -0.6138 -0.0818  3.7664
  105OSM   H16T10736   6.175   6.622   8.836  0.4562  0.2500 -0.4507
  105OSM   C17S10737   6.148   6.526   8.641  0.1427 -0.5911  0.4749
  105OSM   H17S10738   6.129   6.426   8.596  1.6891 -0.5587 -0.3149
  105OSM   H17T10739   6.251   6.556   8.611 -0.0732  0.5912  0.8799
  105OSM   C18S10740   6.048   6.623   8.586  0.7514 -0.0768 -0.2087
  105OSM   H18S10741   5.949   6.581   8.614  0.8583 -0.7485 -0.7911
  105OSM   H18T10742   6.053   6.628   8.475 -0.8375 -3.3676 -0.5631
  105OSM   H18U10743   6.043   6.723   8.634  1.8493 -0.2782  0.3597
  105OSM    C1F10744   5.555   5.959  10.090  0.1425  0.5515  0.1123
  105OSM     OF10745   5.469   5.872  10.122 -0.2182 -0.2075 -0.7323
  105OSM    C2F10746   5.698   5.909  10.084  0.0899  0.0375  0.5247
  105OSM    H2F10747   5.717   5.837  10.166  0.7042 -0.9194 -0.4405
  105OSM    H2G10748   5.766   5.995  10.106  1.8211 -1.0538 -0.3704
  105OSM    C3F10749   5.743   5.825   9.961 -0.6829  0.6643 -0.1502
  105OSM    H3F10750   5.671   5.742   9.947 -1.7930  1.1634  2.1370
  105OSM    H3G10751   5.843   5.787   9.989 -0.5262  0.2514 -1.2015
  105OSM    C4F10752   5.754   5.912   9.842  0.6985 -0.0206  0.2509
  105OSM    H4F10753   5.825   5.998   9.844  0.1972  0.6383 -3.3939
  105OSM    H4G10754   5.653   5.954   9.823  0.8971 -0.0953 -1.1148
  105OSM    C5F10755   5.781   5.827   9.711 -0.4485  0.3229  0.0677
  105OSM    H5F10756   5.703   5.747   9.705  2.8029 -3.0380 -1.1013
  105OSM    H5G10757   5.874   5.767   9.721  0.0305  1.2169  1.2305
  105OSM    C6F10758   5.777   5.893   9.573  0.1763 -0.2268 -0.1290
  105OSM    H6F10759   5.841   5.983   9.583 -0.1875  0.0031  0.1615
  105OSM    H6G10760   5.671   5.919   9.554  0.2747  0.6082  0.4477
  105OSM    C7F10761   5.829   5.801   9.461 -0.0223  0.5648 -0.0676
  105OSM    H7F10762   5.763   5.712   9.451  0.4485  0.3240 -1.0990
  105OSM    H7G10763   5.934   5.774   9.486 -0.3248 -0.2420  0.3634
  105OSM    C8F10764   5.819   5.862   9.315  0.1824  0.8688  0.0075
  105OSM    H8F10765   5.855   5.966   9.327  1.2754  0.5598 -0.4873
  105OSM    H8G10766   5.710   5.860   9.292 -0.1449 -0.8428  1.4895
  105OSM    C9F10767   5.884   5.767   9.220 -0.3787 -0.3459  0.5117
  105OSM    H9F10768   5.937   5.680   9.262  0.5809 -0.0500 -0.0567
  105OSM   C10F10769   5.890   5.785   9.093 -0.1956  0.0045  0.0874
  105OSM   H10F10770   5.926   5.706   9.025 -1.6972 -1.0384  0.4422
  105OSM   C11F10771   5.822   5.899   9.018  0.3180 -0.1317 -0.1017
  105OSM   H11F10772   5.802   5.988   9.081  1.2784 -0.3777  0.5819
  105OSM   H11G10773   5.721   5.873   8.978 -1.0605  0.8396  2.4872
  105OSM   C12F10774   5.914   5.957   8.907  0.0894  0.7160 -0.3553
  105OSM   H12F10775   5.941   5.873   8.839 -0.5987  1.9503 -2.2086
  105OSM   H12G10776   6.009   6.001   8.945  0.3894  1.6802 -2.1203
  105OSM   C13F10777   5.841   6.066   8.822 -0.2040 -0.4865  0.0324
  105OSM   H13F10778   5.852   6.159   8.881  2.3381 -0.2376 -0.7120
  105OSM   H13G10779   5.735   6.041   8.801 -0.2445 -2.2082  1.9650
  105OSM   C14F10780   5.936   6.092   8.700  0.3358 -0.7253  0.3710
  105OSM   H14F10781   5.961   5.994   8.655  1.4848 -0.4760  0.4262
  105OSM   H14G10782   6.028   6.131   8.748 -0.4243  0.7576  0.6768
  105OSM   C15F10783   5.884   6.191   8.597  0.0742 -0.0290  0.1320
  105OSM   H15F10784   5.963   6.215   8.523 -1.7961  0.8447 -1.6868
  105OSM   H15G10785   5.858   6.287   8.648 -3.0656 -1.3453  1.3161
  105OSM   C16F10786   5.757   6.143   8.523  0.1019 -0.1355 -1.0210
  105OSM   H16F10787   5.673   6.187   8.580  1.5471  2.9054 -1.0339
  105OSM   H16G10788   5.754   6.033   8.537 -0.9743  0.1196  1.0105
  105OSM   C17F10789   5.751   6.185   8.375  0.1126  0.0096  0.4602
  105OSM   H17F10790   5.666   6.140   8.320  3.2163 -1.9118 -3.2739
  105OSM   H17G10791   5.839   6.137   8.327  0.3376 -0.2633  1.1304
  105OSM   C18F10792   5.742   6.337   8.348 -0.3770 -0.7781  0.2147
  105OSM   H18F10793   5.839   6.381   8.380 -0.4592 -0.5234  0.1120
  105OSM   H18G10794   5.651   6.373   8.401  0.9960  1.5749  1.1296
  105OSM   H18H10795   5.738   6.352   8.238  2.8887 -1.1694 -0.0484
  106OSM      N10796   0.365   4.453  10.879 -0.3670 -0.0305 -0.0995
  106OSM    C1510797   0.413   4.587  10.929 -0.1169  0.0113  0.2292
  106OSM   H15A10798   0.350   4.673  10.912  0.3969  0.3178 -0.1677
  106OSM   H15B10799   0.506   4.613  10.880 -0.8952 -1.7041 -2.4023
  106OSM   H15C10800   0.427   4.590  11.036  0.3791  0.8881  0.1512
  106OSM    C1410801   0.452   4.345  10.934  0.1303 -0.4968  0.2794
  106OSM   H14A10802   0.559   4.356  10.917  0.2040 -0.7879  0.5603
  106OSM   H14B10803   0.428   4.245  10.903  0.3558  0.0095 -1.6983
  106OSM   H14C10804   0.436   4.337  11.040 -2.3246  0.4353  0.0517
  106OSM    C1310805   0.229   4.420  10.931  0.5378 -0.0309  0.1878
  106OSM   H13A10806   0.149   4.491  10.915  0.8959  0.5443  0.9094
  106OSM   H13B10807   0.236   4.419  11.038 -0.9960  0.5006  0.3196
  106OSM   H13C10808   0.185   4.325  10.902 -1.7858  0.2775  2.3795
  106OSM    C1210809   0.361   4.461  10.732 -0.0134 -0.0878  0.3157
  106OSM   H12A10810   0.450   4.517  10.707 -0.2968  0.5691  0.7376
  106OSM   H12B10811   0.270   4.513  10.704 -0.7052  0.5095  3.3267
  106OSM    C1110812   0.375   4.334  10.654 -0.5229  0.0884  0.2320
  106OSM   H11A10813   0.475   4.287  10.668 -0.9188 -0.8861 -0.0674
  106OSM   H11B10814   0.388   4.372  10.551  1.0700 -0.5680  0.1574
  106OSM      P10815   0.263   4.103  10.715 -0.0073 -0.1736 -0.4002
  106OSM    O1310816   0.387   4.081  10.801  0.6860  0.8765  0.9656
  106OSM    O1410817   0.137   4.078  10.778  0.7406 -0.5005  0.1786
  106OSM    O1110818   0.261   4.004  10.593 -0.4215 -0.5965 -0.5682
  106OSM    O1210819   0.257   4.250  10.665 -0.6093 -0.5944  0.2813
  106OSM    C1S10820   0.243   4.055  10.459 -0.3031 -0.2609 -0.1002
  106OSM    H1S10821   0.339   4.096  10.422 -0.1203 -1.4771 -1.0619
  106OSM    H1T10822   0.167   4.135  10.444 -1.0825 -0.3358  2.8797
  106OSM     NF10823   0.149   3.995  10.226 -0.6475 -0.4449  0.2605
  106OSM    HNF10824   0.053   4.009  10.204 -0.1411 -0.5425 -2.2825
  106OSM    C2S10825   0.177   3.946  10.360 -0.5897  0.1920 -0.5967
  106OSM    H2S10826   0.256   3.869  10.343 -0.7337 -0.0963 -0.0087
  106OSM    C3S10827   0.060   3.867  10.431 -0.1444 -0.3924 -0.3367
  106OSM    H3S10828  -0.032   3.926  10.450 -0.2124  1.0850 -4.2807
  106OSM     O310829   0.102   3.790  10.543  0.6267 -0.0848  0.7541
  106OSM    HO310830   0.186   3.829  10.569 -0.5974  1.8739  1.9604
  106OSM    C4S10831   0.012   3.757  10.329 -0.3486 -0.1967 -0.7225
  106OSM    H4S10832   0.081   3.671  10.319  1.0005  0.3208  2.7323
  106OSM    C5S10833  -0.084   3.780  10.241 -0.0053 -0.0220 -0.6813
  106OSM    H5S10834  -0.138   3.876  10.243  1.2012  0.7275 -1.8916
  106OSM    C6S10835  -0.116   3.690  10.128 -0.0712  0.1403  0.1546
  106OSM    H6S10836  -0.221   3.653  10.132  0.2189 -0.6507  0.6773
  106OSM    H6T10837  -0.045   3.605  10.123  0.3040  0.4077  0.8177
  106OSM    C7S10838  -0.099   3.765   9.990 -0.5484 -0.5053  0.0485
  106OSM    H7S10839   0.003   3.809   9.977 -1.4469  1.1479 -2.0410
  106OSM    H7T10840  -0.178   3.842   9.993  0.0884  0.1293  1.1118
  106OSM    C8S10841  -0.134   3.672   9.876  0.2440  0.6944 -0.5166
  106OSM    H8S10842  -0.228   3.625   9.912  0.5393  0.8811  0.5248
  106OSM    H8T10843  -0.063   3.587   9.869 -1.7422 -1.0538 -0.4910
  106OSM    C9S10844  -0.142   3.742   9.745 -0.3281  0.0503  0.3093
  106OSM    H9S10845  -0.046   3.774   9.699 -1.7067  1.9923 -1.4234
  106OSM    H9T10846  -0.199   3.838   9.744  1.2259  1.0386 -1.8929
  106OSM   C10S10847  -0.220   3.649   9.646  0.3388 -0.7405 -0.9640
  106OSM   H10S10848  -0.326   3.682   9.643  1.1449  2.2934  0.0770
  106OSM   H10T10849  -0.220   3.542   9.677  0.4889 -0.3737  0.4103
  106OSM   C11S10850  -0.159   3.642   9.506  0.1383 -0.0984  0.5656
  106OSM   H11S10851  -0.203   3.548   9.467  0.2934 -1.0409  2.5360
  106OSM   H11T10852  -0.049   3.628   9.513  0.4346  1.1876 -0.9471
  106OSM   C12S10853  -0.182   3.767   9.412 -0.0869 -0.4725 -0.2982
  106OSM   H12S10854  -0.111   3.843   9.451  1.3491 -0.5905 -2.5164
  106OSM   H12T10855  -0.287   3.799   9.429  0.2958 -0.0603  1.5189
  106OSM   C13S10856  -0.167   3.732   9.258  0.1754 -0.0189 -0.4183
  106OSM   H13S10857  -0.066   3.687   9.251  1.5491  2.6817  0.6487
  106OSM   H13T10858  -0.153   3.825   9.199 -2.8516  0.3274 -0.7630
  106OSM   C14S10859  -0.283   3.638   9.203 -0.0920  0.3696  1.1897
  106OSM   H14S10860  -0.335   3.594   9.291  0.7296 -1.3193  0.8692
  106OSM   H14T10861  -0.235   3.559   9.142  0.8972  0.6689  1.5531
  106OSM   C15S10862  -0.384   3.716   9.111  0.3212  0.1417  0.3892
  106OSM   H15S10863  -0.331   3.749   9.019  1.8572  1.6707  1.7596
  106OSM   H15T10864  -0.429   3.801   9.165  0.4332 -0.2483  1.1039
  106OSM   C16S10865  -0.505   3.620   9.063  0.4600 -0.1840  0.2626
  106OSM   H16S10866  -0.566   3.584   9.149  0.0986  0.3977  0.2536
  106OSM   H16T10867  -0.477   3.531   9.003 -1.0764 -0.4254 -0.1407
  106OSM   C17S10868  -0.603   3.696   8.965  0.1998  0.1088 -0.1038
  106OSM   H17S10869  -0.539   3.739   8.884  1.8716 -0.4368  0.8763
  106OSM   H17T10870  -0.649   3.788   9.007 -2.4062 -0.7626 -0.8821
  106OSM   C18S10871  -0.715   3.609   8.898 -0.1152  0.6580 -0.4944
  106OSM   H18S10872  -0.765   3.667   8.817 -0.1821  0.6272 -0.4754
  106OSM   H18T10873  -0.801   3.582   8.963  0.1065 -0.8056 -0.7724
  106OSM   H18U10874  -0.675   3.517   8.849  2.4685  0.9593  0.8797
  106OSM    C1F10875   0.249   4.040  10.150 -0.5133 -0.3450  0.2215
  106OSM     OF10876   0.365   4.025  10.181 -0.5068 -0.2535  0.4993
  106OSM    C2F10877   0.213   4.097  10.018  0.2549  0.2153 -0.5767
  106OSM    H2F10878   0.238   4.205  10.008 -0.0928  0.3179 -0.3287
  106OSM    H2G10879   0.103   4.091  10.009  0.1658  0.1268  0.4788
  106OSM    C3F10880   0.296   4.024   9.907  0.8767  0.4327 -0.4514
  106OSM    H3F10881   0.243   3.926   9.910 -1.3604  1.5986  0.5794
  106OSM    H3G10882   0.403   4.012   9.934  0.7990  0.2594 -0.2163
  106OSM    C4F10883   0.255   4.069   9.766 -0.2980 -0.4051  0.6988
  106OSM    H4F10884   0.306   4.165   9.745 -1.8606  0.5076  0.8936
  106OSM    H4G10885   0.149   4.100   9.782  0.3799  1.2379  2.3957
  106OSM    C5F10886   0.276   3.966   9.658  0.0236  0.8737 -0.0048
  106OSM    H5F10887   0.208   3.879   9.670  0.8708  0.3149  0.9334
  106OSM    H5G10888   0.378   3.922   9.671  0.8786  3.1217  1.4561
  106OSM    C6F10889   0.252   4.025   9.514 -0.8232  0.5430  0.0548
  106OSM    H6F10890   0.283   4.131   9.526  2.5741 -0.5392  2.3097
  106OSM    H6G10891   0.145   4.016   9.489 -0.4402 -2.8408 -0.9890
  106OSM    C7F10892   0.322   3.931   9.411 -0.2288 -0.1062  0.2123
  106OSM    H7F10893   0.269   3.834   9.414 -0.4636 -0.1845 -3.1896
  106OSM    H7G10894   0.424   3.911   9.452  0.2126  0.4352 -0.5797
  106OSM    C8F10895   0.330   3.988   9.270  0.2557 -0.7372 -0.4630
  106OSM    H8F10896   0.371   4.091   9.278  0.6501 -0.8940 -0.4487
  106OSM    H8G10897   0.226   4.010   9.238 -0.8295 -1.2896  2.3963
  106OSM    C9F10898   0.412   3.913   9.166 -0.1459 -0.1886 -0.8898
  106OSM    H9F10899   0.440   3.813   9.200 -0.8994 -0.2327 -0.3757
  106OSM   C10F10900   0.449   3.956   9.052 -0.7465 -0.5814 -0.1334
  106OSM   H10F10901   0.515   3.896   8.987 -2.1697 -0.9371 -1.2971
  106OSM   C11F10902   0.416   4.089   8.984  0.1997  0.2222  0.4994
  106OSM   H11F10903   0.512   4.141   8.965  0.9542 -1.4166 -0.4355
  106OSM   H11G10904   0.339   4.145   9.041 -1.3907 -0.0048 -1.3160
  106OSM   C12F10905   0.349   4.057   8.849 -0.4402  0.1787 -0.7141
  106OSM   H12F10906   0.272   3.977   8.857 -1.7599  1.5326  0.4432
  106OSM   H12G10907   0.424   4.007   8.783 -1.1304 -2.1793  0.1613
  106OSM   C13F10908   0.301   4.178   8.778 -0.0239  0.3573  0.7426
  106OSM   H13F10909   0.393   4.239   8.768 -0.1315  0.8050  2.2462
  106OSM   H13G10910   0.216   4.229   8.829 -1.7877 -1.9615  0.3050
  106OSM   C14F10911   0.248   4.156   8.630 -0.2006 -0.5302 -0.0252
  106OSM   H14F10912   0.191   4.243   8.589  1.1220 -0.6521 -2.3213
  106OSM   H14G10913   0.183   4.066   8.619 -0.8036 -0.1898  0.7037
  106OSM   C15F10914   0.354   4.129   8.520 -0.1703  0.4218  0.2475
  106OSM   H15F10915   0.409   4.035   8.543 -1.5932 -0.6391 -0.5657
  106OSM   H15G10916   0.435   4.205   8.517 -0.5495  0.8126 -2.2517
  106OSM   C16F10917   0.302   4.105   8.378  0.1202 -1.2856 -0.6895
  106OSM   H16F10918   0.311   4.198   8.317 -1.1991 -0.8282 -0.2181
  106OSM   H16G10919   0.195   4.080   8.393  0.2809 -0.8402  1.4588
  106OSM   C17F10920   0.359   3.979   8.311  0.2050 -0.3618  0.6039
  106OSM   H17F10921   0.309   3.896   8.365 -1.1482  0.4892  0.7132
  106OSM   H17G10922   0.470   3.973   8.318  0.3949  0.9455 -0.7986
  106OSM   C18F10923   0.333   3.984   8.162 -0.8007  0.2102  0.2133
  106OSM   H18F10924   0.389   4.064   8.108  1.3329 -1.9768 -1.0264
  106OSM   H18G10925   0.228   3.992   8.127 -1.0252 -1.8632  0.3011
  106OSM   H18H10926   0.366   3.886   8.123  0.7465  0.5864  0.4994
  107OSM      N10927   1.871   1.762  11.139 -0.6203 -0.1600  0.3205
  107OSM    C1510928   2.003   1.832  11.101  0.0630  0.5249  0.4877
  107OSM   H15A10929   1.976   1.932  11.073  1.0678  0.4506 -0.8879
  107OSM   H15B10930   2.062   1.769  11.036  0.0444  1.8578 -0.8760
  107OSM   H15C10931   2.069   1.846  11.185  0.3618 -2.4176  0.8479
  107OSM    C1410932   1.900   1.637  11.211  0.2294  0.0743 -0.0826
  107OSM   H14A10933   1.959   1.654  11.300  0.3386 -2.0159  0.2856
  107OSM   H14B10934   1.964   1.573  11.153  1.6739  0.0421  1.4730
  107OSM   H14C10935   1.812   1.579  11.236 -0.9587 -0.6407 -4.9039
  107OSM    C1310936   1.783   1.854  11.219  0.0465 -0.0203  0.1800
  107OSM   H13A10937   1.837   1.908  11.295 -0.1386 -0.7427  0.8425
  107OSM   H13B10938   1.713   1.794  11.276 -0.2159 -3.2020 -3.1387
  107OSM   H13C10939   1.726   1.912  11.148 -0.8974 -1.9128 -0.6948
  107OSM    C1210940   1.795   1.722  11.012 -0.7036  0.0367  0.1280
  107OSM   H12A10941   1.709   1.663  11.041 -0.0226 -1.2849 -0.4567
  107OSM   H12B10942   1.855   1.649  10.960  0.4587  0.0076  1.4412
  107OSM    C1110943   1.750   1.827  10.907  0.5214  0.3350  0.1942
  107OSM   H11A10944   1.702   1.763  10.831  1.0738 -1.5042  1.3146
  107OSM   H11B10945   1.846   1.861  10.862  1.2468  0.7703  1.9855
  107OSM      P10946   1.534   1.965  10.954  0.1362 -0.1396 -0.1000
  107OSM    O1310947   1.471   1.840  11.004 -0.1651  0.1440  0.4004
  107OSM    O1410948   1.502   2.091  11.026  0.3517 -0.1535 -0.0053
  107OSM    O1110949   1.507   1.978  10.798  0.1269 -0.1005  0.6615
  107OSM    O1210950   1.690   1.942  10.960 -0.1108 -0.0476  0.3855
  107OSM    C1S10951   1.605   2.064  10.733 -0.1552 -0.0336  0.5751
  107OSM    H1S10952   1.706   2.020  10.722  0.1358  0.5170  0.9574
  107OSM    H1T10953   1.624   2.159  10.787  0.2489  1.5217 -2.1344
  107OSM     NF10954   1.661   2.194  10.537 -0.2614  0.3057  0.0792
  107OSM    HNF10955   1.629   2.283  10.503 -0.5049  0.7791  1.4880
  107OSM    C2S10956   1.555   2.119  10.595 -0.8263 -0.6176  0.2854
  107OSM    H2S10957   1.536   2.035  10.525 -0.7383  0.3832 -0.9630
  107OSM    C3S10958   1.416   2.201  10.600 -0.7088  0.9965 -0.4129
  107OSM    H3S10959   1.432   2.294  10.660 -0.3482  0.2584  0.6591
  107OSM     O310960   1.319   2.133  10.686 -0.0698 -0.3275  0.2187
  107OSM    HO310961   1.379   2.071  10.730 -0.4294 -0.5199  0.4417
  107OSM    C4S10962   1.359   2.236  10.469 -1.4203 -0.5792 -0.2165
  107OSM    H4S10963   1.401   2.332  10.436 -0.0999 -1.4865 -1.2952
  107OSM    C5S10964   1.293   2.155  10.380 -0.2181  0.7014 -0.2175
  107OSM    H5S10965   1.286   2.052  10.418 -0.7274  0.9440  0.3760
  107OSM    C6S10966   1.251   2.195  10.245  0.0487 -0.3862  0.1175
  107OSM    H6S10967   1.289   2.299  10.233  1.2612 -0.8405 -0.1672
  107OSM    H6T10968   1.141   2.189  10.235  0.3229 -1.7781 -3.0964
  107OSM    C7S10969   1.302   2.107  10.127 -0.8794 -0.6055  0.2445
  107OSM    H7S10970   1.255   2.006  10.133 -0.1870 -0.9384  0.0660
  107OSM    H7T10971   1.411   2.094  10.137 -0.5637  0.1451 -1.7687
  107OSM    C8S10972   1.274   2.177   9.987  0.7957 -0.2108  0.0492
  107OSM    H8S10973   1.336   2.130   9.908  0.9609  0.6796 -0.3638
  107OSM    H8T10974   1.296   2.286   9.988  0.5897 -0.1507 -0.8269
  107OSM    C9S10975   1.130   2.160   9.941 -0.1714  0.6096 -0.2158
  107OSM    H9S10976   1.066   2.180  10.030 -0.7658  2.7255 -1.0537
  107OSM    H9T10977   1.112   2.057   9.906  1.8693  0.5350 -1.1998
  107OSM   C10S10978   1.084   2.247   9.821 -0.2362 -0.1476  0.8646
  107OSM   H10S10979   1.078   2.354   9.849 -0.7675 -0.3402  1.5114
  107OSM   H10T10980   0.979   2.218   9.800 -0.0133 -0.0556 -0.5106
  107OSM   C11S10981   1.156   2.237   9.680  0.1216 -0.1080  0.0142
  107OSM   H11S10982   1.164   2.143   9.622  0.0535  0.0672 -0.2845
  107OSM   H11T10983   1.252   2.290   9.698 -0.7695  0.7554  2.6506
  107OSM   C12S10984   1.088   2.332   9.577 -0.3023  0.4860 -0.8963
  107OSM   H12S10985   1.083   2.432   9.625  0.6584  0.6264 -1.0680
  107OSM   H12T10986   0.981   2.303   9.565  0.2842 -1.4807 -1.5946
  107OSM   C13S10987   1.159   2.352   9.444 -0.2276 -0.2952  0.3614
  107OSM   H13S10988   1.171   2.256   9.389  0.5677 -0.0960  0.1683
  107OSM   H13T10989   1.264   2.380   9.467  0.5279 -0.4334 -2.5244
  107OSM   C14S10990   1.090   2.452   9.344 -0.5375 -0.0018 -0.9601
  107OSM   H14S10991   1.084   2.552   9.394 -1.2109  0.3332 -1.6817
  107OSM   H14T10992   0.982   2.436   9.324 -1.2810  1.3050  1.5682
  107OSM   C15S10993   1.172   2.469   9.212 -0.3337 -0.8686 -0.6772
  107OSM   H15S10994   1.161   2.373   9.156 -4.1719 -0.1853 -1.3483
  107OSM   H15T10995   1.272   2.484   9.257 -0.9455  1.4219  0.0281
  107OSM   C16S10996   1.121   2.586   9.129 -0.4464  0.6802  0.0963
  107OSM   H16S10997   1.123   2.674   9.196 -2.0628  0.9153 -0.1235
  107OSM   H16T10998   1.016   2.567   9.098 -0.5410  1.4025 -0.0476
  107OSM   C17S10999   1.208   2.627   9.009 -0.1658 -0.0632 -0.0170
  107OSM   H17S11000   1.301   2.678   9.042  1.4140 -1.7500 -1.6536
  107OSM   H17T11001   1.154   2.691   8.936  2.1109  0.9340 -0.9292
  107OSM   C18S11002   1.244   2.503   8.929  0.4107 -0.2658  0.3815
  107OSM   H18S11003   1.313   2.439   8.988  1.3163  0.5069  0.1917
  107OSM   H18T11004   1.303   2.514   8.835  0.6733 -2.5683  0.2253
  107OSM   H18U11005   1.148   2.456   8.899 -0.7657  3.9169 -3.7491
  107OSM    C1F11006   1.784   2.155  10.489 -0.4085 -0.1827 -0.3324
  107OSM     OF11007   1.833   2.044  10.514  0.3334 -0.0044 -0.1305
  107OSM    C2F11008   1.861   2.260  10.417 -0.5307 -0.2498  0.0169
  107OSM    H2F11009   1.966   2.253  10.452  0.1712  3.9982 -0.6078
  107OSM    H2G11010   1.842   2.365  10.450  0.5741 -0.7939  2.6228
  107OSM    C3F11011   1.867   2.247  10.267 -0.3440  0.0963  0.2664
  107OSM    H3F11012   1.878   2.143  10.230 -0.3064  0.2058 -0.0360
  107OSM    H3G11013   1.945   2.313  10.222 -0.8573 -1.4379 -3.2297
  107OSM    C4F11014   1.739   2.306  10.212  0.7503  0.4271 -0.3792
  107OSM    H4F11015   1.728   2.413  10.241 -0.9843  1.0490 -2.9785
  107OSM    H4G11016   1.656   2.241  10.247  1.8507 -1.0665 -0.4714
  107OSM    C5F11017   1.743   2.295  10.051  0.5300 -0.4013 -0.1678
  107OSM    H5F11018   1.762   2.192  10.016  0.7542 -1.3867  2.6211
  107OSM    H5G11019   1.827   2.363  10.025  1.1574 -1.7072 -1.6697
  107OSM    C6F11020   1.623   2.343   9.970 -0.3557 -0.3525  0.5347
  107OSM    H6F11021   1.600   2.445  10.008  0.0911 -0.2311  0.4878
  107OSM    H6G11022   1.539   2.271   9.984 -0.4297 -0.0822  1.5557
  107OSM    C7F11023   1.658   2.362   9.825 -0.1515 -0.7692 -0.5941
  107OSM    H7F11024   1.670   2.258   9.787  1.3350 -0.4638 -1.0142
  107OSM    H7G11025   1.746   2.428   9.809 -0.6390  0.7425  2.3530
  107OSM    C8F11026   1.547   2.434   9.742 -0.6840 -0.6523 -0.1685
  107OSM    H8F11027   1.514   2.530   9.786  1.0458 -1.5672  3.5191
  107OSM    H8G11028   1.458   2.368   9.749 -0.4599 -1.0103 -0.6442
  107OSM    C9F11029   1.583   2.450   9.593  0.6811  0.4153 -0.0898
  107OSM    H9F11030   1.596   2.557   9.571 -1.3579  0.4255 -1.5009
  107OSM   C10F11031   1.608   2.362   9.496 -0.1726  0.2163 -0.5199
  107OSM   H10F11032   1.629   2.407   9.398 -3.0458 -0.0270 -1.3237
  107OSM   C11F11033   1.606   2.210   9.494 -0.3521 -0.0636 -0.6376
  107OSM   H11F11034   1.591   2.167   9.595  1.9660  3.6221  1.4993
  107OSM   H11G11035   1.699   2.167   9.451  0.0451 -1.1986  1.2298
  107OSM   C12F11036   1.496   2.156   9.405  0.1483  0.3493  0.4597
  107OSM   H12F11037   1.400   2.202   9.437 -0.2509 -0.7466  0.9080
  107OSM   H12G11038   1.472   2.047   9.408 -1.6195  0.6375 -1.3035
  107OSM   C13F11039   1.517   2.187   9.254 -0.2067 -0.0087 -0.8232
  107OSM   H13F11040   1.604   2.134   9.210  0.6304  1.6336 -1.2224
  107OSM   H13G11041   1.540   2.291   9.225  3.4574 -1.2532 -3.0812
  107OSM   C14F11042   1.395   2.139   9.171  0.5384 -0.3032  0.6844
  107OSM   H14F11043   1.296   2.178   9.204  0.6024 -0.5272  1.1626
  107OSM   H14G11044   1.387   2.028   9.178 -1.3407 -0.2180  0.3233
  107OSM   C15F11045   1.417   2.157   9.015 -0.8584 -0.3507 -0.4947
  107OSM   H15F11046   1.498   2.099   8.966  0.4975  2.1328 -1.3855
  107OSM   H15G11047   1.453   2.260   8.992 -0.0781 -0.4265  0.3285
  107OSM   C16F11048   1.294   2.122   8.930  0.3800  0.4375 -0.0540
  107OSM   H16F11049   1.208   2.185   8.960  0.8994  1.9017 -1.4776
  107OSM   H16G11050   1.267   2.016   8.949 -0.6368  0.8556  0.9040
  107OSM   C17F11051   1.307   2.142   8.781 -0.0137 -0.9406 -0.4168
  107OSM   H17F11052   1.413   2.132   8.747  0.3353 -1.2745  0.7280
  107OSM   H17G11053   1.279   2.247   8.757 -0.6127 -1.1154 -0.4924
  107OSM   C18F11054   1.208   2.048   8.707  0.7130  0.0918  0.1479
  107OSM   H18F11055   1.105   2.073   8.740 -0.6665 -1.3667 -2.7330
  107OSM   H18G11056   1.232   1.943   8.734 -2.1199 -0.5450  0.5176
  107OSM   H18H11057   1.208   2.066   8.597 -3.7831 -0.0038 -0.0680
  108OSM      N11058   3.897   6.430  11.215  0.2380 -0.1065  0.7031
  108OSM    C1511059   3.888   6.568  11.268 -0.2728 -0.1974 -0.1131
  108OSM   H15A11060   3.880   6.643  11.191  2.5651 -1.0613 -1.3790
  108OSM   H15B11061   3.982   6.602  11.308 -0.4594 -0.3948  0.5114
  108OSM   H15C11062   3.825   6.590  11.353  1.4997  1.0995  0.9286
  108OSM    C1411063   4.032   6.432  11.144 -0.6201  0.2027 -0.3837
  108OSM   H14A11064   4.106   6.490  11.197  0.2685 -2.1076  1.0761
  108OSM   H14B11065   4.019   6.466  11.042  0.0004  0.0587 -0.5155
  108OSM   H14C11066   4.071   6.331  11.144  2.4075  1.2264  2.1251
  108OSM    C1311067   3.902   6.338  11.332 -0.1646 -0.7675 -0.7707
  108OSM   H13A11068   3.926   6.236  11.310 -1.1986 -1.3076  0.4675
  108OSM   H13B11069   3.810   6.343  11.389  0.2756  2.5625 -0.1310
  108OSM   H13C11070   3.978   6.383  11.394 -0.6611  0.7659 -1.2050
  108OSM    C1211071   3.783   6.405  11.114 -0.3179 -0.9102 -0.1649
  108OSM   H12A11072   3.688   6.406  11.165 -0.7336 -2.7702 -0.8144
  108OSM   H12B11073   3.800   6.301  11.086  2.9152 -0.0986 -1.7680
  108OSM    C1111074   3.789   6.486  10.981 -1.0778 -0.1234  0.5214
  108OSM   H11A11075   3.844   6.580  11.006  0.2275 -0.5165 -0.7562
  108OSM   H11B11076   3.692   6.521  10.941 -0.1916 -0.3829 -2.0233
  108OSM      P11077   3.826   6.319  10.787 -0.0916 -0.4911 -0.0270
  108OSM    O1311078   3.941   6.255  10.719  0.0506  0.5256 -0.0451
  108OSM    O1411079   3.727   6.233  10.856 -0.0741 -0.1584 -0.0832
  108OSM    O1111080   3.750   6.413  10.681  0.2297 -0.0060  0.1097
  108OSM    O1211081   3.873   6.424  10.883  0.0829 -0.2739 -0.8785
  108OSM    C1S11082   3.800   6.473  10.560  0.0711 -0.3454  0.4997
  108OSM    H1S11083   3.911   6.482  10.559  0.0039  0.8215  1.1372
  108OSM    H1T11084   3.772   6.580  10.558 -2.5213 -0.9525  0.8231
  108OSM     NF11085   3.810   6.468  10.304 -0.1491  0.0923  0.2717
  108OSM    HNF11086   3.781   6.552  10.260 -1.6439 -0.4285  0.2186
  108OSM    C2S11087   3.747   6.415  10.427 -0.4002  0.4782 -0.4250
  108OSM    H2S11088   3.771   6.308  10.448 -0.8917  0.3230 -0.6520
  108OSM    C3S11089   3.596   6.424  10.418  0.4634 -0.2091 -0.3910
  108OSM    H3S11090   3.571   6.531  10.401 -0.4602 -0.7840 -3.1189
  108OSM     O311091   3.523   6.403  10.539  0.5984 -1.0231 -0.7690
  108OSM    HO311092   3.588   6.406  10.609 -0.4813 -1.6176  0.2886
  108OSM    C4S11093   3.543   6.329  10.310  0.9897 -0.5782 -0.3576
  108OSM    H4S11094   3.557   6.220  10.321 -1.4120 -0.9334 -0.3120
  108OSM    C5S11095   3.479   6.376  10.199  0.0328  0.3809 -0.4893
  108OSM    H5S11096   3.482   6.486  10.193  3.1015  0.7857  3.6414
  108OSM    C6S11097   3.444   6.293  10.081 -0.2513 -0.2794 -1.0289
  108OSM    H6S11098   3.335   6.302  10.061 -0.7358  0.6233  1.6682
  108OSM    H6T11099   3.462   6.184  10.093 -0.2742 -0.3133 -1.2811
  108OSM    C7S11100   3.517   6.326   9.949 -0.0095 -0.5384 -0.6845
  108OSM    H7S11101   3.627   6.331   9.965  0.3337 -1.6438 -2.4276
  108OSM    H7T11102   3.486   6.426   9.911  0.2873  0.1570  0.8462
  108OSM    C8S11103   3.468   6.232   9.841  0.0573  0.4379 -0.0445
  108OSM    H8S11104   3.358   6.247   9.833 -0.0794  2.7504  3.6869
  108OSM    H8T11105   3.483   6.126   9.870  1.1243  0.8091  0.8046
  108OSM    C9S11106   3.535   6.262   9.707 -0.0124 -0.5667  0.0978
  108OSM    H9S11107   3.642   6.237   9.720  1.1792  4.7469  4.0047
  108OSM    H9T11108   3.541   6.366   9.669 -2.3466 -0.9588 -1.5676
  108OSM   C10S11109   3.492   6.163   9.591  0.2596 -0.2044 -0.2990
  108OSM   H10S11110   3.383   6.172   9.568 -0.3209 -0.5001  2.0115
  108OSM   H10T11111   3.493   6.060   9.632 -1.9837 -0.4954 -0.8432
  108OSM   C11S11112   3.566   6.181   9.456  0.0773  0.6057 -0.5002
  108OSM   H11S11113   3.677   6.179   9.462  0.0969  0.0121 -0.9630
  108OSM   H11T11114   3.547   6.282   9.413  1.9983  1.1905 -0.0789
  108OSM   C12S11115   3.526   6.069   9.354  0.2968 -0.3567 -0.0053
  108OSM   H12S11116   3.416   6.052   9.352  0.1590 -1.1212  4.3936
  108OSM   H12T11117   3.570   5.971   9.382  1.9743  0.3165 -0.2146
  108OSM   C13S11118   3.574   6.107   9.214  0.0578 -0.8070 -0.0657
  108OSM   H13S11119   3.680   6.080   9.199  0.3410  0.1792  0.0887
  108OSM   H13T11120   3.563   6.214   9.188  0.3285 -1.0032 -1.0091
  108OSM   C14S11121   3.490   6.030   9.111 -0.0362 -0.8289 -0.3320
  108OSM   H14S11122   3.385   6.066   9.116 -0.9586 -3.3568 -0.3589
  108OSM   H14T11123   3.511   5.923   9.131 -0.8629 -1.0703 -0.7560
  108OSM   C15S11124   3.544   6.051   8.970 -0.4178  0.0603  0.1960
  108OSM   H15S11125   3.650   6.024   8.985 -0.7853 -0.3398  2.2989
  108OSM   H15T11126   3.536   6.160   8.947 -0.1047  0.3089  1.2080
  108OSM   C16S11127   3.470   5.962   8.860  0.5492 -0.3583  0.1355
  108OSM   H16S11128   3.362   5.987   8.859  0.4641 -0.5129  1.9505
  108OSM   H16T11129   3.470   5.856   8.893  1.0785 -0.8622 -1.3882
  108OSM   C17S11130   3.522   5.982   8.719  0.1238 -0.5249  0.1493
  108OSM   H17S11131   3.624   5.937   8.727 -1.1566 -3.3751  3.2377
  108OSM   H17T11132   3.521   6.091   8.702  1.1125 -0.4243  0.6607
  108OSM   C18S11133   3.440   5.911   8.615 -0.6300  0.1007 -0.5361
  108OSM   H18S11134   3.404   5.814   8.654  0.6974  1.0749  3.6636
  108OSM   H18T11135   3.474   5.918   8.510  2.7245 -0.3388  0.3843
  108OSM   H18U11136   3.354   5.980   8.604 -0.3983  0.4480 -0.2168
  108OSM    C1F11137   3.932   6.419  10.272  0.0176  0.1378 -0.2352
  108OSM     OF11138   3.976   6.330  10.343 -0.1818  0.7167  0.4540
  108OSM    C2F11139   4.007   6.480  10.157 -0.2405  0.2843 -0.7564
  108OSM    H2F11140   4.056   6.576  10.184 -0.7421  0.2551  0.3145
  108OSM    H2G11141   3.930   6.506  10.080 -1.6180 -2.8670 -0.5986
  108OSM    C3F11142   4.108   6.382  10.104 -0.3508 -0.2898  0.3933
  108OSM    H3F11143   4.053   6.293  10.067 -1.0254  0.2636  0.0517
  108OSM    H3G11144   4.171   6.350  10.190 -1.1318 -1.3615  0.5785
  108OSM    C4F11145   4.198   6.431   9.989 -0.1790  0.1204 -0.0063
  108OSM    H4F11146   4.265   6.345   9.964 -0.3278 -0.8431  2.6140
  108OSM    H4G11147   4.266   6.513  10.020  1.4151  0.1558 -3.1351
  108OSM    C5F11148   4.128   6.482   9.865 -0.4637  0.2451  0.2158
  108OSM    H5F11149   4.207   6.540   9.811 -1.8735  2.3051  0.2415
  108OSM    H5G11150   4.043   6.550   9.888 -1.1145 -0.4789 -0.0156
  108OSM    C6F11151   4.076   6.381   9.762  0.1668 -0.1189  0.5730
  108OSM    H6F11152   4.024   6.296   9.811  1.4535 -2.9982 -2.5990
  108OSM    H6G11153   4.165   6.347   9.705 -0.7590  1.9276 -2.3295
  108OSM    C7F11154   3.985   6.451   9.661  0.8697  0.7805  0.2223
  108OSM    H7F11155   4.049   6.515   9.595  1.1438 -0.0982 -0.3827
  108OSM    H7G11156   3.905   6.506   9.715 -0.8371 -0.7976 -0.5967
  108OSM    C8F11157   3.895   6.359   9.579 -0.3439  0.1727 -0.1922
  108OSM    H8F11158   3.814   6.422   9.535 -1.7458 -1.2382  0.2900
  108OSM    H8G11159   3.836   6.291   9.644  0.5062 -3.0521 -2.5203
  108OSM    C9F11160   3.981   6.283   9.482 -0.2471 -0.2384 -0.1801
  108OSM    H9F11161   4.058   6.220   9.530  1.0853  1.9023  0.6060
  108OSM   C10F11162   3.962   6.276   9.348  0.4902 -0.1423 -0.9003
  108OSM   H10F11163   4.031   6.207   9.297  0.3815  0.8801 -2.4958
  108OSM   C11F11164   3.864   6.351   9.263 -0.5225  0.4211 -0.3546
  108OSM   H11F11165   3.813   6.419   9.334 -1.3340  0.6165 -1.1162
  108OSM   H11G11166   3.784   6.288   9.220  0.6214 -1.2543 -0.1521
  108OSM   C12F11167   3.927   6.442   9.155 -0.5651  0.3343  0.3922
  108OSM   H12F11168   4.002   6.505   9.208  1.0462 -0.7651 -0.4972
  108OSM   H12G11169   3.843   6.500   9.110 -0.5592 -0.5873 -0.8747
  108OSM   C13F11170   4.009   6.367   9.048 -0.4117  0.1599  0.7174
  108OSM   H13F11171   3.946   6.285   9.007  0.7769 -0.2657 -0.3240
  108OSM   H13G11172   4.095   6.310   9.091 -0.6833 -0.7119  0.1492
  108OSM   C14F11173   4.074   6.448   8.940 -0.6382 -0.0081  0.0015
  108OSM   H14F11174   4.133   6.530   8.985  0.2405 -1.1908  1.0773
  108OSM   H14G11175   3.995   6.504   8.885 -1.0323 -0.5256  0.0250
  108OSM   C15F11176   4.165   6.362   8.853  0.5828  0.0696  0.1825
  108OSM   H15F11177   4.130   6.257   8.854  0.4453  0.1147  0.0874
  108OSM   H15G11178   4.265   6.354   8.901  1.3972 -0.1152 -1.4794
  108OSM   C16F11179   4.165   6.402   8.706 -0.1734  0.1907 -0.3183
  108OSM   H16F11180   4.210   6.499   8.677 -0.4712  0.7379  1.0025
  108OSM   H16G11181   4.059   6.420   8.678  0.0980  0.2835 -1.3517
  108OSM   C17F11182   4.218   6.294   8.619 -0.2803 -0.2700 -0.0383
  108OSM   H17F11183   4.151   6.206   8.628  0.5186 -0.9603 -0.6229
  108OSM   H17G11184   4.318   6.254   8.648 -0.5684  0.0190  1.4256
  108OSM   C18F11185   4.218   6.341   8.479 -0.1654 -0.3457  0.5214
  108OSM   H18F11186   4.265   6.258   8.421 -0.5344 -0.8086  0.8774
  108OSM   H18G11187   4.282   6.430   8.457 -0.0849 -0.9866 -2.2195
  108OSM   H18H11188   4.115   6.356   8.442 -0.5521  0.1707  1.7563
  109OSM      N11189   4.774   1.539  10.908 -0.3131 -0.1380 -0.2584
  109OSM    C1511190   4.876   1.453  10.971 -0.2223  0.2242 -0.0537
  109OSM   H15A11191   4.833   1.417  11.064 -1.6228  1.8904 -0.0048
  109OSM   H15B11192   4.962   1.506  11.009  1.3423 -0.4733 -2.3964
  109OSM   H15C11193   4.905   1.374  10.904 -0.1240  0.0290  0.2141
  109OSM    C1411194   4.728   1.652  11.001 -0.0501  0.6610 -0.0631
  109OSM   H14A11195   4.678   1.612  11.088 -1.1722 -1.4176 -1.5794
  109OSM   H14B11196   4.658   1.726  10.963  0.1442  1.2195  0.6403
  109OSM   H14C11197   4.815   1.703  11.039  0.3041 -0.6919  1.0628
  109OSM    C1311198   4.847   1.616  10.796 -0.0551 -0.0040  0.1958
  109OSM   H13A11199   4.786   1.694  10.751  1.2192  1.4983  0.9850
  109OSM   H13B11200   4.884   1.547  10.721 -1.9506  0.8402 -1.6324
  109OSM   H13C11201   4.934   1.669  10.832 -0.5533  1.8485 -1.1929
  109OSM    C1211202   4.664   1.461  10.850  0.1050 -1.1301 -0.7545
  109OSM   H12A11203   4.596   1.537  10.813 -0.7688 -1.6099 -0.1756
  109OSM   H12B11204   4.612   1.411  10.931  0.2055  2.2403  1.6247
  109OSM    C1111205   4.694   1.364  10.733  0.0574  0.0965 -0.1620
  109OSM   H11A11206   4.727   1.431  10.650 -1.0998  1.2133  0.2447
  109OSM   H11B11207   4.608   1.300  10.704  0.7803 -0.1864 -1.7977
  109OSM      P11208   4.836   1.145  10.672 -0.0634  0.2709  0.2266
  109OSM    O1311209   4.980   1.135  10.673  0.6683 -0.1271  0.0563
  109OSM    O1411210   4.768   1.017  10.699  0.0584 -0.3067 -0.2831
  109OSM    O1111211   4.797   1.218  10.535  0.0311  0.0423 -0.2574
  109OSM    O1211212   4.796   1.262  10.772  0.1214  0.2941 -0.0467
  109OSM    C1S11213   4.852   1.150  10.421 -0.4250 -0.3596  0.5069
  109OSM    H1S11214   4.831   1.042  10.422 -0.5050 -0.3411  0.8482
  109OSM    H1T11215   4.963   1.156  10.420 -0.3983 -0.6524  1.3404
  109OSM     NF11216   4.781   1.097  10.186  0.4015 -0.7788  0.5966
  109OSM    HNF11217   4.852   1.090  10.115  2.0203 -0.7431  2.1513
  109OSM    C2S11218   4.791   1.203  10.286  0.2640 -0.5535 -0.6128
  109OSM    H2S11219   4.685   1.222  10.311  0.6783  1.3305 -0.1294
  109OSM    C3S11220   4.868   1.335  10.256  0.2867  0.2245  0.5326
  109OSM    H3S11221   4.971   1.320  10.218  0.8454 -0.7126  2.3254
  109OSM     O311222   4.866   1.429  10.360  0.1231 -0.3224  0.5175
  109OSM    HO311223   4.827   1.381  10.433 -2.0930  1.2632  0.4644
  109OSM    C4S11224   4.785   1.400  10.139  0.1031  0.4756  0.0318
  109OSM    H4S11225   4.676   1.383  10.145  0.7379 -4.9217  0.7186
  109OSM    C5S11226   4.833   1.476  10.037  0.2836 -1.0436  0.0020
  109OSM    H5S11227   4.942   1.480  10.021  0.4108 -1.1667  0.7992
  109OSM    C6S11228   4.757   1.560   9.936  0.5513  0.4316  0.3029
  109OSM    H6S11229   4.778   1.534   9.830 -0.1564  1.2805 -0.0625
  109OSM    H6T11230   4.781   1.669   9.940  0.4545  0.4356  0.9765
  109OSM    C7S11231   4.608   1.558   9.951  0.6342  0.6152  0.1274
  109OSM    H7S11232   4.590   1.612  10.047  1.6019  0.4611  0.4043
  109OSM    H7T11233   4.575   1.455   9.973 -0.1837  0.2896 -2.3474
  109OSM    C8S11234   4.521   1.620   9.842  0.1326  0.1281 -0.5251
  109OSM    H8S11235   4.549   1.726   9.825  0.8827  0.0183 -0.0137
  109OSM    H8T11236   4.413   1.624   9.868  0.2855 -0.3344  0.1975
  109OSM    C9S11237   4.525   1.533   9.716 -0.3063 -0.1099  0.3342
  109OSM    H9S11238   4.509   1.426   9.741 -0.5288 -0.1937 -0.1463
  109OSM    H9T11239   4.621   1.532   9.661 -0.9622 -1.1327 -0.8482
  109OSM   C10S11240   4.436   1.587   9.603 -0.0946  0.1553  0.1806
  109OSM   H10S11241   4.468   1.694   9.599 -1.1470  0.5538  1.6217
  109OSM   H10T11242   4.331   1.592   9.637 -0.1771 -0.6901  0.0722
  109OSM   C11S11243   4.454   1.510   9.472  0.1527 -0.0498 -0.0229
  109OSM   H11S11244   4.431   1.401   9.469 -0.4138  0.0487  0.5175
  109OSM   H11T11245   4.559   1.511   9.436 -0.7297  0.1849 -2.8544
  109OSM   C12S11246   4.372   1.588   9.359  0.4957  0.1795  0.3906
  109OSM   H12S11247   4.394   1.696   9.368  0.2430  0.6790 -3.4640
  109OSM   H12T11248   4.262   1.577   9.375  0.2065  0.5260 -1.2251
  109OSM   C13S11249   4.410   1.542   9.217 -0.3766  0.4716  0.1131
  109OSM   H13S11250   4.411   1.431   9.217 -1.7670  0.3401  3.9045
  109OSM   H13T11251   4.510   1.577   9.182 -0.8562  1.3511 -0.4166
  109OSM   C14S11252   4.306   1.588   9.116 -0.5032 -0.1815 -0.1980
  109OSM   H14S11253   4.285   1.695   9.135  1.1147  0.6248 -2.4667
  109OSM   H14T11254   4.210   1.535   9.136 -1.2595  0.9482 -0.7327
  109OSM   C15S11255   4.352   1.551   8.975 -0.5093  0.4807  0.8252
  109OSM   H15S11256   4.370   1.442   8.970  1.4685  0.5388  4.1118
  109OSM   H15T11257   4.446   1.607   8.955  0.6832 -2.0344 -1.2474
  109OSM   C16S11258   4.238   1.576   8.873  0.1427  0.0285  0.4274
  109OSM   H16S11259   4.212   1.684   8.860  0.8041 -0.1050 -2.5535
  109OSM   H16T11260   4.151   1.517   8.908  1.3961 -2.3583 -0.2907
  109OSM   C17S11261   4.279   1.524   8.732 -0.5985  0.4775 -0.0731
  109OSM   H17S11262   4.294   1.416   8.753 -0.3133  1.0546  3.3135
  109OSM   H17T11263   4.372   1.576   8.700 -0.3182  0.5281  0.8014
  109OSM   C18S11264   4.163   1.542   8.630  0.5185  0.1636  0.0077
  109OSM   H18S11265   4.134   1.649   8.640 -2.5791 -0.4201 -1.6745
  109OSM   H18T11266   4.075   1.477   8.646 -0.1080  0.5773 -1.6007
  109OSM   H18U11267   4.187   1.515   8.525 -0.2564  0.7865 -0.3321
  109OSM    C1F11268   4.706   0.995  10.192  0.5694  1.0628 -0.5284
  109OSM     OF11269   4.620   0.995  10.282  0.2793 -0.2709 -0.3361
  109OSM    C2F11270   4.724   0.882  10.094 -0.3099 -0.4769  0.5599
  109OSM    H2F11271   4.637   0.816  10.116 -1.0821  1.0522  2.2893
  109OSM    H2G11272   4.815   0.819  10.106  1.1881  0.5211 -3.8207
  109OSM    C3F11273   4.708   0.936   9.945 -0.2445 -0.4908 -0.4132
  109OSM    H3F11274   4.733   0.858   9.870  0.3139  0.6283 -1.4275
  109OSM    H3G11275   4.774   1.025   9.931 -3.4300  1.6777 -2.9503
  109OSM    C4F11276   4.568   0.989   9.920  0.5082  0.4442  0.2951
  109OSM    H4F11277   4.536   1.049  10.008 -1.1938 -2.0874  1.5531
  109OSM    H4G11278   4.495   0.905   9.918  1.1987 -0.2086  1.5975
  109OSM    C5F11279   4.551   1.076   9.788 -1.1632  0.6042  0.7460
  109OSM    H5F11280   4.646   1.134   9.783 -0.4968 -0.5542 -0.8064
  109OSM    H5G11281   4.475   1.155   9.809  1.1612  3.6543 -1.4029
  109OSM    C6F11282   4.517   1.011   9.650  0.0677  0.4438 -0.0100
  109OSM    H6F11283   4.431   0.941   9.658  1.1428 -1.1261 -1.3871
  109OSM    H6G11284   4.607   0.953   9.618  0.3712  1.6404 -1.4475
  109OSM    C7F11285   4.486   1.125   9.542  0.5590 -0.0635  0.2694
  109OSM    H7F11286   4.583   1.167   9.510  1.8807 -2.4238  0.9648
  109OSM    H7G11287   4.431   1.205   9.598  0.4427  0.4608 -0.5763
  109OSM    C8F11288   4.412   1.075   9.420  0.2866  0.0590  0.2484
  109OSM    H8F11289   4.311   1.043   9.453 -0.2750  0.9378 -0.5801
  109OSM    H8G11290   4.460   0.981   9.386 -3.3844 -1.4496 -1.3413
  109OSM    C9F11291   4.409   1.181   9.311 -0.1399  0.2143 -0.4778
  109OSM    H9F11292   4.467   1.272   9.331  1.2448 -0.5985 -0.6940
  109OSM   C10F11293   4.341   1.170   9.196  0.3602 -0.3606  0.4657
  109OSM   H10F11294   4.357   1.242   9.114  0.6289 -0.4911  0.4002
  109OSM   C11F11295   4.249   1.058   9.153  0.6529  0.3901  1.0556
  109OSM   H11F11296   4.148   1.102   9.140  1.6265  2.2553 -0.8661
  109OSM   H11G11297   4.238   0.982   9.234 -1.4699  0.4486  0.8725
  109OSM   C12F11298   4.302   0.982   9.027 -0.0487 -0.0353 -0.3213
  109OSM   H12F11299   4.244   0.888   9.017  0.1722 -0.1929 -0.1266
  109OSM   H12G11300   4.404   0.944   9.045  0.1247  0.2072 -0.7743
  109OSM   C13F11301   4.273   1.051   8.889  0.4135 -0.2146 -0.4250
  109OSM   H13F11302   4.317   1.152   8.891 -1.4048  0.7478 -3.1960
  109OSM   H13G11303   4.162   1.054   8.877  0.6502  1.6741 -2.8005
  109OSM   C14F11304   4.325   0.973   8.768 -0.9153 -0.8738 -0.2675
  109OSM   H14F11305   4.293   1.010   8.669  1.5406 -0.6937 -1.0711
  109OSM   H14G11306   4.273   0.875   8.771  0.6785 -1.7692 -0.5100
  109OSM   C15F11307   4.474   0.940   8.755  0.1597  0.0755 -0.1686
  109OSM   H15F11308   4.494   0.876   8.844  2.8128  2.4872  1.1371
  109OSM   H15G11309   4.540   1.028   8.770 -1.7924  1.5935  0.0829
  109OSM   C16F11310   4.500   0.874   8.623 -0.7802  0.0548 -0.1205
  109OSM   H16F11311   4.410   0.817   8.590 -1.5567 -0.0185  1.9411
  109OSM   H16G11312   4.589   0.808   8.624  0.4043  1.5745  0.9738
  109OSM   C17F11313   4.547   0.979   8.522 -0.7388 -0.1339  0.1507
  109OSM   H17F11314   4.630   1.040   8.564  1.1132 -0.9955 -2.0777
  109OSM   H17G11315   4.455   1.038   8.502  0.5055  0.9129 -3.1694
  109OSM   C18F11316   4.589   0.924   8.391  1.0857 -0.3467  0.3216
  109OSM   H18F11317   4.636   0.994   8.319  1.0836 -0.2038  0.4567
  109OSM   H18G11318   4.508   0.868   8.339 -0.9531 -0.1639  3.0644
  109OSM   H18H11319   4.664   0.843   8.402  0.6128 -1.0848 -1.5796
  110OSM      N11320   5.481   0.856  10.978  0.1158 -0.1274 -0.1217
  110OSM    C1511321   5.520   0.792  10.848  0.3075  0.0618 -0.0773
  110OSM   H15A11322   5.552   0.873  10.785  2.0389 -0.8808 -0.4726
  110OSM   H15B11323   5.438   0.736  10.807  0.8211 -0.8793  0.1467
  110OSM   H15C11324   5.595   0.715  10.850 -0.9802 -1.2714 -1.2080
  110OSM    C1411325   5.411   0.984  10.952  0.4166 -0.0180 -0.8366
  110OSM   H14A11326   5.338   0.972  10.873  1.0607  3.3468 -2.1106
  110OSM   H14B11327   5.477   1.067  10.934 -0.9552  1.8753  2.0791
  110OSM   H14C11328   5.345   1.023  11.028  0.0557  0.1038 -1.2068
  110OSM    C1311329   5.383   0.766  11.048 -0.5771 -0.1297 -0.1870
  110OSM   H13A11330   5.437   0.674  11.065  1.0413  0.7831 -0.1472
  110OSM   H13B11331   5.299   0.759  10.981 -1.4954  2.1793  0.5944
  110OSM   H13C11332   5.354   0.799  11.147  2.3478 -1.1950  1.1583
  110OSM    C1211333   5.595   0.871  11.066  0.7332 -0.6909  0.0763
  110OSM   H12A11334   5.559   0.924  11.153  2.4383  0.7488 -0.0187
  110OSM   H12B11335   5.658   0.948  11.024 -0.2209 -0.1443 -0.3748
  110OSM    C1111336   5.667   0.744  11.100  0.3550 -0.4836 -0.3290
  110OSM   H11A11337   5.603   0.662  11.140 -2.1312  1.7108  0.5374
  110OSM   H11B11338   5.733   0.784  11.180 -0.3382  0.9221 -0.4141
  110OSM      P11339   5.888   0.745  10.965 -0.1357 -0.2060 -0.4175
  110OSM    O1311340   5.887   0.883  10.916  0.2173 -0.2381  0.2337
  110OSM    O1411341   5.970   0.721  11.089 -0.0730  0.2981  0.3670
  110OSM    O1111342   5.933   0.658  10.839  0.4890  0.6861  0.3235
  110OSM    O1211343   5.739   0.705  10.982 -0.4744  0.2586 -0.3901
  110OSM    C1S11344   5.854   0.641  10.723  0.0371 -0.3673  0.1434
  110OSM    H1S11345   5.800   0.736  10.703  0.9559 -0.2056 -1.8395
  110OSM    H1T11346   5.786   0.554  10.735 -0.4535  0.1999  1.6646
  110OSM     NF11347   5.864   0.593  10.482  0.1156 -0.1633  0.5306
  110OSM    HNF11348   5.878   0.499  10.454 -0.2663 -0.2921  0.7673
  110OSM    C2S11349   5.937   0.638  10.597  0.1892  0.4185 -0.3024
  110OSM    H2S11350   5.979   0.738  10.576  0.2661  0.9291  2.0299
  110OSM    C3S11351   6.061   0.547  10.611  0.8480  0.2305  0.1031
  110OSM    H3S11352   6.029   0.441  10.610  0.6582  0.2786  0.6951
  110OSM     O311353   6.147   0.573  10.717 -0.6061  0.2097  0.2639
  110OSM    HO311354   6.082   0.613  10.774  0.6242  3.0974 -0.1857
  110OSM    C4S11355   6.151   0.550  10.492  0.3573  0.3846 -0.3628
  110OSM    H4S11356   6.129   0.472  10.418  1.9290 -0.7307  0.2778
  110OSM    C5S11357   6.239   0.649  10.454 -0.6246  0.1305  0.8418
  110OSM    H5S11358   6.258   0.742  10.510  1.0614  1.2976 -1.4870
  110OSM    C6S11359   6.323   0.643  10.324 -0.1002 -0.4819 -0.1144
  110OSM    H6S11360   6.427   0.670  10.350 -0.6540  1.0701  0.6383
  110OSM    H6T11361   6.289   0.731  10.265 -2.5004 -1.3421 -0.1236
  110OSM    C7S11362   6.315   0.529  10.231  0.0779  0.4069  0.7363
  110OSM    H7S11363   6.211   0.491  10.227  0.6852 -1.2324 -0.6343
  110OSM    H7T11364   6.366   0.447  10.285 -0.1860 -0.0102  0.3596
  110OSM    C8S11365   6.386   0.555  10.106 -0.2195  0.0209  0.3297
  110OSM    H8S11366   6.492   0.558  10.137  0.1737 -0.8945 -0.8651
  110OSM    H8T11367   6.366   0.657  10.065  0.2983  0.0608  0.1744
  110OSM    C9S11368   6.380   0.437  10.004 -0.1271  0.1045 -0.1423
  110OSM    H9S11369   6.275   0.426   9.972 -0.7661  1.6669  1.2603
  110OSM    H9T11370   6.422   0.351  10.060  0.2316  1.2272  1.3973
  110OSM   C10S11371   6.466   0.466   9.874 -0.5492 -0.5498 -0.6134
  110OSM   H10S11372   6.487   0.369   9.824  2.8394  0.0453 -0.5895
  110OSM   H10T11373   6.559   0.516   9.911 -1.0602 -0.8912  1.1806
  110OSM   C11S11374   6.387   0.561   9.791 -0.2087 -0.3800 -0.0062
  110OSM   H11S11375   6.363   0.657   9.842 -0.6178 -0.3711 -0.2099
  110OSM   H11T11376   6.287   0.519   9.768  0.3615 -1.2227 -1.0210
  110OSM   C12S11377   6.457   0.577   9.653  0.5456  0.0383  0.6077
  110OSM   H12S11378   6.453   0.483   9.595 -1.0051 -1.2632  2.6751
  110OSM   H12T11379   6.562   0.611   9.667 -0.1982  2.6703  0.3488
  110OSM   C13S11380   6.382   0.699   9.576  0.3036 -0.2152  0.7551
  110OSM   H13S11381   6.378   0.782   9.650 -0.1034  0.0925  0.3965
  110OSM   H13T11382   6.274   0.674   9.562  0.4542 -0.8032  0.6298
  110OSM   C14S11383   6.448   0.744   9.438  0.7369 -0.0444 -0.8419
  110OSM   H14S11384   6.431   0.665   9.362  2.9211 -1.2098 -0.2099
  110OSM   H14T11385   6.559   0.742   9.440  0.7219 -1.0242  1.1739
  110OSM   C15S11386   6.395   0.882   9.396 -0.2213 -0.0201  0.3002
  110OSM   H15S11387   6.413   0.959   9.474  1.0420 -1.2021  1.2457
  110OSM   H15T11388   6.286   0.880   9.374  0.0402  1.4556 -1.3035
  110OSM   C16S11389   6.462   0.919   9.256  0.6214  0.1805  0.0122
  110OSM   H16S11390   6.570   0.908   9.275  0.2513 -1.2276  1.5409
  110OSM   H16T11391   6.440   1.028   9.247 -2.7746 -0.3251  0.6301
  110OSM   C17S11392   6.424   0.858   9.118 -0.0226 -0.1903 -0.0742
  110OSM   H17S11393   6.318   0.879   9.093  0.9556  3.1597 -2.0273
  110OSM   H17T11394   6.444   0.748   9.115  1.1523  0.0331 -2.3418
  110OSM   C18S11395   6.508   0.919   9.014 -0.6023 -0.1785 -0.5784
  110OSM   H18S11396   6.472   1.022   8.993 -1.5609 -0.3039  0.3336
  110OSM   H18T11397   6.521   0.858   8.922 -1.9498 -0.2119 -0.7671
  110OSM   H18U11398   6.611   0.934   9.054  0.1405  1.1804 -2.8104
  110OSM    C1F11399   5.765   0.658  10.427  0.0568  0.1367  0.7805
  110OSM     OF11400   5.747   0.768  10.463  0.4358 -0.4402  0.1827
  110OSM    C2F11401   5.682   0.586  10.329  0.3686  0.3575  0.3161
  110OSM    H2F11402   5.578   0.624  10.339  0.1849  0.9260 -2.8732
  110OSM    H2G11403   5.695   0.475  10.329  0.4161  0.2311 -3.5057
  110OSM    C3F11404   5.735   0.607  10.186 -0.1177 -0.0217  0.2965
  110OSM    H3F11405   5.711   0.713  10.160 -1.1142 -0.6148 -1.3753
  110OSM    H3G11406   5.667   0.541  10.129 -0.6901 -0.4199  1.4067
  110OSM    C4F11407   5.876   0.559  10.158  0.0769  0.0195 -0.5825
  110OSM    H4F11408   5.884   0.466  10.217 -1.8035 -0.2270 -0.6648
  110OSM    H4G11409   5.955   0.624  10.202  1.1805 -1.9743  0.4750
  110OSM    C5F11410   5.903   0.505  10.020 -0.4655  0.4711 -0.0426
  110OSM    H5F11411   5.825   0.432   9.988 -0.5583  0.5649 -0.0298
  110OSM    H5G11412   6.002   0.455  10.010 -0.4147  0.3855  0.8071
  110OSM    C6F11413   5.921   0.616   9.916  0.2463 -0.6195 -0.5732
  110OSM    H6F11414   5.841   0.692   9.927  0.3428 -0.2919 -1.9508
  110OSM    H6G11415   5.917   0.572   9.814 -2.8221 -0.5804 -0.5599
  110OSM    C7F11416   6.053   0.690   9.931 -1.1083 -0.4040 -0.1500
  110OSM    H7F11417   6.125   0.630   9.872 -1.1042 -0.6022  0.0582
  110OSM    H7G11418   6.090   0.689  10.035  0.4603  0.8568 -0.6529
  110OSM    C8F11419   6.043   0.830   9.883 -0.0153 -0.3111  0.0954
  110OSM    H8F11420   5.967   0.890   9.938 -0.6595 -0.7098 -0.3498
  110OSM    H8G11421   6.022   0.823   9.774  0.9984  0.4592 -0.1775
  110OSM    C9F11422   6.173   0.908   9.906  0.2912 -0.3568  0.2304
  110OSM    H9F11423   6.214   0.894  10.007  1.4228 -1.1311 -0.3216
  110OSM   C10F11424   6.240   0.984   9.805 -0.0780  0.1173  0.1686
  110OSM   H10F11425   6.340   1.023   9.830  0.3309 -0.6295 -0.2655
  110OSM   C11F11426   6.203   1.009   9.662 -0.6346  0.4698  0.4309
  110OSM   H11F11427   6.211   0.915   9.603  2.3797  1.6707 -1.2958
  110OSM   H11G11428   6.281   1.075   9.618  2.8397 -2.1610  2.1188
  110OSM   C12F11429   6.071   1.077   9.638  0.1403 -0.1508  0.7906
  110OSM   H12F11430   6.086   1.178   9.681 -2.0855  0.2929  0.6520
  110OSM   H12G11431   5.975   1.036   9.677 -1.1336  0.6785 -1.2891
  110OSM   C13F11432   6.041   1.082   9.497 -0.5204 -0.4772  0.2413
  110OSM   H13F11433   6.042   0.979   9.455 -2.2233 -1.7052  2.9826
  110OSM   H13G11434   6.114   1.151   9.448 -2.6782  0.0415 -2.5430
  110OSM   C14F11435   5.904   1.144   9.450  0.1395 -0.4932 -0.6479
  110OSM   H14F11436   5.879   1.230   9.516 -0.6882  0.1268 -1.7305
  110OSM   H14G11437   5.826   1.065   9.456 -0.4102  0.0837 -0.0141
  110OSM   C15F11438   5.891   1.193   9.305 -0.2109  0.4272 -0.0632
  110OSM   H15F11439   5.919   1.107   9.240  0.8191  0.1482  0.7315
  110OSM   H15G11440   5.966   1.275   9.297  1.8443 -1.3372  0.2595
  110OSM   C16F11441   5.756   1.241   9.262  0.0943  0.0546  0.4088
  110OSM   H16F11442   5.720   1.307   9.344 -0.1902 -1.1992  1.3367
  110OSM   H16G11443   5.687   1.154   9.252  0.1268 -0.0430  1.0098
  110OSM   C17F11444   5.741   1.312   9.125 -0.6078 -0.3873  0.1532
  110OSM   H17F11445   5.635   1.311   9.090 -1.3912  1.8737  2.1248
  110OSM   H17G11446   5.800   1.250   9.055  0.4067 -0.1255  0.7666
  110OSM   C18F11447   5.788   1.460   9.127  0.3686  0.6522  0.3813
  110OSM   H18F11448   5.873   1.474   9.198  0.5581 -1.3357  0.5930
  110OSM   H18G11449   5.702   1.526   9.151 -1.0603 -0.8423 -0.3926
  110OSM   H18H11450   5.822   1.484   9.024  0.9732 -2.1132 -0.1258
  111OSM      N11451   0.392   3.654  10.789  0.3593 -0.1036  0.1477
  111OSM    C1511452   0.352   3.683  10.928  0.0927 -0.3937 -0.0512
  111OSM   H15A11453   0.250   3.721  10.934  0.4885  0.5364  1.6752
  111OSM   H15B11454   0.412   3.762  10.970 -1.6169  0.6799  0.5164
  111OSM   H15C11455   0.359   3.595  10.991 -0.9810  0.0104  0.6805
  111OSM    C1411456   0.411   3.789  10.720 -0.2262 -0.1657  0.1336
  111OSM   H14A11457   0.328   3.855  10.737 -1.3719 -1.3653 -0.6451
  111OSM   H14B11458   0.425   3.786  10.613 -1.6287  0.9292 -0.0950
  111OSM   H14C11459   0.500   3.841  10.754 -0.4141  0.1848  0.0885
  111OSM    C1311460   0.530   3.599  10.803 -0.4401  0.1676  0.7670
  111OSM   H13A11461   0.595   3.660  10.864  1.1137  0.3367 -0.9537
  111OSM   H13B11462   0.571   3.595  10.703  0.1992  1.3374  0.9677
  111OSM   H13C11463   0.528   3.494  10.825 -1.9564 -0.6191 -2.4337
  111OSM    C1211464   0.293   3.562  10.715  0.5623  0.0598  0.3900
  111OSM   H12A11465   0.328   3.539  10.615  0.6114  0.3561  0.3396
  111OSM   H12B11466   0.204   3.617  10.688  1.7430  0.4997 -3.2119
  111OSM    C1111467   0.271   3.418  10.767  0.0238 -0.5945 -0.1752
  111OSM   H11A11468   0.197   3.372  10.699  0.8437  1.4461 -2.5889
  111OSM   H11B11469   0.229   3.417  10.870  1.1791  0.3608  0.3207
  111OSM      P11470   0.414   3.220  10.686  0.0276 -0.0205  0.4533
  111OSM    O1311471   0.545   3.171  10.731  0.0503  0.1745 -0.1941
  111OSM    O1411472   0.292   3.142  10.710  0.0444 -0.1244 -0.2683
  111OSM    O1111473   0.425   3.259  10.536 -0.2899 -0.1766 -0.0222
  111OSM    O1211474   0.391   3.345  10.773 -0.2832  0.0451 -0.1696
  111OSM    C1S11475   0.534   3.338  10.491  0.2868 -0.2313  0.7140
  111OSM    H1S11476   0.611   3.262  10.464  1.3336  0.6633  1.1110
  111OSM    H1T11477   0.568   3.412  10.567 -0.0197 -1.7757  2.4378
  111OSM     NF11478   0.636   3.466  10.303 -0.0336  0.0308  0.3587
  111OSM    HNF11479   0.640   3.565  10.308 -1.1343  0.2158 -1.5281
  111OSM    C2S11480   0.511   3.412  10.355  0.3091  0.2725  0.2176
  111OSM    H2S11481   0.471   3.336  10.285 -0.9025  1.3261 -0.2810
  111OSM    C3S11482   0.395   3.517  10.362 -0.1935  0.2836 -0.0495
  111OSM    H3S11483   0.421   3.600  10.431  0.3722  0.5603 -0.5899
  111OSM     O311484   0.273   3.469  10.419  0.4917  0.6966 -0.4912
  111OSM    HO311485   0.294   3.386  10.461  2.7527  1.1371 -0.6580
  111OSM    C4S11486   0.364   3.591  10.235 -0.8306 -0.2075  0.7797
  111OSM    H4S11487   0.427   3.681  10.224 -0.4294 -0.4626  0.9701
  111OSM    C5S11488   0.273   3.555  10.142 -0.4136  0.7612  0.4968
  111OSM    H5S11489   0.213   3.464  10.152  0.3373  0.1946 -0.0638
  111OSM    C6S11490   0.267   3.624  10.009  0.0543 -0.1465 -0.5872
  111OSM    H6S11491   0.335   3.708   9.986  0.7699 -0.9663 -1.5322
  111OSM    H6T11492   0.165   3.668  10.004  0.1248  0.5460  2.0978
  111OSM    C7S11493   0.275   3.529   9.892  0.6106  0.2075 -0.1340
  111OSM    H7S11494   0.176   3.479   9.881  0.8494 -0.4986  0.8561
  111OSM    H7T11495   0.347   3.446   9.904 -1.5252 -1.6329  0.7767
  111OSM    C8S11496   0.291   3.603   9.759 -0.9040  0.2985 -0.9017
  111OSM    H8S11497   0.386   3.661   9.762  1.0766 -2.6559 -1.8407
  111OSM    H8T11498   0.207   3.675   9.750 -1.7584 -0.2564  1.6646
  111OSM    C9S11499   0.294   3.504   9.643 -0.0277  0.5709 -0.6751
  111OSM    H9S11500   0.208   3.436   9.656  0.2496  0.2992 -0.2453
  111OSM    H9T11501   0.382   3.437   9.650 -0.6807 -0.1190  1.4949
  111OSM   C10S11502   0.275   3.587   9.511 -0.2046  0.0609 -0.5378
  111OSM   H10S11503   0.358   3.661   9.504 -0.9604  0.8469 -1.5259
  111OSM   H10T11504   0.182   3.648   9.514  0.3306  0.8575 -0.0612
  111OSM   C11S11505   0.266   3.501   9.389 -0.8541  0.6025 -0.2400
  111OSM   H11S11506   0.162   3.462   9.389 -0.3215 -0.9385 -1.6880
  111OSM   H11T11507   0.327   3.408   9.388  0.4436  1.4204 -1.3997
  111OSM   C12S11508   0.283   3.573   9.256 -0.1417  0.2280 -0.3754
  111OSM   H12S11509   0.383   3.619   9.238 -1.3640  3.2134 -0.1109
  111OSM   H12T11510   0.214   3.660   9.253 -1.1928 -0.4882  1.4833
  111OSM   C13S11511   0.241   3.485   9.132 -0.6165 -0.7050  0.3408
  111OSM   H13S11512   0.132   3.462   9.136 -0.8392  0.0106 -1.0887
  111OSM   H13T11513   0.298   3.390   9.142  2.1803  1.1065  3.5366
  111OSM   C14S11514   0.274   3.560   9.001  0.4596  0.4876  0.3874
  111OSM   H14S11515   0.380   3.594   9.002  1.7087 -3.0019 -0.5195
  111OSM   H14T11516   0.216   3.655   8.995  3.4193  2.3597 -0.9371
  111OSM   C15S11517   0.264   3.468   8.883  0.5975 -0.5024 -1.1503
  111OSM   H15S11518   0.165   3.467   8.832  0.5807 -0.9734 -1.1201
  111OSM   H15T11519   0.278   3.361   8.910  2.1352  0.6075  3.4833
  111OSM   C16S11520   0.365   3.513   8.785  0.3714  0.0314  0.9634
  111OSM   H16S11521   0.469   3.535   8.818  1.2982 -0.2219 -1.5429
  111OSM   H16T11522   0.320   3.604   8.741 -1.6865 -0.7778  1.3049
  111OSM   C17S11523   0.384   3.406   8.673 -0.2661  0.0050 -0.5282
  111OSM   H17S11524   0.283   3.366   8.648  0.1778 -1.4269 -0.1639
  111OSM   H17T11525   0.420   3.313   8.723 -1.0106 -1.0080 -1.8205
  111OSM   C18S11526   0.474   3.432   8.555 -0.4807  0.0387  0.0374
  111OSM   H18S11527   0.505   3.333   8.516  1.4724  0.1273  1.2496
  111OSM   H18T11528   0.568   3.488   8.575 -0.6235  0.0209  0.8110
  111OSM   H18U11529   0.416   3.476   8.471 -4.3071 -0.5848  2.1141
  111OSM    C1F11530   0.731   3.390  10.259 -0.1292  0.1113  0.4052
  111OSM     OF11531   0.708   3.272  10.231  0.5916 -0.5816  0.4189
  111OSM    C2F11532   0.867   3.454  10.233  0.5199  0.5809 -0.0902
  111OSM    H2F11533   0.948   3.410  10.296  1.5094 -1.0082 -2.3368
  111OSM    H2G11534   0.854   3.559  10.264 -2.2634  0.2549  0.0820
  111OSM    C3F11535   0.891   3.455  10.082  0.0182  0.2807 -0.5450
  111OSM    H3F11536   0.804   3.497  10.028  0.3364  1.2531 -0.3178
  111OSM    H3G11537   0.912   3.349  10.056  0.4516  0.6351 -1.6935
  111OSM    C4F11538   1.013   3.529  10.030 -0.3974 -0.1214 -0.2566
  111OSM    H4F11539   1.098   3.508  10.098  0.9153  0.5497 -1.6289
  111OSM    H4G11540   1.000   3.639  10.030 -0.1951 -0.0621 -2.5300
  111OSM    C5F11541   1.050   3.484   9.889 -0.8205  0.1743 -0.4196
  111OSM    H5F11542   0.966   3.500   9.817 -0.4568 -0.9702 -1.1198
  111OSM    H5G11543   1.081   3.378   9.880 -1.1668 -0.0689  1.0733
  111OSM    C6F11544   1.159   3.577   9.837  0.7691 -0.2344 -0.0210
  111OSM    H6F11545   1.231   3.600   9.919  0.4943 -0.0935  0.1811
  111OSM    H6G11546   1.111   3.670   9.800 -0.1423 -0.2377  1.0940
  111OSM    C7F11547   1.240   3.519   9.718 -0.6739  0.2000 -0.2895
  111OSM    H7F11548   1.296   3.427   9.745  2.9507  1.8221 -1.6932
  111OSM    H7G11549   1.313   3.600   9.698  1.3206 -2.1852 -3.7165
  111OSM    C8F11550   1.166   3.493   9.586 -0.4103  0.6050  0.1845
  111OSM    H8F11551   1.088   3.424   9.625  0.0091  0.3543  0.5872
  111OSM    H8G11552   1.230   3.441   9.512 -0.6411 -0.9864  1.0656
  111OSM    C9F11553   1.104   3.615   9.532  0.3556 -0.3733  0.1445
  111OSM    H9F11554   1.015   3.657   9.581  0.4425 -0.9124  0.7655
  111OSM   C10F11555   1.124   3.669   9.412  0.3496 -0.1431  0.2832
  111OSM   H10F11556   1.068   3.760   9.389 -0.1786 -0.1929  1.2872
  111OSM   C11F11557   1.221   3.614   9.304  0.0288 -0.0899 -0.0044
  111OSM   H11F11558   1.275   3.519   9.327  0.3897 -0.3381 -1.7840
  111OSM   H11G11559   1.300   3.688   9.280  0.5430 -0.3888  0.7114
  111OSM   C12F11560   1.153   3.586   9.168  0.2373 -0.6964  0.2879
  111OSM   H12F11561   1.073   3.656   9.136  0.8045 -1.7123 -3.8970
  111OSM   H12G11562   1.098   3.491   9.180 -0.4347 -0.5886 -1.6911
  111OSM   C13F11563   1.249   3.564   9.049  0.2254  0.9713  0.1576
  111OSM   H13F11564   1.338   3.508   9.085  0.0670  0.4682 -0.2236
  111OSM   H13G11565   1.284   3.665   9.017  0.8905  1.2267  1.6359
  111OSM   C14F11566   1.174   3.480   8.934 -1.2900  0.3243  0.3595
  111OSM   H14F11567   1.080   3.537   8.918 -0.0441  2.4102  0.1336
  111OSM   H14G11568   1.146   3.377   8.964 -1.3684 -0.2854 -1.6228
  111OSM   C15F11569   1.260   3.482   8.797  0.4550 -0.5361  0.3118
  111OSM   H15F11570   1.271   3.592   8.786  1.3936 -0.4848  1.4956
  111OSM   H15G11571   1.201   3.443   8.712  1.1279 -0.5046 -0.1729
  111OSM   C16F11572   1.392   3.400   8.823  0.3272  0.2115  0.8963
  111OSM   H16F11573   1.366   3.295   8.849  0.1261 -0.1778 -0.7568
  111OSM   H16G11574   1.449   3.457   8.899 -0.8876  4.7876 -1.2904
  111OSM   C17F11575   1.494   3.390   8.707  0.1409 -0.3295  0.0124
  111OSM   H17F11576   1.441   3.350   8.618  0.6392  0.7644 -0.7822
  111OSM   H17G11577   1.571   3.313   8.727  1.5022  0.8316 -0.6099
  111OSM   C18F11578   1.565   3.523   8.658 -0.5721  0.2011  0.5230
  111OSM   H18F11579   1.620   3.499   8.565  0.1456 -2.3223  1.4848
  111OSM   H18G11580   1.632   3.551   8.743 -0.5496 -2.9586  1.7105
  111OSM   H18H11581   1.485   3.599   8.652  1.1173  2.2919  2.4951
  112OSM      N11582   1.737   0.545  11.224  0.8010 -0.8388  0.5812
  112OSM    C1511583   1.852   0.502  11.134  0.0578 -0.2421 -0.4733
  112OSM   H15A11584   1.830   0.517  11.029  1.2842  0.4518 -0.6533
  112OSM   H15B11585   1.875   0.398  11.155  1.5879 -0.0782 -1.2161
  112OSM   H15C11586   1.943   0.557  11.152  0.7660 -2.1753  2.6820
  112OSM    C1411587   1.759   0.492  11.358 -0.2175 -0.5022  0.3753
  112OSM   H14A11588   1.774   0.385  11.366 -0.5484 -0.8138 -2.3229
  112OSM   H14B11589   1.683   0.524  11.428 -1.0144  1.0641 -1.1557
  112OSM   H14C11590   1.848   0.544  11.390 -0.7792  0.5746  0.2195
  112OSM    C1311591   1.745   0.700  11.226  0.0992  0.3358 -0.2851
  112OSM   H13A11592   1.744   0.735  11.124  1.2497  0.1154 -0.3815
  112OSM   H13B11593   1.843   0.728  11.262 -0.5688  0.9396  1.1420
  112OSM   H13C11594   1.661   0.731  11.287 -1.5054 -1.1040 -1.6663
  112OSM    C1211595   1.594   0.511  11.166  0.8341 -0.7523  0.2932
  112OSM   H12A11596   1.602   0.405  11.144  0.4404 -0.3389 -2.1082
  112OSM   H12B11597   1.575   0.566  11.075  0.7873 -0.1443  0.6641
  112OSM    C1111598   1.477   0.539  11.256  1.2411 -0.2597  0.2323
  112OSM   H11A11599   1.489   0.494  11.357  0.7250  0.5906  0.6841
  112OSM   H11B11600   1.388   0.492  11.210 -0.0730  0.5574  1.8141
  112OSM      P11601   1.367   0.762  11.160 -0.6572 -0.2143  0.3489
  112OSM    O1311602   1.245   0.809  11.226  0.7286  0.1164  0.1551
  112OSM    O1411603   1.458   0.867  11.111  0.7629  0.2326 -0.0992
  112OSM    O1111604   1.325   0.654  11.051  0.3015  0.3858 -0.1487
  112OSM    O1211605   1.448   0.679  11.269  0.0300 -1.2071 -0.1272
  112OSM    C1S11606   1.340   0.704  10.917 -0.8790 -0.5365  0.6227
  112OSM    H1S11607   1.447   0.716  10.888 -0.9332 -1.4490 -0.0075
  112OSM    H1T11608   1.283   0.797  10.896  0.1940  0.3174  1.3913
  112OSM     NF11609   1.322   0.641  10.683  0.4266  0.2380 -0.0372
  112OSM    HNF11610   1.259   0.708  10.645 -0.0729  0.5309  1.2321
  112OSM    C2S11611   1.281   0.599  10.815 -0.1477 -0.1064 -0.1989
  112OSM    H2S11612   1.349   0.513  10.830 -0.9134 -0.6583  0.1873
  112OSM    C3S11613   1.135   0.573  10.833  0.1645  0.0322 -0.0445
  112OSM    H3S11614   1.080   0.667  10.856  0.1337 -0.4433  1.9205
  112OSM     O311615   1.096   0.474  10.928  0.0297 -0.1654  0.2590
  112OSM    HO311616   1.159   0.483  11.000 -0.2206  0.0480  0.4553
  112OSM    C4S11617   1.068   0.519  10.707 -0.0684 -0.0687  0.6138
  112OSM    H4S11618   1.076   0.412  10.680  2.5203  0.0209  0.7082
  112OSM    C5S11619   1.012   0.596  10.617  0.0434 -0.5997  0.1004
  112OSM    H5S11620   1.009   0.704  10.638 -1.8580 -0.7893  1.0821
  112OSM    C6S11621   0.950   0.558  10.492  0.0609 -0.0562  0.3523
  112OSM    H6S11622   0.841   0.578  10.492  0.2547  1.0221  0.4933
  112OSM    H6T11623   0.967   0.449  10.474 -1.6840 -0.1885 -0.7434
  112OSM    C7S11624   1.022   0.631  10.376 -0.5595 -0.2333  0.1684
  112OSM    H7S11625   1.132   0.620  10.372 -0.7368 -2.6312  0.1951
  112OSM    H7T11626   0.981   0.733  10.386 -0.9411 -0.3673 -0.0130
  112OSM    C8S11627   0.977   0.572  10.238 -0.6787  0.4745 -0.2290
  112OSM    H8S11628   0.867   0.556  10.241 -0.5630 -0.6308  3.5421
  112OSM    H8T11629   1.014   0.467  10.232 -0.4675  0.5504 -0.2278
  112OSM    C9S11630   0.992   0.660  10.122  0.0724 -0.3083 -0.5502
  112OSM    H9S11631   1.095   0.702  10.128  1.0516 -2.5893 -0.3661
  112OSM    H9T11632   0.926   0.749  10.111  2.0241  1.4897  1.3298
  112OSM   C10S11633   0.993   0.578   9.986  0.3023 -0.2787  0.1228
  112OSM   H10S11634   1.060   0.490   9.989 -0.9945 -1.2761  0.4146
  112OSM   H10T11635   1.026   0.644   9.903 -3.3976 -0.0050 -1.3128
  112OSM   C11S11636   0.846   0.545   9.931 -0.0090  0.9676  0.7427
  112OSM   H11S11637   0.792   0.643   9.928  0.3987  1.2396  1.8064
  112OSM   H11T11638   0.801   0.469   9.997 -0.9308 -2.3815 -3.3175
  112OSM   C12S11639   0.838   0.485   9.784 -0.3788  0.1689 -0.6861
  112OSM   H12S11640   0.864   0.378   9.793  1.2903  0.5900 -0.2050
  112OSM   H12T11641   0.915   0.525   9.715 -0.9922  1.8871 -0.4258
  112OSM   C13S11642   0.701   0.497   9.715  0.8605  0.3101  0.4941
  112OSM   H13S11643   0.681   0.602   9.687  1.4215  0.9855  2.4468
  112OSM   H13T11644   0.618   0.474   9.785  0.3625 -1.3258 -0.5758
  112OSM   C14S11645   0.682   0.398   9.592 -0.4035 -0.2023  0.0497
  112OSM   H14S11646   0.575   0.402   9.562 -0.2128  2.7975 -0.5227
  112OSM   H14T11647   0.714   0.296   9.623 -2.0278 -1.0999 -1.1100
  112OSM   C15S11648   0.760   0.443   9.469 -0.2356  0.1768  0.3418
  112OSM   H15S11649   0.870   0.431   9.482 -0.2319  0.8301  0.9518
  112OSM   H15T11650   0.749   0.552   9.457  2.4728  0.8071  2.4227
  112OSM   C16S11651   0.717   0.370   9.341 -0.4731  1.0168 -0.7112
  112OSM   H16S11652   0.609   0.383   9.321 -0.5294 -0.1065 -1.1839
  112OSM   H16T11653   0.740   0.262   9.349 -3.5042  0.3682  0.1949
  112OSM   C17S11654   0.807   0.413   9.218  0.4605 -0.6341  0.4277
  112OSM   H17S11655   0.913   0.405   9.250  1.6269 -0.4306 -3.0188
  112OSM   H17T11656   0.782   0.519   9.194 -0.3247 -0.8779  0.1170
  112OSM   C18S11657   0.772   0.335   9.094  0.1950 -0.3677 -0.5359
  112OSM   H18S11658   0.803   0.229   9.098 -4.2288 -1.8934 -1.5909
  112OSM   H18T11659   0.816   0.391   9.008  2.8291  0.4568  1.2243
  112OSM   H18U11660   0.662   0.327   9.082  0.2157  0.1169 -1.1286
  112OSM    C1F11661   1.444   0.642  10.634  0.0330  0.1616  0.6254
  112OSM     OF11662   1.531   0.573  10.683  0.4477  0.2706 -0.7918
  112OSM    C2F11663   1.476   0.729  10.518 -0.2679 -0.1809 -0.2413
  112OSM    H2F11664   1.433   0.829  10.542  0.2360 -0.5150  2.3019
  112OSM    H2G11665   1.412   0.695  10.433 -1.4712 -0.4462  0.7346
  112OSM    C3F11666   1.630   0.726  10.504  0.0248 -0.9536 -0.3613
  112OSM    H3F11667   1.680   0.627  10.500  2.1659  0.1215 -2.0705
  112OSM    H3G11668   1.669   0.781  10.593 -1.2489  0.2300 -0.5015
  112OSM    C4F11669   1.691   0.809  10.383  0.0342 -0.2323 -0.6653
  112OSM    H4F11670   1.792   0.847  10.408 -0.2257 -0.1102  0.2328
  112OSM    H4G11671   1.628   0.900  10.373 -0.0621  0.0481  1.8837
  112OSM    C5F11672   1.692   0.725  10.251 -0.3749  0.3606  0.1426
  112OSM    H5F11673   1.584   0.711  10.230 -0.3701  1.9197 -1.1200
  112OSM    H5G11674   1.746   0.631  10.273  1.3670  1.1731 -0.3845
  112OSM    C6F11675   1.735   0.809  10.128 -0.4991  0.1049 -0.4996
  112OSM    H6F11676   1.823   0.871  10.156 -0.1492 -0.0656 -1.2061
  112OSM    H6G11677   1.660   0.883  10.093 -1.1914 -1.8826 -3.5352
  112OSM    C7F11678   1.762   0.717  10.000  0.6744 -0.3306  1.1174
  112OSM    H7F11679   1.676   0.649   9.979  0.6037  0.3062 -0.8758
  112OSM    H7G11680   1.859   0.664  10.010  0.8674 -0.1064  0.4858
  112OSM    C8F11681   1.767   0.820   9.882  0.2576  0.2773 -0.5177
  112OSM    H8F11682   1.861   0.880   9.885 -1.7394  3.7929 -2.0062
  112OSM    H8G11683   1.676   0.883   9.884 -0.0638 -0.1797  1.9454
  112OSM    C9F11684   1.767   0.755   9.747 -0.0892 -0.2186  0.8871
  112OSM    H9F11685   1.793   0.650   9.766  0.9794  0.0497  0.9953
  112OSM   C10F11686   1.751   0.818   9.624 -0.5628 -0.1878 -0.0221
  112OSM   H10F11687   1.765   0.749   9.539 -0.1217 -1.2442  0.8810
  112OSM   C11F11688   1.734   0.962   9.597  0.1828  0.1301  0.3230
  112OSM   H11F11689   1.799   1.000   9.515  0.5706  0.9116  0.9771
  112OSM   H11G11690   1.768   1.017   9.688 -0.5428 -0.0519  0.7082
  112OSM   C12F11691   1.588   1.002   9.556  0.6938  0.5911 -0.0468
  112OSM   H12F11692   1.578   1.111   9.538 -0.4542  0.3501 -0.9701
  112OSM   H12G11693   1.518   0.983   9.640 -3.1992 -0.0336 -3.1514
  112OSM   C13F11694   1.529   0.927   9.438  0.5487 -0.0703  0.4063
  112OSM   H13F11695   1.419   0.937   9.445  0.7238  4.5317 -0.1730
  112OSM   H13G11696   1.563   0.822   9.444  2.4560  0.3290 -1.6899
  112OSM   C14F11697   1.570   0.996   9.306  0.0028  0.0556 -0.7174
  112OSM   H14F11698   1.679   0.999   9.284 -0.0230  0.8269 -0.7668
  112OSM   H14G11699   1.539   1.102   9.321  2.1621  0.5560  0.7536
  112OSM   C15F11700   1.496   0.956   9.181 -0.0971 -0.0241  1.1713
  112OSM   H15F11701   1.388   0.950   9.207 -0.0912  1.1375  1.5539
  112OSM   H15G11702   1.525   0.854   9.148 -1.3005  0.0692 -0.3273
  112OSM   C16F11703   1.500   1.068   9.065  0.6234  0.3902 -1.2661
  112OSM   H16F11704   1.605   1.070   9.028  1.3569  1.0353  0.7503
  112OSM   H16G11705   1.480   1.167   9.110  1.1333  1.7050 -3.7674
  112OSM   C17F11706   1.412   1.028   8.944  0.5605  0.1119  0.6133
  112OSM   H17F11707   1.314   1.032   8.995  1.7604  1.1862  2.9440
  112OSM   H17G11708   1.426   0.920   8.921 -1.6592 -0.1032  0.0594
  112OSM   C18F11709   1.406   1.121   8.822 -0.4626 -0.2949 -0.3960
  112OSM   H18F11710   1.395   1.224   8.863  1.8910  0.5635 -1.7342
  112OSM   H18G11711   1.330   1.098   8.745 -0.5152 -1.3661 -0.0289
  112OSM   H18H11712   1.501   1.126   8.765 -0.2868  1.0670 -0.0227
  113OSM      N11713   5.179   4.817  10.617 -0.1720 -0.4542  0.1525
  113OSM    C1511714   5.088   4.789  10.496  0.1523 -0.4787 -0.2687
  113OSM   H15A11715   5.045   4.690  10.502 -0.2350 -0.2502  0.8368
  113OSM   H15B11716   5.131   4.797  10.397 -0.5382 -1.6031 -0.6792
  113OSM   H15C11717   5.004   4.857  10.491  0.5780  0.0494 -0.4154
  113OSM    C1411718   5.100   4.808  10.740  0.0835 -0.2534  0.0661
  113OSM   H14A11719   5.020   4.880  10.738  2.3286  2.3982 -1.6916
  113OSM   H14B11720   5.167   4.811  10.825  0.0600 -0.8341  0.1114
  113OSM   H14C11721   5.049   4.713  10.751 -0.0979 -0.0608  0.9676
  113OSM    C1311722   5.297   4.728  10.619 -0.0011 -0.3644 -0.0496
  113OSM   H13A11723   5.256   4.628  10.609 -0.8596 -0.1037  0.6953
  113OSM   H13B11724   5.357   4.736  10.709  1.1724 -1.1658 -0.7333
  113OSM   H13C11725   5.367   4.734  10.537  0.3038  0.2888  0.2555
  113OSM    C1211726   5.220   4.964  10.606  0.2641  0.5706 -0.5035
  113OSM   H12A11727   5.273   4.999  10.693 -0.0498 -1.9639  0.8283
  113OSM   H12B11728   5.127   5.019  10.606  0.3969  0.8029 -1.3173
  113OSM    C1111729   5.317   5.004  10.488  0.5848 -0.2940 -0.2495
  113OSM   H11A11730   5.262   5.032  10.396 -0.4137  1.7327  0.8950
  113OSM   H11B11731   5.375   4.919  10.446  2.3183 -0.1184  1.6297
  113OSM      P11732   5.348   5.252  10.584 -0.1150  0.0785  0.2071
  113OSM    O1311733   5.274   5.233  10.710  0.0178  0.1481  0.0646
  113OSM    O1411734   5.453   5.349  10.582  0.8729 -0.5549 -0.0669
  113OSM    O1111735   5.245   5.291  10.479  0.7924  0.3075 -0.0407
  113OSM    O1211736   5.403   5.110  10.534 -0.2665  0.1307  0.8693
  113OSM    C1S11737   5.269   5.316  10.340 -0.2334  0.1381 -0.0958
  113OSM    H1S11738   5.271   5.217  10.289 -0.2596 -1.3203  2.5454
  113OSM    H1T11739   5.365   5.370  10.331  0.4232 -0.4105  2.7231
  113OSM     NF11740   5.198   5.422  10.127  0.4677 -0.4402  0.6104
  113OSM    HNF11741   5.232   5.513  10.107 -1.3182  0.2113  0.3884
  113OSM    C2S11742   5.164   5.415  10.265  0.1087 -0.0825  0.2664
  113OSM    H2S11743   5.067   5.363  10.255  0.5062 -0.5064 -1.8871
  113OSM    C3S11744   5.145   5.553  10.342  0.5323 -0.4750 -1.0347
  113OSM    H3S11745   5.240   5.611  10.342  0.4598 -0.3379 -0.0517
  113OSM     O311746   5.125   5.539  10.481  0.2612 -0.1287 -0.6038
  113OSM    HO311747   5.145   5.447  10.500  0.9537  0.1092 -0.1339
  113OSM    C4S11748   5.035   5.642  10.283 -0.3280  0.9238  0.1289
  113OSM    H4S11749   5.080   5.739  10.257 -0.9316  1.4555  1.0088
  113OSM    C5S11750   4.901   5.607  10.265  0.0253 -0.1079 -0.1702
  113OSM    H5S11751   4.869   5.503  10.278  0.1273  0.0173  1.3216
  113OSM    C6S11752   4.791   5.705  10.211  0.0096 -0.0892 -0.7263
  113OSM    H6S11753   4.832   5.808  10.217 -2.2699  0.8909 -0.5588
  113OSM    H6T11754   4.701   5.702  10.277  0.3516 -0.2173 -0.2569
  113OSM    C7S11755   4.730   5.677  10.073  0.6995  0.2244 -0.4557
  113OSM    H7S11756   4.659   5.752  10.033 -0.1710 -0.1032  0.4292
  113OSM    H7T11757   4.680   5.579  10.088  3.3025 -1.2647 -0.9419
  113OSM    C8S11758   4.844   5.652   9.976 -0.4344 -0.2568  0.4889
  113OSM    H8S11759   4.914   5.573  10.009  0.9137  0.9393  0.5702
  113OSM    H8T11760   4.909   5.741   9.958  0.3048 -0.6456  1.1881
  113OSM    C9S11761   4.772   5.602   9.850  0.4560  0.5941 -0.6489
  113OSM    H9S11762   4.702   5.680   9.812  1.6520  2.5608  0.9419
  113OSM    H9T11763   4.714   5.512   9.877 -1.0769  1.7573  0.0867
  113OSM   C10S11764   4.860   5.570   9.729 -0.1400 -0.5603  0.3492
  113OSM   H10S11765   4.932   5.492   9.761 -0.3827 -0.6093  0.7923
  113OSM   H10T11766   4.924   5.653   9.692  0.9207 -0.6919  1.7951
  113OSM   C11S11767   4.784   5.515   9.605 -0.3240  0.0836 -0.6795
  113OSM   H11S11768   4.696   5.579   9.584 -1.4405 -1.5804 -1.2776
  113OSM   H11T11769   4.751   5.409   9.612 -2.5879  0.7484 -0.4866
  113OSM   C12S11770   4.862   5.541   9.476 -0.7683  0.6047  0.5049
  113OSM   H12S11771   4.949   5.475   9.455 -0.0857  1.6106  0.0969
  113OSM   H12T11772   4.904   5.644   9.472  0.2978  0.1419 -0.6975
  113OSM   C13S11773   4.781   5.541   9.344  0.4700  0.2309  0.9766
  113OSM   H13S11774   4.694   5.609   9.353 -0.6237 -1.0629  0.4011
  113OSM   H13T11775   4.736   5.441   9.332 -0.0864  0.7020 -1.1493
  113OSM   C14S11776   4.861   5.564   9.213  0.0052 -0.9800 -0.5463
  113OSM   H14S11777   4.937   5.483   9.210 -0.7443 -1.7138 -4.1378
  113OSM   H14T11778   4.911   5.663   9.225 -0.0804 -1.1966  2.3110
  113OSM   C15S11779   4.767   5.582   9.096  0.5420 -0.2515  0.3255
  113OSM   H15S11780   4.682   5.648   9.120 -0.1612 -0.6879 -0.8927
  113OSM   H15T11781   4.721   5.484   9.068 -0.8950  0.6125 -0.4325
  113OSM   C16S11782   4.825   5.641   8.959  0.2804 -0.0104 -0.2019
  113OSM   H16S11783   4.896   5.574   8.907 -0.6394  0.9569 -2.8674
  113OSM   H16T11784   4.889   5.730   8.979 -0.3405  0.1921  1.0412
  113OSM   C17S11785   4.712   5.679   8.866  1.0964  0.0907  0.8437
  113OSM   H17S11786   4.656   5.752   8.927 -0.8139 -1.5663  1.1753
  113OSM   H17T11787   4.641   5.594   8.863 -0.0693  1.0121  1.3167
  113OSM   C18S11788   4.744   5.738   8.727  0.2447  0.0051  0.1527
  113OSM   H18S11789   4.826   5.676   8.686  1.8347  1.3315  1.2162
  113OSM   H18T11790   4.776   5.844   8.733  0.0476  0.1008 -0.4417
  113OSM   H18U11791   4.655   5.733   8.661  0.1251  1.6539  0.1585
  113OSM    C1F11792   5.202   5.316  10.045  0.5290  0.0613 -0.2568
  113OSM     OF11793   5.169   5.201  10.083 -0.4283 -0.1645 -0.1255
  113OSM    C2F11794   5.257   5.338   9.912  0.5015  0.5132  0.1386
  113OSM    H2F11795   5.365   5.313   9.914  0.2409 -0.7655 -0.7595
  113OSM    H2G11796   5.248   5.443   9.875 -3.2885  0.4360  0.4604
  113OSM    C3F11797   5.179   5.241   9.814 -0.5802 -0.0362 -0.2342
  113OSM    H3F11798   5.070   5.237   9.834 -0.6609 -1.3455 -0.8173
  113OSM    H3G11799   5.220   5.138   9.825 -0.6384 -0.2373 -1.7039
  113OSM    C4F11800   5.208   5.282   9.666 -0.2258  0.1814  0.4282
  113OSM    H4F11801   5.318   5.282   9.652 -0.2116  1.7856  0.2535
  113OSM    H4G11802   5.171   5.386   9.649 -1.4649 -0.5544 -1.7007
  113OSM    C5F11803   5.135   5.183   9.574 -0.3686 -0.3888 -0.6046
  113OSM    H5F11804   5.027   5.181   9.598 -0.4724 -0.6707 -1.0892
  113OSM    H5G11805   5.182   5.085   9.597  0.3955 -0.3889 -2.0265
  113OSM    C6F11806   5.169   5.220   9.426 -0.1593 -0.1497 -0.4438
  113OSM    H6F11807   5.270   5.177   9.413 -0.3155 -0.6478 -0.0301
  113OSM    H6G11808   5.173   5.330   9.411 -0.8514  0.0658  0.7846
  113OSM    C7F11809   5.066   5.157   9.338  0.4592 -0.0686 -0.0182
  113OSM    H7F11810   4.971   5.214   9.345  1.7733  2.4331 -1.0901
  113OSM    H7G11811   5.038   5.054   9.368 -1.2143 -0.1430 -1.6441
  113OSM    C8F11812   5.098   5.158   9.188 -0.4621 -0.3632 -0.0243
  113OSM    H8F11813   5.003   5.128   9.138 -1.4436  1.9666  0.3301
  113OSM    H8G11814   5.166   5.073   9.166 -0.6749 -0.2379 -1.2015
  113OSM    C9F11815   5.158   5.279   9.126  0.2818  0.1778 -0.3244
  113OSM    H9F11816   5.093   5.367   9.132  0.7057  0.4403  0.4050
  113OSM   C10F11817   5.282   5.292   9.081 -0.5864 -0.1276 -0.4428
  113OSM   H10F11818   5.313   5.387   9.036 -2.1547 -0.9789 -3.6203
  113OSM   C11F11819   5.396   5.187   9.083  0.4321  0.2232  0.2191
  113OSM   H11F11820   5.376   5.093   9.137  0.7699 -0.6576 -1.1385
  113OSM   H11G11821   5.486   5.234   9.129  0.6465 -1.0860  1.1656
  113OSM   C12F11822   5.452   5.164   8.939  0.3609  0.1186 -0.3474
  113OSM   H12F11823   5.554   5.119   8.947  0.1809 -0.1050  0.8942
  113OSM   H12G11824   5.458   5.257   8.879 -1.0339  1.4597  1.4465
  113OSM   C13F11825   5.363   5.059   8.880  0.0719  0.1424 -0.1918
  113OSM   H13F11826   5.260   5.095   8.860  0.3228  0.9628 -0.0598
  113OSM   H13G11827   5.367   4.985   8.963  1.3788 -0.4160 -0.7260
  113OSM   C14F11828   5.421   4.997   8.755  0.1232  1.0262  0.0581
  113OSM   H14F11829   5.356   4.911   8.729  0.3813  0.3017  1.6956
  113OSM   H14G11830   5.522   4.958   8.781  1.6101  2.9262 -2.4516
  113OSM   C15F11831   5.444   5.085   8.634  0.3431  0.1226  0.6181
  113OSM   H15F11832   5.523   5.160   8.653 -0.7711  2.0750 -1.7684
  113OSM   H15G11833   5.349   5.141   8.621 -1.0823 -1.8473  1.9386
  113OSM   C16F11834   5.478   5.013   8.502  0.4638 -0.5422  0.2273
  113OSM   H16F11835   5.579   4.969   8.520  0.5177 -0.2413  0.6683
  113OSM   H16G11836   5.486   5.078   8.413 -0.0295 -1.7394 -0.7164
  113OSM   C17F11837   5.384   4.889   8.475 -0.2509  0.0009 -0.1783
  113OSM   H17F11838   5.285   4.921   8.514  0.6160  0.5557  1.6943
  113OSM   H17G11839   5.410   4.796   8.530  0.1224  0.2307  0.0331
  113OSM   C18F11840   5.368   4.859   8.323 -0.2056 -0.6373 -0.4324
  113OSM   H18F11841   5.466   4.856   8.270  0.7777  2.6131  0.9180
  113OSM   H18G11842   5.318   4.944   8.271  2.2233  1.5260  0.5355
  113OSM   H18H11843   5.308   4.769   8.299 -0.6549 -0.1767 -1.0691
  114OSM      N11844   6.400   0.640  11.131 -0.2502  0.3310  0.3364
  114OSM    C1511845   6.442   0.504  11.091  0.1893  0.1699 -0.4277
  114OSM   H15A11846   6.476   0.513  10.989  2.1847  4.3288  0.3865
  114OSM   H15B11847   6.363   0.433  11.110  0.6056  0.0925  1.1543
  114OSM   H15C11848   6.532   0.473  11.141  0.2072 -1.7636 -1.5815
  114OSM    C1411849   6.301   0.691  11.037 -0.2289  0.4079  0.3281
  114OSM   H14A11850   6.317   0.681  10.931  2.2958 -0.9449  0.7606
  114OSM   H14B11851   6.288   0.796  11.061 -0.7411 -0.1428  2.6595
  114OSM   H14C11852   6.206   0.640  11.049  0.2279 -0.0104  2.5549
  114OSM    C1311853   6.336   0.647  11.270 -0.2290  0.1614  0.4211
  114OSM   H13A11854   6.414   0.652  11.344  0.9383 -1.5028 -0.6124
  114OSM   H13B11855   6.254   0.578  11.286 -1.1191  1.1937  0.5005
  114OSM   H13C11856   6.293   0.746  11.276  0.3247  0.4963 -0.7950
  114OSM    C1211857   6.517   0.731  11.130  0.2356  0.1115 -0.7893
  114OSM   H12A11858   6.584   0.705  11.210 -2.1455 -0.7118  1.0729
  114OSM   H12B11859   6.477   0.829  11.152  1.7167  0.8070 -1.0939
  114OSM    C1111860   6.599   0.726  10.997 -0.0726  0.2704 -0.0709
  114OSM   H11A11861   6.533   0.722  10.908  1.8095  0.7333 -1.5559
  114OSM   H11B11862   6.654   0.630  10.995 -1.1860 -0.3943  0.1741
  114OSM      P11863   6.655   0.981  10.926 -0.1992  0.1200  0.0134
  114OSM    O1311864   6.544   1.044  11.003 -0.2024  0.5265 -0.6577
  114OSM    O1411865   6.784   1.054  10.909  0.0792  0.2333  0.4657
  114OSM    O1111866   6.603   0.932  10.785  0.2766  0.1602  0.1805
  114OSM    O1211867   6.688   0.832  10.989 -0.4575 -0.4941  0.5405
  114OSM    C1S11868   6.659   0.980  10.656 -0.6091  0.5345 -0.1272
  114OSM    H1S11869   6.718   1.073  10.667 -0.0425  0.2444 -0.6705
  114OSM    H1T11870   6.570   1.007  10.595 -1.2106  0.4811  0.6975
  114OSM     NF11871   6.807   0.940  10.459 -0.2861  0.5273 -0.1178
  114OSM    HNF11872   6.778   0.915  10.367  1.0676  1.0317 -0.7022
  114OSM    C2S11873   6.740   0.876  10.571  0.1808 -0.4145 -0.7886
  114OSM    H2S11874   6.821   0.846  10.641 -0.1125  0.9300  0.1623
  114OSM    C3S11875   6.650   0.752  10.531 -0.2166 -0.0259 -0.0485
  114OSM    H3S11876   6.561   0.800  10.487 -0.4847  0.0605  0.5692
  114OSM     O311877   6.587   0.687  10.638 -0.4677 -0.3237  0.0440
  114OSM    HO311878   6.582   0.759  10.702 -0.3618 -0.1933 -0.0966
  114OSM    C4S11879   6.723   0.649  10.463 -0.2875  0.2791  0.7903
  114OSM    H4S11880   6.692   0.630  10.359 -0.6678  0.8997  0.7860
  114OSM    C5S11881   6.800   0.560  10.522  0.1523  0.7733 -0.0516
  114OSM    H5S11882   6.809   0.557  10.631 -1.7741  3.8782  0.2908
  114OSM    C6S11883   6.858   0.439  10.448  0.4466  0.1511 -0.2576
  114OSM    H6S11884   6.793   0.353  10.475  1.5013 -0.2467  1.1492
  114OSM    H6T11885   6.957   0.410  10.491  1.1345  0.0046 -1.8782
  114OSM    C7S11886   6.868   0.445  10.291  0.2592  0.0984  0.1053
  114OSM    H7S11887   6.937   0.531  10.273 -0.4829  0.5080 -0.8407
  114OSM    H7T11888   6.765   0.457  10.252  0.2075 -1.0081 -0.1103
  114OSM    C8S11889   6.931   0.317  10.229 -0.2708  0.2740 -0.3039
  114OSM    H8S11890   6.910   0.230  10.295 -0.2958 -0.2173 -0.9453
  114OSM    H8T11891   7.041   0.333  10.227 -0.2108 -0.1252 -2.1078
  114OSM    C9S11892   6.856   0.292  10.096  0.0871 -0.0656 -0.4192
  114OSM    H9S11893   6.871   0.384  10.035  1.6050  0.0229  0.0526
  114OSM    H9T11894   6.747   0.280  10.114  0.2096  1.4881  1.7230
  114OSM   C10S11895   6.926   0.178  10.026  0.2404  0.9041  0.5370
  114OSM   H10S11896   6.918   0.081  10.080  0.3125 -1.4711 -3.3302
  114OSM   H10T11897   7.035   0.198  10.028  0.1738  1.5186 -0.8808
  114OSM   C11S11898   6.873   0.154   9.887 -0.1718 -0.0881  0.1088
  114OSM   H11S11899   6.763   0.154   9.897 -0.2397  0.9034 -0.4484
  114OSM   H11T11900   6.896   0.053   9.845 -1.8503  0.3599 -2.0564
  114OSM   C12S11901   6.901   0.253   9.779 -0.1710  0.1542 -0.0665
  114OSM   H12S11902   7.007   0.288   9.783  0.3396 -1.2235 -0.6536
  114OSM   H12T11903   6.830   0.331   9.813  0.9722  1.9716 -1.6500
  114OSM   C13S11904   6.879   0.212   9.636  1.2195  0.0696 -0.3817
  114OSM   H13S11905   6.943   0.126   9.609  0.1157 -0.3766 -1.6856
  114OSM   H13T11906   6.895   0.302   9.572  2.0179 -0.8808 -1.5499
  114OSM   C14S11907   6.728   0.184   9.602  0.5361  0.3421 -0.1549
  114OSM   H14S11908   6.669   0.264   9.651  0.2735  0.3272 -0.4509
  114OSM   H14T11909   6.712   0.083   9.646 -2.1595  0.4421 -0.7555
  114OSM   C15S11910   6.691   0.179   9.452  0.3165 -0.1287 -0.1388
  114OSM   H15S11911   6.703   0.274   9.395  0.1918  0.4045  0.7065
  114OSM   H15T11912   6.588   0.143   9.433  0.7300 -1.6861  0.4528
  114OSM   C16S11913   6.790   0.086   9.366 -0.4786 -0.4074 -0.3572
  114OSM   H16S11914   6.787  -0.022   9.395 -1.9770 -0.2643  0.0998
  114OSM   H16T11915   6.896   0.113   9.387  0.1354 -1.5543 -1.7424
  114OSM   C17S11916   6.771   0.102   9.213  0.2711  0.6293  0.3718
  114OSM   H17S11917   6.666   0.115   9.180  0.4605 -0.9860 -1.0180
  114OSM   H17T11918   6.800   0.002   9.174  2.1771  1.5472 -0.7179
  114OSM   C18S11919   6.856   0.210   9.154  0.3158  0.3338 -0.4323
  114OSM   H18S11920   6.960   0.211   9.193  1.2866 -0.0682 -2.8356
  114OSM   H18T11921   6.810   0.306   9.184  0.9928  0.9150 -1.1873
  114OSM   H18U11922   6.851   0.213   9.043 -1.7532  3.7114 -0.3831
  114OSM    C1F11923   6.903   1.035  10.473 -0.0267 -0.8719  1.0779
  114OSM     OF11924   6.944   1.065  10.587 -0.0049  0.5117  0.6494
  114OSM    C2F11925   6.939   1.100  10.341  0.2754 -0.2531 -0.4934
  114OSM    H2F11926   6.862   1.171  10.304  2.1364  1.5048 -1.2011
  114OSM    H2G11927   6.940   1.026  10.258 -0.5920 -1.0205  0.1634
  114OSM    C3F11928   7.079   1.175  10.347  0.6246  0.7228 -0.1415
  114OSM    H3F11929   7.162   1.104  10.366  0.8033  0.6904 -1.0113
  114OSM    H3G11930   7.073   1.242  10.436 -0.7252  1.7038 -0.9370
  114OSM    C4F11931   7.110   1.271  10.226  0.0066  0.3006  0.5268
  114OSM    H4F11932   7.209   1.307  10.261  1.1419 -0.3982 -1.7802
  114OSM    H4G11933   7.036   1.351  10.209  1.1006  1.3654  0.6685
  114OSM    C5F11934   7.141   1.188  10.100  0.3714 -0.5016  0.6042
  114OSM    H5F11935   7.066   1.107  10.083 -1.0552  0.5608  1.6398
  114OSM    H5G11936   7.242   1.145  10.117  1.5759  0.8881 -2.3552
  114OSM    C6F11937   7.132   1.282   9.975  0.4814  0.5273 -0.1534
  114OSM    H6F11938   7.053   1.357   9.994  0.9365  1.1044 -0.5290
  114OSM    H6G11939   7.092   1.231   9.885 -0.1210  0.7637 -0.0235
  114OSM    C7F11940   7.256   1.366   9.939  0.3282  0.6272 -0.4653
  114OSM    H7F11941   7.346   1.301   9.931  0.1656  0.3881 -0.3784
  114OSM    H7G11942   7.278   1.418  10.035 -1.5254 -1.3182  1.1107
  114OSM    C8F11943   7.235   1.469   9.830  0.2348  0.1986 -0.2006
  114OSM    H8F11944   7.329   1.527   9.827  0.7353 -0.5450  0.7090
  114OSM    H8G11945   7.154   1.545   9.842 -1.4828 -1.3254 -1.4900
  114OSM    C9F11946   7.234   1.393   9.698  0.7197  0.2409 -0.2516
  114OSM    H9F11947   7.306   1.310   9.705 -0.0170 -0.2806  2.1557
  114OSM   C10F11948   7.150   1.426   9.588 -1.1175 -0.6885 -0.0785
  114OSM   H10F11949   7.158   1.370   9.494  1.0029 -0.0535 -0.3354
  114OSM   C11F11950   7.066   1.550   9.568  0.3426 -0.4680 -0.2373
  114OSM   H11F11951   7.090   1.626   9.646  4.5489 -2.4725  0.7630
  114OSM   H11G11952   6.963   1.511   9.583  0.8563 -1.9422 -0.3481
  114OSM   C12F11953   7.083   1.633   9.437  0.4690 -1.3395 -0.2513
  114OSM   H12F11954   7.171   1.699   9.456  0.5102 -1.5036  0.1383
  114OSM   H12G11955   6.997   1.703   9.435  1.7486  0.2939 -2.1439
  114OSM   C13F11956   7.099   1.564   9.308 -0.3314 -0.4792 -0.3077
  114OSM   H13F11957   7.000   1.521   9.281 -0.8492  0.9735 -0.8299
  114OSM   H13G11958   7.187   1.497   9.298  1.1878  1.4709 -0.6776
  114OSM   C14F11959   7.112   1.679   9.206 -0.9408  0.0721  0.2985
  114OSM   H14F11960   7.203   1.741   9.223 -2.6104  3.1863 -1.1644
  114OSM   H14G11961   7.033   1.757   9.219  1.3528  2.3112  1.8027
  114OSM   C15F11962   7.111   1.634   9.058  0.0653 -0.3909 -0.3476
  114OSM   H15F11963   7.018   1.577   9.038 -0.6216  0.5269  0.1382
  114OSM   H15G11964   7.195   1.565   9.035  0.9217  0.4405  0.1899
  114OSM   C16F11965   7.128   1.744   8.958  0.9445 -0.8085  0.9247
  114OSM   H16F11966   7.168   1.710   8.860  0.0132 -1.3840  0.7349
  114OSM   H16G11967   7.207   1.817   8.985  0.5696 -0.5460  1.3182
  114OSM   C17F11968   6.998   1.824   8.933 -0.0923 -0.6522  0.0348
  114OSM   H17F11969   6.952   1.878   9.019  1.5800  1.4903 -0.3097
  114OSM   H17G11970   6.935   1.735   8.912  1.2841 -1.6983  0.2326
  114OSM   C18F11971   7.001   1.909   8.806  0.3088  0.2299 -0.1098
  114OSM   H18F11972   6.898   1.944   8.783 -0.9166 -0.9100  3.0277
  114OSM   H18G11973   7.049   1.859   8.719 -1.5374  0.8587 -1.5595
  114OSM   H18H11974   7.055   2.004   8.822 -1.5902  1.5049 -0.8999
  115OSM      N11975   4.487   6.716  10.690 -0.3356 -0.1679 -0.2237
  115OSM    C1511976   4.562   6.811  10.783  0.1213  0.0049  0.2637
  115OSM   H15A11977   4.502   6.900  10.780 -1.1080 -0.8127 -0.6085
  115OSM   H15B11978   4.663   6.816  10.746  0.5352 -2.2628  0.9040
  115OSM   H15C11979   4.567   6.771  10.883  0.1928 -2.9394 -0.8092
  115OSM    C1411980   4.506   6.759  10.552 -0.3725  0.1154 -0.5213
  115OSM   H14A11981   4.465   6.859  10.542 -0.5392 -0.2050 -4.4325
  115OSM   H14B11982   4.441   6.698  10.491 -2.0882  1.1213  0.2117
  115OSM   H14C11983   4.607   6.752  10.516 -1.0038 -0.7248 -2.2629
  115OSM    C1311984   4.543   6.575  10.712 -0.0600 -0.0974 -0.2755
  115OSM   H13A11985   4.512   6.511  10.630 -0.1944 -2.7736  1.7379
  115OSM   H13B11986   4.498   6.522  10.794  0.1374 -0.4939 -0.4230
  115OSM   H13C11987   4.650   6.571  10.726  0.0445  0.0413 -0.9930
  115OSM    C1211988   4.339   6.713  10.732 -0.0071 -0.1631  0.0446
  115OSM   H12A11989   4.332   6.685  10.835  0.1857 -1.8744 -0.3846
  115OSM   H12B11990   4.294   6.639  10.668  2.0110 -0.8709 -0.6338
  115OSM    C1111991   4.254   6.847  10.710 -0.3676  0.2325 -0.3552
  115OSM   H11A11992   4.308   6.923  10.770  1.5540 -1.4434  0.1722
  115OSM   H11B11993   4.155   6.842  10.759 -0.7760  1.1458 -1.0566
  115OSM      P11994   4.136   6.804  10.480  0.4256  0.6122  0.0310
  115OSM    O1311995   4.188   6.672  10.434  0.6889  0.4477 -0.1603
  115OSM    O1411996   4.002   6.800  10.547  0.3752  0.5602  0.1764
  115OSM    O1111997   4.117   6.897  10.362 -0.4214 -0.5155  0.1372
  115OSM    O1211998   4.238   6.877  10.567  0.5242  0.1530  0.0984
  115OSM    C1S11999   4.083   7.032  10.374 -0.3293 -0.5910  0.0730
  115OSM    H1S12000   4.138   7.091  10.450  0.2094  0.4641 -1.1041
  115OSM    H1T12001   3.981   7.032  10.420 -0.3687 -0.6432 -0.0128
  115OSM     NF12002   4.082   7.252  10.254  0.2403  0.3348  0.2570
  115OSM    HNF12003   3.994   7.296  10.241 -0.7680 -1.2406  1.4787
  115OSM    C2S12004   4.088   7.110  10.237  0.1766  0.1856 -0.2628
  115OSM    H2S12005   4.184   7.086  10.186  1.0294 -0.1523  1.4189
  115OSM    C3S12006   3.987   7.045  10.134  0.0419  0.4858  0.6831
  115OSM    H3S12007   3.885   7.049  10.176 -0.3820 -0.1975 -0.2351
  115OSM     O312008   4.015   6.903  10.104  0.0490  0.2349  0.3840
  115OSM    HO312009   4.084   6.878  10.166 -0.6732 -1.1134  0.6856
  115OSM    C4S12010   3.985   7.112  10.001  0.7901  0.7643 -0.1948
  115OSM    H4S12011   4.082   7.103   9.950  1.6631 -0.0926  1.5069
  115OSM    C5S12012   3.882   7.158   9.924  0.3575 -0.3793 -0.2760
  115OSM    H5S12013   3.783   7.156   9.972  0.1221  1.6307 -0.5972
  115OSM    C6S12014   3.874   7.200   9.779  0.3481 -0.0996 -0.0415
  115OSM    H6S12015   3.827   7.125   9.712  1.5139 -1.0499  0.1832
  115OSM    H6T12016   3.973   7.206   9.728  0.9384  0.0583  1.1018
  115OSM    C7S12017   3.787   7.326   9.757  0.7075  0.9734 -0.0910
  115OSM    H7S12018   3.773   7.346   9.649  0.1746  1.8893  0.1407
  115OSM    H7T12019   3.843   7.413   9.797  0.1210  1.5457 -0.4959
  115OSM    C8S12020   3.640   7.318   9.798  0.2546  0.7223  0.8720
  115OSM    H8S12021   3.600   7.415   9.761  2.0650  1.1235 -0.1487
  115OSM    H8T12022   3.628   7.307   9.908  1.1216 -0.1850  0.8860
  115OSM    C9S12023   3.552   7.200   9.732 -0.0853  0.8293 -1.0943
  115OSM    H9S12024   3.448   7.209   9.768  0.3566  0.3495  0.4178
  115OSM    H9T12025   3.592   7.100   9.760 -0.5062  0.3988 -2.0063
  115OSM   C10S12026   3.570   7.184   9.578  0.7560 -0.6432 -0.3201
  115OSM   H10S12027   3.672   7.140   9.565  0.6916 -1.2654  1.1155
  115OSM   H10T12028   3.553   7.283   9.531 -3.3426 -0.5082  1.0327
  115OSM   C11S12029   3.460   7.096   9.517 -1.0547  0.2081 -0.4822
  115OSM   H11S12030   3.372   7.145   9.563 -0.2061  0.2867  1.1183
  115OSM   H11T12031   3.445   6.992   9.552 -0.4385  0.9058  2.0565
  115OSM   C12S12032   3.458   7.104   9.361 -0.0176  1.0552 -0.1829
  115OSM   H12S12033   3.560   7.083   9.322  0.1054 -0.5539  0.9066
  115OSM   H12T12034   3.445   7.212   9.335 -0.3179  1.0351 -0.1162
  115OSM   C13S12035   3.344   7.031   9.295 -0.0401  0.1987  0.1100
  115OSM   H13S12036   3.252   7.053   9.352 -0.1919 -1.3336  0.4967
  115OSM   H13T12037   3.366   6.922   9.302  0.2856  0.0988 -1.7492
  115OSM   C14S12038   3.321   7.064   9.148 -0.0968  0.2760  0.4070
  115OSM   H14S12039   3.281   7.168   9.147  1.2203  0.8023 -0.4432
  115OSM   H14T12040   3.246   7.000   9.098 -2.2257  2.2420  0.8977
  115OSM   C15S12041   3.452   7.042   9.061  0.9519 -0.1738  0.9545
  115OSM   H15S12042   3.472   6.934   9.078 -2.8778 -0.8606  2.0432
  115OSM   H15T12043   3.535   7.108   9.095  1.4100  0.2296 -0.8657
  115OSM   C16S12044   3.415   7.062   8.913 -0.4290 -0.2416 -0.3923
  115OSM   H16S12045   3.375   7.163   8.890  0.3882  0.0455 -0.5992
  115OSM   H16T12046   3.339   6.985   8.889  0.0946 -1.0049  0.3324
  115OSM   C17S12047   3.547   7.032   8.828  0.4445 -0.4143  0.1192
  115OSM   H17S12048   3.577   6.926   8.834 -1.6993 -0.9912  3.1631
  115OSM   H17T12049   3.633   7.089   8.869  0.0951  1.4824 -1.5899
  115OSM   C18S12050   3.537   7.088   8.681 -0.1787  1.0900  0.2993
  115OSM   H18S12051   3.455   7.037   8.627  0.7811  0.8014 -0.9525
  115OSM   H18T12052   3.635   7.073   8.630  1.1303  2.7410  2.1874
  115OSM   H18U12053   3.514   7.196   8.687 -1.7604  0.7269  1.0709
  115OSM    C1F12054   4.181   7.334  10.276 -0.4075  0.7428 -0.5554
  115OSM     OF12055   4.290   7.292  10.309 -0.2963 -0.5741  0.2599
  115OSM    C2F12056   4.157   7.476  10.273  0.1455 -0.2330 -0.2124
  115OSM    H2F12057   4.248   7.534  10.299 -0.0919 -0.2945  0.7692
  115OSM    H2G12058   4.068   7.509  10.330 -1.2959 -1.4679 -1.6211
  115OSM    C3F12059   4.127   7.513  10.126 -0.1947 -0.0474 -0.4389
  115OSM    H3F12060   4.108   7.621  10.142  0.0409  0.0134 -0.5654
  115OSM    H3G12061   4.037   7.466  10.079 -1.6434  1.4066  0.7508
  115OSM    C4F12062   4.239   7.482  10.026 -0.2070  0.6054  0.2508
  115OSM    H4F12063   4.238   7.376   9.993  0.2508 -0.0968  2.3920
  115OSM    H4G12064   4.341   7.504  10.062 -0.3875  2.5494 -0.3222
  115OSM    C5F12065   4.216   7.573   9.903 -0.3252 -0.2549  0.3515
  115OSM    H5F12066   4.305   7.569   9.837  0.1539  0.9565  0.8958
  115OSM    H5G12067   4.205   7.678   9.936  2.1124 -0.4586  2.0676
  115OSM    C6F12068   4.100   7.536   9.812  0.6626  0.2332 -0.3935
  115OSM    H6F12069   4.003   7.531   9.865  0.6416 -1.7937 -0.5430
  115OSM    H6G12070   4.120   7.430   9.785 -1.5250 -0.5999  1.0211
  115OSM    C7F12071   4.088   7.621   9.686  0.9715 -0.3081  0.5569
  115OSM    H7F12072   4.189   7.636   9.642  0.6957  4.0198  0.9329
  115OSM    H7G12073   4.061   7.725   9.716  1.5986  0.1532 -0.4035
  115OSM    C8F12074   3.978   7.575   9.586  0.0152  0.0126 -0.2607
  115OSM    H8F12075   3.879   7.575   9.638  0.5354 -0.3620  0.7575
  115OSM    H8G12076   3.999   7.466   9.575 -0.0260  0.1199 -1.5994
  115OSM    C9F12077   3.979   7.640   9.446  0.3219  0.1160 -0.6176
  115OSM    H9F12078   3.959   7.749   9.444  0.9199  0.2289 -2.2264
  115OSM   C10F12079   3.978   7.583   9.327  0.3100 -0.2698 -0.8889
  115OSM   H10F12080   3.984   7.651   9.241 -0.0209  1.3998  0.3696
  115OSM   C11F12081   3.974   7.435   9.295 -0.4911  0.0909  0.0228
  115OSM   H11F12082   4.040   7.371   9.357 -0.3292 -0.9224 -1.1432
  115OSM   H11G12083   4.006   7.422   9.189 -0.0275  0.3384  0.1253
  115OSM   C12F12084   3.841   7.357   9.308 -0.3167 -0.2629 -0.8504
  115OSM   H12F12085   3.832   7.351   9.419  1.4604 -2.3645 -0.7522
  115OSM   H12G12086   3.858   7.253   9.273 -0.1188 -0.9561  1.1454
  115OSM   C13F12087   3.719   7.413   9.242  0.1559 -1.0207  0.2858
  115OSM   H13F12088   3.712   7.515   9.286 -1.7757 -0.8466 -0.3204
  115OSM   H13G12089   3.621   7.364   9.262 -0.1003 -0.5651  0.1720
  115OSM   C14F12090   3.735   7.424   9.091  0.0227  0.1389  0.2923
  115OSM   H14F12091   3.730   7.326   9.039  0.2065  0.3222 -0.0754
  115OSM   H14G12092   3.833   7.470   9.063 -0.8952  1.0188 -1.6365
  115OSM   C15F12093   3.630   7.514   9.025  0.2572 -0.9062  0.4698
  115OSM   H15F12094   3.670   7.618   9.021 -1.3183 -0.3107 -1.6799
  115OSM   H15G12095   3.534   7.524   9.080  0.2392  1.3238  0.1350
  115OSM   C16F12096   3.607   7.476   8.873  0.0555  0.8057  0.5505
  115OSM   H16F12097   3.552   7.379   8.879  0.6242  0.4978  0.8741
  115OSM   H16G12098   3.705   7.457   8.825 -0.4454 -2.5956  0.5847
  115OSM   C17F12099   3.526   7.588   8.811  0.9926  0.3437  0.5475
  115OSM   H17F12100   3.586   7.680   8.798  1.5032 -0.0760 -0.1512
  115OSM   H17G12101   3.437   7.614   8.872  0.8173  1.5869 -0.1991
  115OSM   C18F12102   3.483   7.545   8.662 -0.0778 -0.2215 -0.3049
  115OSM   H18F12103   3.569   7.545   8.593 -0.3782  2.5740 -0.7832
  115OSM   H18G12104   3.415   7.622   8.620 -0.9161 -0.6767  0.1885
  115OSM   H18H12105   3.435   7.444   8.668 -0.4019 -0.1575 -1.5440
  116OSM      N12106   0.405   2.799  10.848  0.2520  0.2730  0.1842
  116OSM    C1512107   0.287   2.884  10.844 -0.0820  0.3053  0.9057
  116OSM   H15A12108   0.280   2.936  10.749  3.1515 -1.0712 -0.2547
  116OSM   H15B12109   0.293   2.960  10.920 -0.1358  1.2506 -0.0117
  116OSM   H15C12110   0.196   2.826  10.846 -0.2043  0.3375 -1.2118
  116OSM    C1412111   0.439   2.773  10.994 -0.4437  1.0440  0.0564
  116OSM   H14A12112   0.349   2.751  11.049 -0.7322  1.4323 -0.2498
  116OSM   H14B12113   0.483   2.857  11.045 -0.0537  0.5542  0.5283
  116OSM   H14C12114   0.504   2.689  11.013 -1.8815  0.5429  3.2867
  116OSM    C1312115   0.370   2.676  10.770 -0.1104  0.2854 -0.2202
  116OSM   H13A12116   0.309   2.606  10.825  1.8130 -1.7314 -0.5400
  116OSM   H13B12117   0.468   2.637  10.748 -0.0215 -0.1167  0.8575
  116OSM   H13C12118   0.336   2.700  10.670 -0.8742  2.1424  0.4436
  116OSM    C1212119   0.522   2.879  10.782 -0.0891  0.0832  0.3268
  116OSM   H12A12120   0.533   2.970  10.839 -0.7477 -0.7104  1.7737
  116OSM   H12B12121   0.494   2.921  10.687 -1.1401  2.4815  1.6042
  116OSM    C1112122   0.660   2.806  10.780  0.3166 -0.2067  0.9774
  116OSM   H11A12123   0.677   2.785  10.888 -2.1393  0.0575  1.4766
  116OSM   H11B12124   0.736   2.878  10.743 -0.0379  0.2475  1.1160
  116OSM      P12125   0.636   2.696  10.550 -0.2074 -0.1861  0.0718
  116OSM    O1312126   0.760   2.646  10.485  0.1375 -0.1034 -0.1876
  116OSM    O1412127   0.511   2.629  10.514 -0.0506 -0.0276 -0.8475
  116OSM    O1112128   0.615   2.849  10.527  0.4843  0.2156 -0.3213
  116OSM    O1212129   0.646   2.685  10.705 -0.7779 -0.0349  0.3357
  116OSM    C1S12130   0.700   2.936  10.452 -0.2603  0.4556  0.0455
  116OSM    H1S12131   0.803   2.894  10.455 -0.9152 -1.2013  0.4682
  116OSM    H1T12132   0.707   3.036  10.500  0.3984  0.3139  0.2632
  116OSM     NF12133   0.773   3.022  10.227 -0.2966  0.0184 -0.5179
  116OSM    HNF12134   0.757   3.119  10.212  1.2069  0.1773 -1.1721
  116OSM    C2S12135   0.668   2.946  10.298  0.3190  0.5521 -0.3235
  116OSM    H2S12136   0.669   2.842  10.259 -0.1404  0.2935  0.3413
  116OSM    C3S12137   0.523   3.001  10.284 -0.8699  0.1288 -1.0996
  116OSM    H3S12138   0.524   3.093  10.347 -0.5309 -0.3385 -0.4115
  116OSM     O312139   0.422   2.918  10.349  0.3917 -0.1245 -0.5580
  116OSM    HO312140   0.476   2.869  10.411  1.4036  0.0142 -1.2996
  116OSM    C4S12141   0.487   3.025  10.141 -0.5283  0.2197  0.4500
  116OSM    H4S12142   0.498   3.129  10.108 -1.8848  0.2260 -0.0254
  116OSM    C5S12143   0.452   2.929  10.051  0.1774 -0.0685  0.1205
  116OSM    H5S12144   0.460   2.824  10.083 -0.9248 -0.5466 -1.1006
  116OSM    C6S12145   0.423   2.945   9.907 -0.3131  0.3263 -0.1160
  116OSM    H6S12146   0.332   2.891   9.873 -1.1892  0.9226  1.2179
  116OSM    H6T12147   0.505   2.903   9.845 -1.2808 -0.2653 -1.0314
  116OSM    C7S12148   0.406   3.094   9.860  0.6230  0.3120 -0.3791
  116OSM    H7S12149   0.495   3.153   9.892  0.8205 -0.1394 -0.0847
  116OSM    H7T12150   0.321   3.142   9.912  0.5669 -0.3848  0.1901
  116OSM    C8S12151   0.397   3.108   9.710  0.1121 -0.0220  0.2357
  116OSM    H8S12152   0.466   3.044   9.651  1.6205  1.5504  0.2463
  116OSM    H8T12153   0.415   3.212   9.675  1.1883 -1.2986 -3.4656
  116OSM    C9S12154   0.254   3.078   9.654 -0.5390  0.2900  0.0600
  116OSM    H9S12155   0.196   3.127   9.735 -0.3907  0.2018  0.2202
  116OSM    H9T12156   0.238   2.969   9.669  0.1892  0.3473  1.5339
  116OSM   C10S12157   0.213   3.128   9.515  0.2947 -0.0556  0.6577
  116OSM   H10S12158   0.211   3.239   9.516  0.0883  0.0166 -1.7066
  116OSM   H10T12159   0.107   3.099   9.501  0.4419 -0.1265 -0.3415
  116OSM   C11S12160   0.290   3.078   9.396  0.0684 -1.0003  0.4511
  116OSM   H11S12161   0.294   2.967   9.389 -1.5754 -1.1448  1.1080
  116OSM   H11T12162   0.393   3.118   9.409 -0.0389 -0.0552 -1.2904
  116OSM   C12S12163   0.219   3.137   9.273  0.8786 -0.1287  0.6610
  116OSM   H12S12164   0.208   3.248   9.278  0.4187 -0.1954  1.4287
  116OSM   H12T12165   0.114   3.103   9.285  0.7193  0.9431  2.9980
  116OSM   C13S12166   0.263   3.105   9.128 -0.8838 -0.2472 -0.1160
  116OSM   H13S12167   0.372   3.126   9.123 -1.2097  1.6699 -0.0907
  116OSM   H13T12168   0.219   3.178   9.057  0.3426 -0.6425 -1.3284
  116OSM   C14S12169   0.227   2.962   9.093  0.2166 -0.1286 -0.5308
  116OSM   H14S12170   0.120   2.942   9.119 -0.4060  1.7188 -1.4645
  116OSM   H14T12171   0.287   2.889   9.152  1.2856 -0.8388 -2.4068
  116OSM   C15S12172   0.251   2.919   8.957  0.7408  0.4191 -0.1926
  116OSM   H15S12173   0.330   2.981   8.910 -0.4129  0.8751 -1.6088
  116OSM   H15T12174   0.164   2.958   8.900 -1.2955  0.0281  2.4348
  116OSM   C16S12175   0.253   2.765   8.941  0.0264 -0.2125  0.0773
  116OSM   H16S12176   0.171   2.711   8.994 -0.6731  1.2603  0.5387
  116OSM   H16T12177   0.349   2.728   8.983 -0.2699 -1.1166 -0.0137
  116OSM   C17S12178   0.251   2.728   8.785  0.1879 -0.1430 -0.5833
  116OSM   H17S12179   0.144   2.741   8.758  0.1918 -0.9506 -0.9882
  116OSM   H17T12180   0.274   2.620   8.775 -1.9437 -0.4393 -3.3596
  116OSM   C18S12181   0.338   2.807   8.685  0.4546 -0.0635  0.3997
  116OSM   H18S12182   0.314   2.916   8.679  2.2929  0.3153 -3.3357
  116OSM   H18T12183   0.319   2.774   8.581 -2.2968  0.2787  0.7123
  116OSM   H18U12184   0.445   2.796   8.713  0.2245 -0.2465  1.2227
  116OSM    C1F12185   0.892   2.975  10.204  0.0490 -0.3757  0.3465
  116OSM     OF12186   0.940   2.885  10.268 -0.3752 -0.3249  0.2199
  116OSM    C2F12187   0.974   3.039  10.092 -0.6119 -0.9680 -0.1749
  116OSM    H2F12188   1.066   2.978  10.079  0.2902 -0.2333  2.2167
  116OSM    H2G12189   1.008   3.139  10.128  0.0197 -0.9241 -0.8476
  116OSM    C3F12190   0.898   3.059   9.954 -0.5564 -0.0812 -0.2311
  116OSM    H3F12191   0.822   3.139   9.966 -0.2255  0.2987 -0.6484
  116OSM    H3G12192   0.835   2.977   9.914 -2.3942  1.1611  0.0092
  116OSM    C4F12193   0.996   3.073   9.839  0.0355 -0.3120 -0.2095
  116OSM    H4F12194   1.058   2.980   9.839  0.6526  0.0952  0.0154
  116OSM    H4G12195   1.066   3.154   9.866 -1.2953  1.1806 -1.0935
  116OSM    C5F12196   0.927   3.113   9.707 -0.4654  0.3793  0.4455
  116OSM    H5F12197   0.884   3.216   9.701 -1.3522  0.0192  0.3783
  116OSM    H5G12198   0.853   3.031   9.696  0.3706 -0.3309  0.0375
  116OSM    C6F12199   1.032   3.097   9.598  0.1088 -0.2309 -0.0220
  116OSM    H6F12200   1.073   2.994   9.594 -1.8853 -1.0541 -3.3740
  116OSM    H6G12201   1.112   3.171   9.619  0.9096 -0.4444 -2.1380
  116OSM    C7F12202   0.966   3.120   9.457  0.6106  0.4775  0.0705
  116OSM    H7F12203   0.879   3.189   9.466  0.6256  0.4365  0.5296
  116OSM    H7G12204   0.921   3.028   9.415  2.2905  0.0104 -0.8297
  116OSM    C8F12205   1.068   3.167   9.355 -0.2823 -0.0441  0.1525
  116OSM    H8F12206   1.155   3.098   9.348  0.0378  0.5643 -2.9930
  116OSM    H8G12207   1.107   3.268   9.380  1.1326  0.2175 -2.7583
  116OSM    C9F12208   1.014   3.170   9.212 -0.3753  0.1371 -0.2253
  116OSM    H9F12209   0.935   3.246   9.207 -0.4994  0.1368  1.2401
  116OSM   C10F12210   1.040   3.086   9.109 -0.7627 -0.7571 -0.2691
  116OSM   H10F12211   0.994   3.109   9.011  1.6774  1.7076 -0.9862
  116OSM   C11F12212   1.138   2.973   9.113 -0.2213  0.1500  0.4032
  116OSM   H11F12213   1.083   2.876   9.106  0.2248 -0.0286 -1.0424
  116OSM   H11G12214   1.190   2.962   9.210  1.0044  1.0284 -0.1262
  116OSM   C12F12215   1.249   2.976   9.004 -0.1775 -0.0419  0.6993
  116OSM   H12F12216   1.313   2.885   9.007  1.6416  1.0451 -1.4438
  116OSM   H12G12217   1.309   3.069   9.020 -0.9037  0.7799 -1.0921
  116OSM   C13F12218   1.195   2.987   8.854  0.1646  0.3401  0.5452
  116OSM   H13F12219   1.145   3.084   8.836  0.1688  0.3627  0.6597
  116OSM   H13G12220   1.123   2.902   8.850 -1.2192  1.4360  1.4852
  116OSM   C14F12221   1.301   2.992   8.743 -0.0654  0.1011 -0.4579
  116OSM   H14F12222   1.368   2.905   8.760  0.4452  0.6687  0.5674
  116OSM   H14G12223   1.353   3.091   8.746  0.3362 -0.0169 -2.2648
  116OSM   C15F12224   1.242   2.982   8.603  0.8263 -0.3013  0.0703
  116OSM   H15F12225   1.198   3.080   8.574  0.2374 -0.0518  1.6887
  116OSM   H15G12226   1.161   2.906   8.611  0.7621 -0.3400 -0.8302
  116OSM   C16F12227   1.345   2.936   8.497  0.1216 -0.7701 -0.2519
  116OSM   H16F12228   1.383   2.838   8.534 -0.3506 -1.7648 -2.2599
  116OSM   H16G12229   1.433   3.003   8.502 -0.4162 -0.0212 -0.7647
  116OSM   C17F12230   1.288   2.928   8.357 -0.3398  0.7155 -0.1990
  116OSM   H17F12231   1.205   3.002   8.353 -1.6720 -0.6611  0.8316
  116OSM   H17G12232   1.250   2.824   8.352  3.5832 -1.0380  1.8518
  116OSM   C18F12233   1.405   2.942   8.252 -0.2632 -0.6394 -0.2324
  116OSM   H18F12234   1.366   2.967   8.151  1.3642 -0.7886 -0.9311
  116OSM   H18G12235   1.466   2.850   8.255  0.9327  0.1624  1.1466
  116OSM   H18H12236   1.470   3.027   8.282 -0.5136 -0.2824 -0.6893
  117OSM      N12237   4.817   5.562  10.739 -0.3429 -0.1586 -0.6519
  117OSM    C1512238   4.699   5.510  10.800  0.6494  0.3321  0.2255
  117OSM   H15A12239   4.636   5.578  10.854 -0.7938 -0.7133 -0.0785
  117OSM   H15B12240   4.731   5.431  10.867 -0.5143  0.3183  0.7937
  117OSM   H15C12241   4.642   5.467  10.719  1.2585  1.8846 -1.0584
  117OSM    C1412242   4.779   5.653  10.628 -0.5058 -0.9403  0.4590
  117OSM   H14A12243   4.866   5.709  10.598 -0.9602 -0.0107  0.8519
  117OSM   H14B12244   4.704   5.728  10.647  0.7881  0.3396  0.7307
  117OSM   H14C12245   4.745   5.598  10.542 -4.5647  0.0029  1.2887
  117OSM    C1312246   4.908   5.629  10.839 -0.1366 -0.3398 -0.8238
  117OSM   H13A12247   4.930   5.569  10.925  0.1642  0.3360 -0.4245
  117OSM   H13B12248   4.844   5.710  10.871  2.3843  1.0103  1.0951
  117OSM   H13C12249   4.994   5.680  10.797 -0.2312  3.2098  2.7685
  117OSM    C1212250   4.898   5.447  10.679 -0.3664  0.1478  0.5884
  117OSM   H12A12251   4.932   5.389  10.764 -0.1251  1.3152  1.3176
  117OSM   H12B12252   4.987   5.495  10.642 -0.4729 -0.7311 -0.8768
  117OSM    C1112253   4.836   5.350  10.579  0.1506 -0.4334 -0.0014
  117OSM   H11A12254   4.906   5.329  10.496 -1.6268 -0.4537 -1.5719
  117OSM   H11B12255   4.753   5.408  10.532 -0.2876 -0.8490  0.2455
  117OSM      P12256   4.810   5.096  10.603  0.0375  0.0772  0.2722
  117OSM    O1312257   4.946   5.057  10.640  0.8629 -0.7520 -0.1833
  117OSM    O1412258   4.699   5.001  10.647  0.3042 -0.6078  0.3176
  117OSM    O1112259   4.807   5.112  10.445  0.1765  0.4783  0.2654
  117OSM    O1212260   4.784   5.240  10.656 -0.2484  0.2999  0.3169
  117OSM    C1S12261   4.906   5.077  10.345 -0.2162 -0.3523  0.3041
  117OSM    H1S12262   4.952   4.981  10.378  1.8611  0.9733  1.5197
  117OSM    H1T12263   4.993   5.145  10.340 -1.6939  1.6861  0.7573
  117OSM     NF12264   4.940   5.009  10.108 -0.4144  0.3206 -0.0644
  117OSM    HNF12265   4.992   5.066  10.044 -0.7158 -0.9742 -1.5206
  117OSM    C2S12266   4.848   5.068  10.200 -0.2926  0.2636 -0.4350
  117OSM    H2S12267   4.761   4.999  10.207  0.1637 -0.3204 -0.5370
  117OSM    C3S12268   4.795   5.214  10.153  0.6661  0.7718 -0.4472
  117OSM    H3S12269   4.880   5.285  10.161 -0.0501  1.7702 -1.3972
  117OSM     O312270   4.695   5.278  10.224 -0.0488  0.1533  0.1128
  117OSM    HO312271   4.703   5.232  10.308  1.2735 -0.6954 -0.4398
  117OSM    C4S12272   4.762   5.205  10.005  0.8653  0.3115 -0.4636
  117OSM    H4S12273   4.842   5.226   9.932  0.6497 -0.4336 -0.9240
  117OSM    C5S12274   4.645   5.174   9.950  0.0204  0.1825 -0.5503
  117OSM    H5S12275   4.559   5.152  10.014  0.8190 -0.7328  0.2211
  117OSM    C6S12276   4.618   5.139   9.807  0.3749  0.5651 -0.3033
  117OSM    H6S12277   4.571   5.219   9.746  0.5187 -1.1114 -2.8049
  117OSM    H6T12278   4.556   5.048   9.795 -0.5173  1.3874 -2.4153
  117OSM    C7S12279   4.745   5.110   9.719 -0.4835 -0.9933 -0.0427
  117OSM    H7S12280   4.829   5.063   9.774 -0.9727 -0.7314  0.9425
  117OSM    H7T12281   4.782   5.208   9.681 -1.9491 -0.2734  0.3311
  117OSM    C8S12282   4.727   5.047   9.588 -0.2729  0.6637 -0.2236
  117OSM    H8S12283   4.735   4.939   9.611 -0.2247  0.5762 -0.6390
  117OSM    H8T12284   4.819   5.056   9.526 -0.7335  1.0355 -0.8709
  117OSM    C9S12285   4.608   5.089   9.504  0.1646 -0.3988  0.2460
  117OSM    H9S12286   4.614   5.198   9.486 -0.5272 -0.5088 -0.7220
  117OSM    H9T12287   4.518   5.098   9.569  1.2792  0.4428  1.7509
  117OSM   C10S12288   4.566   5.020   9.371 -0.0119  0.9520  0.1427
  117OSM   H10S12289   4.462   5.051   9.350  0.3413  1.9190 -0.2399
  117OSM   H10T12290   4.565   4.910   9.383  1.6495  1.0313  1.4383
  117OSM   C11S12291   4.651   5.043   9.250 -0.4230 -0.3045  0.8986
  117OSM   H11S12292   4.754   5.004   9.266 -0.4591 -1.4613 -1.3311
  117OSM   H11T12293   4.652   5.152   9.232 -1.8115 -0.5500 -0.9498
  117OSM   C12S12294   4.601   4.984   9.116  0.1462 -0.1595 -0.3019
  117OSM   H12S12295   4.490   4.984   9.118  0.1257 -1.6306 -0.2793
  117OSM   H12T12296   4.615   4.874   9.109 -1.6981 -0.4738  0.3945
  117OSM   C13S12297   4.661   5.057   8.994  0.0211  0.0227 -0.1120
  117OSM   H13S12298   4.771   5.067   8.989 -0.0936  0.7181 -2.4293
  117OSM   H13T12299   4.629   5.162   9.010  1.8219  0.7330 -0.9300
  117OSM   C14S12300   4.608   4.997   8.866  0.0957  0.0567 -0.3936
  117OSM   H14S12301   4.497   5.004   8.855  0.2149  0.5060 -1.5061
  117OSM   H14T12302   4.632   4.890   8.881 -1.6347 -0.3794 -0.5476
  117OSM   C15S12303   4.664   5.056   8.742  0.7648 -0.0380  0.3813
  117OSM   H15S12304   4.627   4.992   8.658  1.2642 -0.3406  0.3865
  117OSM   H15T12305   4.775   5.053   8.746  0.8034  0.5046 -0.0980
  117OSM   C16S12306   4.631   5.205   8.709 -0.1494 -0.5062  0.3097
  117OSM   H16S12307   4.671   5.274   8.785 -1.1873 -2.1802  2.4830
  117OSM   H16T12308   4.520   5.216   8.704 -0.4051 -2.5609  0.5938
  117OSM   C17S12309   4.682   5.242   8.570  0.6028 -0.0205  0.0053
  117OSM   H17S12310   4.629   5.191   8.487  1.5362 -2.7611  0.9926
  117OSM   H17T12311   4.787   5.205   8.567  0.7758  0.3506  1.0319
  117OSM   C18S12312   4.682   5.389   8.544 -0.0766 -0.3814 -0.1681
  117OSM   H18S12313   4.581   5.432   8.561  0.7202  1.4363  0.2358
  117OSM   H18T12314   4.717   5.419   8.442  0.6542  0.7538  0.3914
  117OSM   H18U12315   4.760   5.438   8.606  0.3067 -2.1895  0.8386
  117OSM    C1F12316   4.982   4.887  10.129  0.0325 -0.0412  0.4299
  117OSM     OF12317   4.935   4.813  10.218  0.1137  0.1071  0.1841
  117OSM    C2F12318   5.089   4.831  10.045 -0.0759 -0.2760  0.1565
  117OSM    H2F12319   5.158   4.773  10.110 -0.9754 -0.3047  1.1138
  117OSM    H2G12320   5.154   4.913  10.007 -1.2034  0.4491 -0.2650
  117OSM    C3F12321   5.037   4.747   9.925 -0.3231  0.3540  0.1758
  117OSM    H3F12322   4.939   4.785   9.889 -1.4376 -1.1513  1.4617
  117OSM    H3G12323   5.004   4.643   9.950 -2.6849  0.7414 -1.0815
  117OSM    C4F12324   5.133   4.741   9.812 -0.2590 -0.7298 -0.2022
  117OSM    H4F12325   5.222   4.682   9.844 -0.1421 -0.2842  0.3022
  117OSM    H4G12326   5.166   4.843   9.783 -0.6588 -1.1423 -2.2774
  117OSM    C5F12327   5.076   4.675   9.688 -0.5734  0.2224 -0.3246
  117OSM    H5F12328   5.003   4.596   9.713 -1.5179  0.9081 -0.8626
  117OSM    H5G12329   5.156   4.621   9.633 -0.8569 -1.0289  0.4677
  117OSM    C6F12330   5.002   4.780   9.604 -0.3803 -0.3507  0.1494
  117OSM    H6F12331   5.081   4.851   9.571 -0.7938 -0.8114 -1.9543
  117OSM    H6G12332   4.942   4.825   9.686  0.9450 -0.7987  1.4223
  117OSM    C7F12333   4.916   4.741   9.479 -0.3429  0.5409  0.2095
  117OSM    H7F12334   4.850   4.827   9.452  0.7584  0.9839 -1.1520
  117OSM    H7G12335   4.854   4.658   9.519 -0.8541  1.0204  0.4328
  117OSM    C8F12336   4.981   4.703   9.347 -0.4642  0.3036  0.3463
  117OSM    H8F12337   5.042   4.611   9.366 -0.7371  0.5018  2.4435
  117OSM    H8G12338   5.043   4.791   9.322 -1.1362  0.2593 -1.5822
  117OSM    C9F12339   4.879   4.682   9.238 -0.7899 -0.1445  0.3682
  117OSM    H9F12340   4.806   4.601   9.255  0.1744 -0.8596  1.2546
  117OSM   C10F12341   4.886   4.731   9.116 -0.0309 -0.6110 -0.0015
  117OSM   H10F12342   4.801   4.715   9.049  0.3873 -0.4323 -0.5834
  117OSM   C11F12343   4.978   4.844   9.066  0.6240  0.2544  0.3106
  117OSM   H11F12344   5.086   4.842   9.095  0.4433  0.4518  1.0166
  117OSM   H11G12345   4.950   4.938   9.119 -0.7481  0.3481 -0.5453
  117OSM   C12F12346   4.981   4.868   8.912 -0.2390  0.6925  0.5493
  117OSM   H12F12347   5.056   4.945   8.884  0.7640 -0.7990 -1.1019
  117OSM   H12G12348   4.881   4.910   8.889 -0.0830  0.2376 -1.0637
  117OSM   C13F12349   5.027   4.743   8.839  0.3977  0.1727  0.7279
  117OSM   H13F12350   4.947   4.667   8.851  0.1794 -0.1261 -2.1328
  117OSM   H13G12351   5.114   4.699   8.893  2.0846  4.2191  1.7585
  117OSM   C14F12352   5.060   4.761   8.688 -0.8281 -0.3599 -0.3323
  117OSM   H14F12353   5.161   4.717   8.672 -0.5614  0.2857 -0.4279
  117OSM   H14G12354   5.062   4.868   8.659  2.2864 -0.3382 -0.3437
  117OSM   C15F12355   4.949   4.695   8.603 -0.3962 -0.2131  0.0194
  117OSM   H15F12356   4.920   4.602   8.655  1.8913 -1.9539 -1.5932
  117OSM   H15G12357   4.988   4.673   8.501  2.8155  0.2180  1.0401
  117OSM   C16F12358   4.820   4.783   8.573  0.9094 -0.5499  0.2882
  117OSM   H16F12359   4.844   4.881   8.527 -0.4712 -0.2983  0.0524
  117OSM   H16G12360   4.778   4.793   8.675  3.6138 -3.0625  1.7860
  117OSM   C17F12361   4.720   4.702   8.482  0.3456 -0.1140 -0.0525
  117OSM   H17F12362   4.703   4.609   8.540  2.3577  0.4206  1.5215
  117OSM   H17G12363   4.770   4.682   8.385  0.5548  1.2144 -0.2377
  117OSM   C18F12364   4.587   4.773   8.458 -0.6190 -0.1070 -0.0831
  117OSM   H18F12365   4.547   4.783   8.562 -0.4094 -1.7654  0.1758
  117OSM   H18G12366   4.526   4.713   8.387 -0.1225  0.0020 -0.6004
  117OSM   H18H12367   4.603   4.875   8.418 -2.1415  0.5563  0.8647
  118OSM      N12368   4.956   6.518  11.133 -0.1388  0.2457  0.4303
  118OSM    C1512369   5.081   6.486  11.207  0.2148 -0.1643  0.6240
  118OSM   H15A12370   5.099   6.550  11.292  0.7970 -0.8270  1.0123
  118OSM   H15B12371   5.164   6.496  11.138 -0.0389  0.8364  0.4421
  118OSM   H15C12372   5.079   6.384  11.243  1.0621 -0.4087  0.0132
  118OSM    C1412373   4.948   6.660  11.076  0.3917 -0.4318  0.3739
  118OSM   H14A12374   4.847   6.677  11.044 -0.9024 -0.8573  3.7997
  118OSM   H14B12375   5.014   6.678  10.993 -0.1801 -0.6057 -0.1254
  118OSM   H14C12376   4.957   6.735  11.153 -1.6312  0.4595 -0.2001
  118OSM    C1312377   4.957   6.420  11.017 -0.4162 -0.3484  0.2173
  118OSM   H13A12378   4.965   6.322  11.060 -2.5878 -0.4060  0.6273
  118OSM   H13B12379   5.040   6.433  10.950  1.9162 -1.0651  2.8087
  118OSM   H13C12380   4.867   6.428  10.957  0.9055  0.7693 -1.7431
  118OSM    C1212381   4.827   6.494  11.212 -0.5225 -0.4088  0.6145
  118OSM   H12A12382   4.813   6.565  11.293 -2.0159 -0.0938  0.1093
  118OSM   H12B12383   4.839   6.395  11.252 -0.2032  0.2541  2.2507
  118OSM    C1112384   4.690   6.495  11.138 -0.3774 -0.0182  0.5983
  118OSM   H11A12385   4.688   6.592  11.084 -0.8698  0.4340  1.4086
  118OSM   H11B12386   4.605   6.492  11.209 -1.3619  1.2329 -0.4845
  118OSM      P12387   4.629   6.251  11.057  0.0901  0.0512 -0.0201
  118OSM    O1312388   4.697   6.185  11.173  0.2507 -0.0108  0.1555
  118OSM    O1412389   4.482   6.245  11.075  0.0257 -0.2649  0.5161
  118OSM    O1112390   4.678   6.171  10.926  0.6697 -0.9496  0.5526
  118OSM    O1212391   4.683   6.390  11.033  0.1908 -0.7750 -0.3041
  118OSM    C1S12392   4.696   6.237  10.800 -0.2389 -0.3155  0.1130
  118OSM    H1S12393   4.805   6.259  10.794 -0.3768  0.0212 -1.5879
  118OSM    H1T12394   4.647   6.336  10.798 -0.3817 -0.3556  1.0940
  118OSM     NF12395   4.676   6.218  10.558 -0.3260  0.4077  0.4998
  118OSM    HNF12396   4.607   6.273  10.512  0.3594  2.0475  1.3297
  118OSM    C2S12397   4.641   6.151  10.684  0.2036  0.7070  0.2546
  118OSM    H2S12398   4.695   6.054  10.687 -0.3740  0.3511 -0.5444
  118OSM    C3S12399   4.489   6.117  10.693  0.8031 -0.5142  0.9029
  118OSM    H3S12400   4.438   6.213  10.669  1.1175 -1.0522 -2.4569
  118OSM     O312401   4.443   6.085  10.820 -0.1315  0.4171  0.0842
  118OSM    HO312402   4.514   6.092  10.885 -0.9139 -1.6323  1.2268
  118OSM    C4S12403   4.454   6.011  10.597  0.5471  0.3254 -0.0528
  118OSM    H4S12404   4.536   5.941  10.574 -0.4999 -1.1670  0.6360
  118OSM    C5S12405   4.340   5.996  10.526  0.1864 -0.0483  0.1819
  118OSM    H5S12406   4.260   6.071  10.536 -0.2549 -0.5765  0.6788
  118OSM    C6S12407   4.324   5.896  10.411 -0.4895  0.2818 -1.3338
  118OSM    H6S12408   4.242   5.824  10.432 -0.5689  0.6271 -0.3921
  118OSM    H6T12409   4.410   5.829  10.395  0.1749  1.2956 -2.1302
  118OSM    C7S12410   4.296   5.956  10.272  0.4012  0.1334 -0.3084
  118OSM    H7S12411   4.207   6.022  10.274  0.5563  0.3594 -0.7905
  118OSM    H7T12412   4.279   5.877  10.196  1.3225  1.0030 -1.4428
  118OSM    C8S12413   4.403   6.044  10.214 -0.3001  0.0665 -0.7181
  118OSM    H8S12414   4.498   5.987  10.209 -0.9619 -0.9536 -3.1038
  118OSM    H8T12415   4.429   6.121  10.290  2.4318  0.5708 -2.0408
  118OSM    C9S12416   4.379   6.096  10.078  0.6823  0.1429 -0.3060
  118OSM    H9S12417   4.450   6.176  10.049  0.3447  0.2213 -0.9430
  118OSM    H9T12418   4.275   6.135  10.072  0.6516  0.0842 -0.1650
  118OSM   C10S12419   4.410   5.993   9.965  0.3934  0.8771 -0.2060
  118OSM   H10S12420   4.349   5.900   9.977  4.0066 -1.8596 -1.1698
  118OSM   H10T12421   4.512   5.952   9.977  0.0762 -0.0743 -0.6419
  118OSM   C11S12422   4.396   6.044   9.822 -0.0695 -0.8914  0.0888
  118OSM   H11S12423   4.470   6.125   9.805 -0.9737  0.0871  0.7517
  118OSM   H11T12424   4.292   6.075   9.800  0.4282  0.9679  0.1687
  118OSM   C12S12425   4.426   5.928   9.721  0.0471  0.0273 -0.0019
  118OSM   H12S12426   4.348   5.850   9.732  0.5827 -0.7379 -1.3753
  118OSM   H12T12427   4.524   5.878   9.739 -0.8413 -2.5516 -1.8131
  118OSM   C13S12428   4.431   5.975   9.581  0.3214 -0.0691 -0.3307
  118OSM   H13S12429   4.507   6.056   9.581 -0.1293  0.3599 -0.4833
  118OSM   H13T12430   4.336   6.024   9.550 -0.4143 -0.4591  1.2188
  118OSM   C14S12431   4.456   5.862   9.478  0.0243 -0.2171 -0.4956
  118OSM   H14S12432   4.378   5.784   9.490 -0.6168  0.8208  3.3003
  118OSM   H14T12433   4.547   5.811   9.515  0.6305  0.0436 -1.5960
  118OSM   C15S12434   4.483   5.909   9.333 -0.8319 -0.0340  0.0376
  118OSM   H15S12435   4.562   5.841   9.293  2.0957  1.7196  2.3953
  118OSM   H15T12436   4.530   6.010   9.335  1.3970 -0.9537 -1.5725
  118OSM   C16S12437   4.369   5.909   9.232 -0.0968 -0.4435 -0.1173
  118OSM   H16S12438   4.284   5.971   9.268 -1.1180 -0.4443 -2.4203
  118OSM   H16T12439   4.330   5.805   9.234 -3.0085  0.5823  0.9229
  118OSM   C17S12440   4.419   5.962   9.100 -0.1621 -0.8509  1.1289
  118OSM   H17S12441   4.507   5.901   9.070 -2.9173 -4.6717 -0.0876
  118OSM   H17T12442   4.457   6.066   9.102 -2.1054 -0.0989  2.4043
  118OSM   C18S12443   4.308   5.970   8.993  0.0445  0.2139 -0.5114
  118OSM   H18S12444   4.339   6.005   8.892  0.0041 -1.2182 -1.0433
  118OSM   H18T12445   4.248   6.045   9.049  1.0799 -0.0840  1.0804
  118OSM   H18U12446   4.250   5.876   8.990 -0.7667  0.6848 -0.1174
  118OSM    C1F12447   4.799   6.210  10.504 -0.7514 -0.0182 -0.1568
  118OSM     OF12448   4.887   6.167  10.578 -0.1321  0.0865  0.4887
  118OSM    C2F12449   4.816   6.247  10.360  0.7501  0.2951 -0.0104
  118OSM    H2F12450   4.863   6.348  10.354  0.3388  0.5731  1.2438
  118OSM    H2G12451   4.719   6.258  10.307  1.1883  3.5420 -0.3414
  118OSM    C3F12452   4.894   6.137  10.287 -0.3586 -0.0010 -0.3575
  118OSM    H3F12453   4.827   6.052  10.312 -2.2868  1.1409 -1.3937
  118OSM    H3G12454   4.991   6.128  10.340 -1.3331 -2.0331  1.2294
  118OSM    C4F12455   4.903   6.157  10.139  0.1209  0.1740  0.5618
  118OSM    H4F12456   4.973   6.074  10.114 -2.7142 -2.1982 -0.0596
  118OSM    H4G12457   4.953   6.254  10.116  0.0961  0.1678  0.4795
  118OSM    C5F12458   4.770   6.125  10.077  0.3486 -0.2243  0.7318
  118OSM    H5F12459   4.690   6.185  10.125  0.8733 -1.2789  3.0133
  118OSM    H5G12460   4.740   6.019  10.091 -0.8208 -0.2602 -1.4898
  118OSM    C6F12461   4.759   6.163   9.922 -0.0522 -0.9178 -0.3678
  118OSM    H6F12462   4.829   6.249   9.912 -1.2527  0.3899  1.6246
  118OSM    H6G12463   4.658   6.199   9.895 -0.1817 -1.5847 -0.7973
  118OSM    C7F12464   4.793   6.049   9.829 -0.0176 -0.0920  0.4015
  118OSM    H7F12465   4.696   6.003   9.799 -1.0391  2.2742 -0.1425
  118OSM    H7G12466   4.851   5.977   9.890 -0.6927  0.0894  1.2697
  118OSM    C8F12467   4.867   6.082   9.689 -0.2785 -0.5469  0.1046
  118OSM    H8F12468   4.857   5.989   9.630  0.4524 -1.4083  1.2903
  118OSM    H8G12469   4.970   6.121   9.706 -1.1817  2.3825 -0.5731
  118OSM    C9F12470   4.790   6.192   9.616 -0.3412  0.0288 -0.5610
  118OSM    H9F12471   4.683   6.190   9.642 -0.2597  0.2760 -0.1989
  118OSM   C10F12472   4.834   6.270   9.518  0.2628  0.2000 -0.8360
  118OSM   H10F12473   4.779   6.356   9.476  1.0111 -0.4043 -3.2062
  118OSM   C11F12474   4.977   6.271   9.473 -0.4712  0.2700  0.1305
  118OSM   H11F12475   5.030   6.176   9.493  0.0058  0.4270 -0.3423
  118OSM   H11G12476   5.028   6.351   9.532  0.8911 -1.4766  1.4101
  118OSM   C12F12477   4.977   6.297   9.327 -0.1996 -0.2206  1.2380
  118OSM   H12F12478   4.924   6.389   9.295  1.6672  0.1097 -1.2195
  118OSM   H12G12479   4.912   6.224   9.273  1.4103 -1.0737  0.3795
  118OSM   C13F12480   5.117   6.284   9.276  0.2917  0.3535 -0.0419
  118OSM   H13F12481   5.166   6.195   9.321 -3.0544 -1.4652  0.3002
  118OSM   H13G12482   5.165   6.376   9.315  1.2374 -0.3790  0.5480
  118OSM   C14F12483   5.122   6.304   9.121  0.4563 -0.1349  0.4725
  118OSM   H14F12484   5.090   6.409   9.105  0.9027 -0.3936 -2.9489
  118OSM   H14G12485   5.047   6.246   9.062 -0.0522  1.8349 -0.9163
  118OSM   C15F12486   5.260   6.269   9.062 -0.0641  0.1668  0.2157
  118OSM   H15F12487   5.286   6.163   9.085  0.6014  0.4404  0.7723
  118OSM   H15G12488   5.329   6.342   9.110  0.2454  0.4056 -0.5770
  118OSM   C16F12489   5.266   6.285   8.908 -0.0960  0.5848 -0.1100
  118OSM   H16F12490   5.242   6.386   8.868 -0.7176 -0.0171 -1.3069
  118OSM   H16G12491   5.187   6.223   8.862 -1.7667  1.3237  1.6350
  118OSM   C17F12492   5.405   6.242   8.846  0.1544  0.6629 -0.6184
  118OSM   H17F12493   5.439   6.147   8.893 -1.3819  0.6929  0.6192
  118OSM   H17G12494   5.495   6.303   8.870  0.3994  0.4805 -1.0606
  118OSM   C18F12495   5.403   6.215   8.692  0.0991 -0.3845 -0.2602
  118OSM   H18F12496   5.307   6.165   8.664  0.5486  0.5567 -4.0315
  118OSM   H18G12497   5.484   6.142   8.673  3.4122  2.3163  2.2963
  118OSM   H18H12498   5.414   6.312   8.640  3.4074  0.0755  1.0887
  119OSM      N12499   6.703   5.214  11.290  0.1884  0.1133 -0.0217
  119OSM    C1512500   6.695   5.304  11.404 -1.0667 -0.3934  0.5610
  119OSM   H15A12501   6.603   5.300  11.461 -0.2023  0.2615  2.0406
  119OSM   H15B12502   6.710   5.406  11.373  1.6342 -1.6628 -2.9083
  119OSM   H15C12503   6.771   5.276  11.475 -0.4709  0.3436  0.2174
  119OSM    C1412504   6.838   5.218  11.232 -0.6319 -0.1164  0.2978
  119OSM   H14A12505   6.920   5.194  11.299  0.1058 -1.1464 -0.9293
  119OSM   H14B12506   6.862   5.324  11.235 -2.6833  0.3846  0.1101
  119OSM   H14C12507   6.865   5.176  11.136 -0.5410 -0.0225  0.2818
  119OSM    C1312508   6.689   5.070  11.340 -0.2767 -0.0792 -0.5616
  119OSM   H13A12509   6.702   5.003  11.256 -3.0292 -0.9470 -0.3919
  119OSM   H13B12510   6.594   5.055  11.389 -0.6614  0.4350 -1.1456
  119OSM   H13C12511   6.768   5.045  11.410 -1.5323  1.6626  1.6008
  119OSM    C1212512   6.595   5.245  11.185  0.8338 -0.6427 -0.4595
  119OSM   H12A12513   6.618   5.335  11.131  1.2021 -1.1416 -1.1492
  119OSM   H12B12514   6.502   5.270  11.233  0.4973  2.3668 -2.4370
  119OSM    C1112515   6.577   5.154  11.059  0.6216  0.3054 -0.5199
  119OSM   H11A12516   6.672   5.152  11.002  0.2789 -2.3546 -1.1428
  119OSM   H11B12517   6.502   5.197  10.990 -0.3687 -2.3687 -1.2280
  119OSM      P12518   6.587   4.900  11.035 -0.0489  0.1485 -0.1864
  119OSM    O1312519   6.718   4.873  11.083 -0.5131 -0.1699  0.1011
  119OSM    O1412520   6.489   4.794  11.061 -0.7052  0.4873  0.2920
  119OSM    O1112521   6.604   4.933  10.880  0.3216  0.1200  0.2472
  119OSM    O1212522   6.520   5.027  11.095 -0.2860  0.0967  0.1731
  119OSM    C1S12523   6.483   4.967  10.804  0.3399 -0.0180  0.3456
  119OSM    H1S12524   6.440   5.064  10.837  0.1141 -0.3719  1.1076
  119OSM    H1T12525   6.405   4.890  10.824 -0.2505  1.0460  2.4445
  119OSM     NF12526   6.359   4.973  10.590  0.0136  0.5332  0.0830
  119OSM    HNF12527   6.321   4.890  10.551  1.0589  0.0672  0.0363
  119OSM    C2S12528   6.490   4.964  10.649 -0.0364 -0.1700  0.0935
  119OSM    H2S12529   6.526   5.066  10.621 -1.0226 -0.3833 -2.1359
  119OSM    C3S12530   6.593   4.853  10.602 -0.2715 -0.4324  0.0036
  119OSM    H3S12531   6.560   4.753  10.636  0.8841  0.3912  4.2024
  119OSM     O312532   6.726   4.870  10.659  0.7946 -0.0952  0.5559
  119OSM    HO312533   6.712   4.928  10.734  1.9687  0.2005  0.5689
  119OSM    C4S12534   6.623   4.865  10.455  0.0669  0.3025  0.4423
  119OSM    H4S12535   6.671   4.958  10.422 -0.7382  0.4341 -0.4324
  119OSM    C5S12536   6.591   4.768  10.372 -1.0597 -0.8079 -0.1312
  119OSM    H5S12537   6.536   4.680  10.407 -1.1551 -1.2848 -1.4185
  119OSM    C6S12538   6.619   4.773  10.230  0.0956  0.9140 -1.2418
  119OSM    H6S12539   6.703   4.701  10.221  0.4815  0.6908  2.6207
  119OSM    H6T12540   6.652   4.875  10.201 -0.7488  1.4088 -0.5078
  119OSM    C7S12541   6.489   4.741  10.154  0.6118 -0.0115 -0.1448
  119OSM    H7S12542   6.399   4.798  10.188 -1.1743 -1.9506 -1.3612
  119OSM    H7T12543   6.470   4.634  10.177  0.4653 -0.0631 -0.5015
  119OSM    C8S12544   6.518   4.766  10.011 -0.1269  0.1730  1.1276
  119OSM    H8S12545   6.467   4.697   9.941  2.2276  0.2464 -0.7526
  119OSM    H8T12546   6.626   4.753   9.990 -0.1310 -0.1057  1.2730
  119OSM    C9S12547   6.489   4.906   9.959 -0.6865  0.0634 -0.1201
  119OSM    H9S12548   6.541   4.969  10.034 -1.4099  1.4322 -0.7356
  119OSM    H9T12549   6.380   4.919   9.976 -0.5549  1.0368 -0.0022
  119OSM   C10S12550   6.523   4.929   9.819 -0.2596  0.2936  0.0566
  119OSM   H10S12551   6.492   5.035   9.806 -0.4997  0.5058  2.0345
  119OSM   H10T12552   6.464   4.868   9.748  1.2990 -1.0514 -0.1327
  119OSM   C11S12553   6.669   4.906   9.782 -0.1008  0.1849  0.9161
  119OSM   H11S12554   6.689   4.797   9.767 -1.2201  0.1206 -0.2917
  119OSM   H11T12555   6.751   4.939   9.850  2.5829  0.1211 -2.0181
  119OSM   C12S12556   6.706   4.970   9.641 -0.5988  0.2138 -0.6966
  119OSM   H12S12557   6.631   4.934   9.566  0.0740  0.7854 -1.6741
  119OSM   H12T12558   6.809   4.937   9.615 -0.5076 -0.4140  0.3959
  119OSM   C13S12559   6.691   5.119   9.646 -0.6105 -0.1667 -0.0700
  119OSM   H13S12560   6.743   5.165   9.732 -0.8303 -1.0622  0.5608
  119OSM   H13T12561   6.581   5.134   9.644 -0.3832  1.8288  0.2971
  119OSM   C14S12562   6.737   5.188   9.514 -0.1485  0.9932  0.4094
  119OSM   H14S12563   6.847   5.183   9.500 -0.3651  0.2762 -1.3026
  119OSM   H14T12564   6.699   5.292   9.528  0.4002  1.1877  0.4521
  119OSM   C15S12565   6.651   5.134   9.387 -0.2851  0.1429 -0.7340
  119OSM   H15S12566   6.540   5.130   9.397 -0.2124  1.5267  1.2373
  119OSM   H15T12567   6.673   5.027   9.368  0.5883  0.5549 -2.1902
  119OSM   C16S12568   6.682   5.218   9.260  0.3705  0.1928 -0.8850
  119OSM   H16S12569   6.792   5.226   9.250  0.2869  0.9483 -1.3110
  119OSM   H16T12570   6.638   5.320   9.273 -0.6307  0.6646 -5.9056
  119OSM   C17S12571   6.630   5.176   9.126  0.1358  0.0578 -0.0595
  119OSM   H17S12572   6.522   5.197   9.137  0.7435  2.9854  1.0994
  119OSM   H17T12573   6.634   5.065   9.129 -2.1423 -0.0495  1.9251
  119OSM   C18S12574   6.704   5.231   9.007  0.4371  0.0568 -0.1500
  119OSM   H18S12575   6.814   5.216   8.999  0.6419  2.3629 -4.6826
  119OSM   H18T12576   6.684   5.339   8.992  0.2660 -0.2949 -3.1391
  119OSM   H18U12577   6.667   5.173   8.920  2.5113 -0.5981 -0.6721
  119OSM    C1F12578   6.275   5.082  10.594  0.1481  0.1357  0.4660
  119OSM     OF12579   6.301   5.180  10.661 -0.7048 -0.4436  0.0179
  119OSM    C2F12580   6.151   5.063  10.524  0.0345 -0.1110 -0.5626
  119OSM    H2F12581   6.078   5.121  10.585 -0.6170 -1.0831 -0.3940
  119OSM    H2G12582   6.121   4.957  10.512 -0.7994  0.2063 -1.3956
  119OSM    C3F12583   6.147   5.128  10.385  0.2850  0.5866  0.0608
  119OSM    H3F12584   6.165   5.236  10.401 -3.0394  1.4366 -1.1584
  119OSM    H3G12585   6.042   5.108  10.356  1.0025 -0.9473 -1.7110
  119OSM    C4F12586   6.244   5.070  10.276  0.2494  0.1759  0.1533
  119OSM    H4F12587   6.224   4.962  10.262 -0.9262  0.3453  0.4216
  119OSM    H4G12588   6.347   5.077  10.317 -0.3662  4.6884  1.5685
  119OSM    C5F12589   6.219   5.145  10.149  0.7159 -0.2637  0.0246
  119OSM    H5F12590   6.301   5.123  10.077  0.9530 -0.7876  0.4518
  119OSM    H5G12591   6.212   5.255  10.164  1.6059  0.1171 -2.0077
  119OSM    C6F12592   6.091   5.110  10.066  0.4102 -0.3999 -0.0554
  119OSM    H6F12593   6.079   5.192   9.991  0.4348 -0.5506 -0.2222
  119OSM    H6G12594   6.007   5.111  10.139 -0.6491  1.9478 -1.1800
  119OSM    C7F12595   6.096   4.979   9.987  0.3048  0.5109 -0.1872
  119OSM    H7F12596   6.106   4.905  10.069 -2.4879 -0.8188 -0.9324
  119OSM    H7G12597   6.192   4.974   9.930  0.8960 -0.1792  0.8402
  119OSM    C8F12598   5.976   4.958   9.890 -0.4728 -0.8586  0.0663
  119OSM    H8F12599   5.880   4.965   9.947 -1.4008 -3.3455 -1.0434
  119OSM    H8G12600   5.975   4.851   9.859 -6.2445 -1.1317  0.0849
  119OSM    C9F12601   5.982   5.067   9.781  0.1231 -0.5026  0.6907
  119OSM    H9F12602   6.000   5.169   9.818  3.9550 -0.1904 -1.4464
  119OSM   C10F12603   6.003   5.052   9.647 -0.1127  0.4679 -0.0027
  119OSM   H10F12604   5.990   5.139   9.580  1.3195  0.4497 -0.3180
  119OSM   C11F12605   6.003   4.915   9.582  0.5316  0.3868 -0.5818
  119OSM   H11F12606   5.903   4.898   9.537 -0.6926 -2.3831  2.8462
  119OSM   H11G12607   6.018   4.830   9.651 -0.0363 -2.2398 -3.5087
  119OSM   C12F12608   6.117   4.916   9.479 -0.4136 -0.2340 -0.1666
  119OSM   H12F12609   6.121   4.814   9.434 -2.3492 -0.9607  1.1609
  119OSM   H12G12610   6.213   4.919   9.533 -0.8627 -0.7778  0.6917
  119OSM   C13F12611   6.104   5.020   9.366  0.6988 -0.1623  0.0896
  119OSM   H13F12612   6.141   5.116   9.409  0.2289  0.3565 -0.6585
  119OSM   H13G12613   6.000   5.034   9.331  1.6168 -2.8344 -4.5961
  119OSM   C14F12614   6.183   4.983   9.243 -0.1957 -0.1302 -0.0428
  119OSM   H14F12615   6.173   4.875   9.218 -0.6867  0.3341 -2.0235
  119OSM   H14G12616   6.290   4.997   9.267 -0.1423  0.6931 -0.7344
  119OSM   C15F12617   6.153   5.075   9.118 -1.1732  0.2643  0.1106
  119OSM   H15F12618   6.178   5.183   9.116  2.0512 -0.3262  1.6289
  119OSM   H15G12619   6.043   5.072   9.103 -1.2804  0.2697  0.8670
  119OSM   C16F12620   6.221   5.011   8.996  0.4483 -0.1422  0.2703
  119OSM   H16F12621   6.176   5.057   8.906  0.9455  1.5638  0.8488
  119OSM   H16G12622   6.200   4.902   8.990 -0.0053 -0.1460  1.5299
  119OSM   C17F12623   6.372   5.034   8.983 -0.4911  0.0121  0.1592
  119OSM   H17F12624   6.435   4.985   9.060  2.5281  1.1954 -1.4065
  119OSM   H17G12625   6.386   5.144   8.992  1.3421 -0.2704  1.2338
  119OSM   C18F12626   6.422   4.983   8.848  0.6572 -0.9583  0.0849
  119OSM   H18F12627   6.532   4.999   8.841  0.3610  1.4644  0.0819
  119OSM   H18G12628   6.364   5.034   8.769 -1.0948  0.6620  2.2732
  119OSM   H18H12629   6.391   4.876   8.849 -3.4983  0.0490  1.9557
  120OSM      N12630   6.127   2.075  10.432 -0.0692  0.0128  0.2938
  120OSM    C1512631   6.209   2.128  10.324  0.6915 -0.0102 -0.2847
  120OSM   H15A12632   6.290   2.191  10.357  2.8875 -0.3227 -4.4481
  120OSM   H15B12633   6.146   2.194  10.266 -0.8296  1.3986  2.7506
  120OSM   H15C12634   6.255   2.050  10.266  0.5110  0.5572 -1.2125
  120OSM    C1412635   6.051   1.962  10.372  0.2446 -0.5808 -0.5841
  120OSM   H14A12636   5.995   2.002  10.289  1.6345  1.3785 -0.6580
  120OSM   H14B12637   5.972   1.927  10.437 -0.0307 -1.9285 -1.6138
  120OSM   H14C12638   6.116   1.878  10.352  3.0547  0.0932  4.0055
  120OSM    C1312639   6.222   2.010  10.531  0.2898 -0.2591  0.2935
  120OSM   H13A12640   6.172   1.966  10.616  0.7631 -0.7916  0.2964
  120OSM   H13B12641   6.306   2.068  10.564  1.6639 -1.9649 -0.0414
  120OSM   H13C12642   6.257   1.922  10.478  1.2789  1.0790 -1.3704
  120OSM    C1212643   6.034   2.171  10.501  0.5316 -0.5379 -0.3395
  120OSM   H12A12644   5.969   2.206  10.422 -0.1165 -1.2108 -0.1151
  120OSM   H12B12645   6.091   2.254  10.539 -0.6561 -0.1648  0.6886
  120OSM    C1112646   5.943   2.117  10.615  0.0688 -0.0109  0.0100
  120OSM   H11A12647   5.887   2.207  10.649 -2.6048 -1.5723  0.0473
  120OSM   H11B12648   5.999   2.082  10.705 -2.2186  0.9516  1.9197
  120OSM      P12649   5.707   2.037  10.583 -0.4482  0.8485 -0.0037
  120OSM    O1312650   5.645   1.903  10.538 -0.0140  0.1627 -0.6195
  120OSM    O1412651   5.680   2.090  10.721  0.0889 -0.1070  0.1498
  120OSM    O1112652   5.674   2.151  10.474 -0.3925  0.3354  0.9597
  120OSM    O1212653   5.859   2.018  10.563 -0.6278  0.2687  0.3497
  120OSM    C1S12654   5.707   2.115  10.331  0.3081 -0.1441  0.3304
  120OSM    H1S12655   5.642   2.029  10.305 -2.9933  2.4519 -0.7109
  120OSM    H1T12656   5.816   2.091  10.327  0.7960  1.9893 -1.6465
  120OSM     NF12657   5.752   2.205  10.101  0.8155  0.2373  0.1109
  120OSM    HNF12658   5.838   2.253  10.081  1.5727 -0.4362  1.5302
  120OSM    C2S12659   5.695   2.234  10.229  0.5322 -0.8786 -0.1837
  120OSM    H2S12660   5.587   2.256  10.213  1.0381  1.0949 -1.1899
  120OSM    C3S12661   5.748   2.373  10.273  0.5151  0.1174 -0.2662
  120OSM    H3S12662   5.858   2.374  10.262  0.7245 -2.5856  0.6263
  120OSM     O312663   5.718   2.399  10.413  0.1290 -0.5146  0.5223
  120OSM    HO312664   5.678   2.315  10.434  0.1191 -0.6839 -0.1446
  120OSM    C4S12665   5.698   2.490  10.185 -0.1007  0.0353 -0.1226
  120OSM    H4S12666   5.590   2.503  10.201 -0.4632 -1.2324 -1.2613
  120OSM    C5S12667   5.765   2.567  10.102 -0.0746  0.8061 -0.3675
  120OSM    H5S12668   5.867   2.538  10.071 -0.5006 -2.8842  1.1885
  120OSM    C6S12669   5.703   2.681  10.023 -0.7499  0.0559  0.4242
  120OSM    H6S12670   5.724   2.781  10.065 -3.3237  1.8699 -2.2515
  120OSM    H6T12671   5.593   2.666  10.030 -0.9621 -0.2934 -2.3521
  120OSM    C7S12672   5.752   2.695   9.879 -0.0362  0.3821  0.0420
  120OSM    H7S12673   5.842   2.758   9.861 -1.8228  2.6833 -1.3838
  120OSM    H7T12674   5.670   2.752   9.830 -0.0349  0.6348  0.3334
  120OSM    C8S12675   5.775   2.562   9.814 -0.0785  0.4672  0.0132
  120OSM    H8S12676   5.684   2.499   9.817  0.4317 -0.2394  0.7309
  120OSM    H8T12677   5.869   2.515   9.849  0.2058 -1.0033 -2.5085
  120OSM    C9S12678   5.788   2.571   9.658 -0.2592  0.1186 -0.3552
  120OSM    H9S12679   5.854   2.660   9.653 -1.6514  1.1048 -2.9150
  120OSM    H9T12680   5.695   2.606   9.607  0.7494  1.7838 -1.1374
  120OSM   C10S12681   5.843   2.440   9.586 -0.0717 -0.4236 -0.0068
  120OSM   H10S12682   5.786   2.348   9.612 -0.7811 -0.4960 -1.6711
  120OSM   H10T12683   5.941   2.427   9.637 -0.2398 -0.2910  0.3556
  120OSM   C11S12684   5.855   2.440   9.438 -0.6009 -0.0354 -0.0804
  120OSM   H11S12685   5.916   2.528   9.409 -0.1683 -0.0267  0.8055
  120OSM   H11T12686   5.752   2.455   9.398 -0.6970  0.2659  0.2736
  120OSM   C12S12687   5.921   2.319   9.365  0.3432  0.1499  0.6956
  120OSM   H12S12688   5.867   2.228   9.396 -2.7689  0.9181 -1.9116
  120OSM   H12T12689   6.028   2.311   9.393  1.0002  1.3631 -1.2051
  120OSM   C13S12690   5.904   2.313   9.211  0.1992 -0.6832 -0.5477
  120OSM   H13S12691   5.943   2.408   9.168 -0.8716 -0.2093 -0.5041
  120OSM   H13T12692   5.796   2.306   9.187 -0.0819  0.2665  0.3374
  120OSM   C14S12693   5.971   2.193   9.148  0.1258 -0.0872  0.0595
  120OSM   H14S12694   5.917   2.108   9.195 -0.4165 -0.0849 -0.5554
  120OSM   H14T12695   6.080   2.192   9.171 -0.1740 -0.2122  1.5678
  120OSM   C15S12696   5.960   2.207   8.999  0.1689  0.3256  0.0731
  120OSM   H15S12697   6.021   2.134   8.942  1.7471  0.1007  1.9211
  120OSM   H15T12698   5.988   2.310   8.967  0.0620  0.1507 -0.5729
  120OSM   C16S12699   5.818   2.182   8.938  0.1355  0.6844 -0.4098
  120OSM   H16S12700   5.754   2.268   8.968 -0.6882  0.0602 -0.3466
  120OSM   H16T12701   5.765   2.094   8.981 -0.2637  1.1236  0.0165
  120OSM   C17S12702   5.800   2.161   8.786 -0.9309  0.1494  0.3791
  120OSM   H17S12703   5.823   2.261   8.743  0.6365  0.5037  1.9385
  120OSM   H17T12704   5.695   2.132   8.762 -1.3383  1.8333 -0.0067
  120OSM   C18S12705   5.902   2.055   8.734  0.5935  0.1950  0.0475
  120OSM   H18S12706   6.007   2.081   8.761 -0.0463  0.1364  2.8310
  120OSM   H18T12707   5.888   2.056   8.624 -0.5605  0.8871  0.1941
  120OSM   H18U12708   5.883   1.951   8.768  2.9418 -1.2980 -2.7284
  120OSM    C1F12709   5.700   2.111  10.019  0.2021 -0.2949  0.6638
  120OSM     OF12710   5.607   2.038  10.059  0.2943 -0.5308 -0.7215
  120OSM    C2F12711   5.743   2.102   9.877  0.1168  0.1823 -0.2436
  120OSM    H2F12712   5.841   2.050   9.870  0.6303  0.8272  1.5212
  120OSM    H2G12713   5.758   2.202   9.831 -0.0839  0.0382 -0.6283
  120OSM    C3F12714   5.627   2.034   9.797  0.0928 -0.9004 -0.5615
  120OSM    H3F12715   5.539   2.095   9.828 -0.1239 -1.0680 -0.8352
  120OSM    H3G12716   5.608   1.928   9.821 -0.1660 -0.9136 -0.8146
  120OSM    C4F12717   5.634   2.052   9.648 -0.3782 -0.5451 -0.4609
  120OSM    H4F12718   5.637   2.162   9.635  0.2272 -0.4271  0.5621
  120OSM    H4G12719   5.547   2.001   9.602  0.0989 -1.1536 -0.7117
  120OSM    C5F12720   5.747   1.984   9.576 -0.4896 -0.1182  0.2666
  120OSM    H5F12721   5.841   2.018   9.626 -1.0457  1.6070  0.2082
  120OSM    H5G12722   5.754   2.007   9.468  0.3483 -0.2391  0.2861
  120OSM    C6F12723   5.742   1.829   9.587 -0.1733 -0.0259  0.1334
  120OSM    H6F12724   5.745   1.793   9.692  0.7522  0.7538  0.3890
  120OSM    H6G12725   5.829   1.791   9.530  0.6292 -1.4759  2.2016
  120OSM    C7F12726   5.620   1.764   9.522  0.1786 -0.8215  0.3830
  120OSM    H7F12727   5.533   1.782   9.589 -0.3194  0.3367 -0.5315
  120OSM    H7G12728   5.629   1.654   9.514 -0.7907 -0.8223 -1.2272
  120OSM    C8F12729   5.584   1.811   9.373 -0.2687  0.3863 -0.5884
  120OSM    H8F12730   5.549   1.916   9.374  1.6332  1.0653  1.0990
  120OSM    H8G12731   5.501   1.742   9.346 -1.2290  0.8160  1.0904
  120OSM    C9F12732   5.702   1.785   9.286  0.1298 -0.3907 -0.8615
  120OSM    H9F12733   5.803   1.769   9.327 -0.7182 -0.0241  1.5346
  120OSM   C10F12734   5.703   1.817   9.158 -1.1563  0.5306  0.4592
  120OSM   H10F12735   5.794   1.794   9.100 -0.4654 -1.0629  2.0957
  120OSM   C11F12736   5.589   1.854   9.075  0.3263  0.0670  0.3138
  120OSM   H11F12737   5.614   1.947   9.021 -1.7090  1.3430  1.4310
  120OSM   H11G12738   5.502   1.879   9.139 -1.9410  2.2002 -3.2706
  120OSM   C12F12739   5.553   1.758   8.955 -0.1841 -0.1957  0.3055
  120OSM   H12F12740   5.458   1.803   8.917  0.6025  0.6653 -0.7148
  120OSM   H12G12741   5.519   1.667   9.008 -2.2349  1.5087  2.0882
  120OSM   C13F12742   5.657   1.745   8.849  0.5284 -0.0677 -0.0423
  120OSM   H13F12743   5.753   1.702   8.885 -0.3275 -2.3818 -0.3423
  120OSM   H13G12744   5.681   1.850   8.822 -0.4959 -0.2221 -1.7088
  120OSM   C14F12745   5.614   1.649   8.729  0.4556 -0.9136 -0.1046
  120OSM   H14F12746   5.616   1.696   8.628 -3.0052 -0.4909 -0.1190
  120OSM   H14G12747   5.509   1.622   8.755  0.8428 -0.8233  1.6911
  120OSM   C15F12748   5.684   1.509   8.717 -0.4727  0.0623  0.1930
  120OSM   H15F12749   5.632   1.444   8.791 -0.3866  2.0760  2.1137
  120OSM   H15G12750   5.792   1.527   8.736 -0.6171  0.2248  0.8871
  120OSM   C16F12751   5.663   1.450   8.579 -0.4068 -0.2811  0.5215
  120OSM   H16F12752   5.715   1.352   8.577 -3.6106 -2.1110 -1.3489
  120OSM   H16G12753   5.712   1.512   8.500 -1.1041  1.8392  1.6783
  120OSM   C17F12754   5.518   1.416   8.564  0.3474 -0.4099 -0.2313
  120OSM   H17F12755   5.460   1.412   8.659 -2.2593  0.9222 -1.6533
  120OSM   H17G12756   5.513   1.318   8.514  0.1162  0.3113 -1.6691
  120OSM   C18F12757   5.441   1.500   8.461 -0.1288  0.0500  0.5070
  120OSM   H18F12758   5.497   1.508   8.366 -1.3611  0.4457 -0.2037
  120OSM   H18G12759   5.428   1.598   8.511 -0.1539 -1.0258  2.7645
  120OSM   H18H12760   5.345   1.446   8.449  0.4088 -0.5588 -1.4212
  121OSM      N12761   3.972   5.659  11.064  0.5054  0.6803  0.2832
  121OSM    C1512762   3.978   5.522  11.130 -0.0927 -0.6416  0.1646
  121OSM   H15A12763   4.073   5.475  11.112  0.6487 -0.5759  3.2388
  121OSM   H15B12764   3.903   5.451  11.099  1.2447 -2.7077  1.4494
  121OSM   H15C12765   3.969   5.524  11.238  0.0954 -1.2324  0.1933
  121OSM    C1412766   3.862   5.737  11.128 -0.4674  0.3236  0.1597
  121OSM   H14A12767   3.883   5.760  11.232 -0.9183  1.9523 -0.0721
  121OSM   H14B12768   3.769   5.683  11.121 -1.0481  1.2483  0.4130
  121OSM   H14C12769   3.832   5.827  11.077 -1.3246  0.9172  1.6300
  121OSM    C1312770   4.105   5.718  11.109  0.5503 -0.2225  0.2159
  121OSM   H13A12771   4.139   5.805  11.053  1.8720 -2.2790 -2.4044
  121OSM   H13B12772   4.186   5.652  11.081  0.2850  0.4327 -2.4053
  121OSM   H13C12773   4.113   5.729  11.216 -3.3168  2.2650  0.4583
  121OSM    C1212774   3.966   5.657  10.913  0.0940 -0.3234  0.1004
  121OSM   H12A12775   3.950   5.759  10.881  0.4428 -0.0211  0.8533
  121OSM   H12B12776   3.876   5.611  10.874 -2.2700  2.1929  2.1626
  121OSM    C1112777   4.085   5.594  10.842  0.2294  0.2025  0.4193
  121OSM   H11A12778   4.179   5.651  10.851 -0.6471  1.5901  1.0325
  121OSM   H11B12779   4.066   5.599  10.733  1.6813  0.1721  0.1471
  121OSM      P12780   4.250   5.388  10.884 -0.3072 -0.1812 -0.0491
  121OSM    O1312781   4.324   5.465  10.990 -0.2218 -0.0435  0.4244
  121OSM    O1412782   4.229   5.242  10.912 -0.1693 -0.4610  0.7794
  121OSM    O1112783   4.310   5.409  10.740 -0.0070 -0.5117 -0.4735
  121OSM    O1212784   4.105   5.455  10.876 -0.0194  0.5705  0.1068
  121OSM    C1S12785   4.385   5.307  10.677  0.3729 -0.3335  1.0267
  121OSM    H1S12786   4.344   5.206  10.700 -0.7999 -0.0743  0.1804
  121OSM    H1T12787   4.494   5.310  10.699  0.7908  0.8638 -0.9439
  121OSM     NF12788   4.451   5.219  10.447 -0.5135 -0.3900  0.0778
  121OSM    HNF12789   4.546   5.232  10.421 -0.3120  0.9976  1.4006
  121OSM    C2S12790   4.375   5.322  10.521  0.1409  0.2276  0.4079
  121OSM    H2S12791   4.266   5.306  10.503  0.4153  1.1913 -2.7148
  121OSM    C3S12792   4.414   5.467  10.478  0.1586 -0.8981  0.4288
  121OSM    H3S12793   4.523   5.483  10.493 -0.3150  4.4957  0.1423
  121OSM     O312794   4.356   5.572  10.553  0.0987 -0.3951  0.4541
  121OSM    HO312795   4.323   5.522  10.629  1.1884  0.3704  1.4633
  121OSM    C4S12796   4.373   5.486  10.331 -0.6359 -0.0860 -0.5317
  121OSM    H4S12797   4.264   5.492  10.316 -0.7332 -1.4175 -0.5239
  121OSM    C5S12798   4.458   5.497  10.232  0.0040 -0.1422  1.0739
  121OSM    H5S12799   4.560   5.468  10.261  0.0141 -1.6062 -0.2511
  121OSM    C6S12800   4.407   5.503  10.091  0.5251  0.3569 -0.0986
  121OSM    H6S12801   4.348   5.410  10.078 -1.4714  1.4043  0.9998
  121OSM    H6T12802   4.500   5.483  10.033  2.6542  0.9961  2.8585
  121OSM    C7S12803   4.345   5.633  10.044  0.1644 -0.3841  0.0936
  121OSM    H7S12804   4.425   5.709  10.031 -0.0857 -0.1583 -0.1521
  121OSM    H7T12805   4.272   5.667  10.121  0.1654  0.4752 -0.2670
  121OSM    C8S12806   4.265   5.613   9.914 -0.8572 -0.7580 -0.3443
  121OSM    H8S12807   4.227   5.716   9.896  0.3695 -0.3616 -0.8174
  121OSM    H8T12808   4.176   5.548   9.925 -1.6154  0.5718  2.2168
  121OSM    C9S12809   4.359   5.566   9.795 -0.2933 -0.7520 -0.6515
  121OSM    H9S12810   4.467   5.567   9.819 -0.7389  0.5675  1.6526
  121OSM    H9T12811   4.341   5.633   9.708 -3.6520  0.8469  1.0481
  121OSM   C10S12812   4.328   5.431   9.743  0.1996  0.1078  0.0459
  121OSM   H10S12813   4.221   5.434   9.714  0.2062 -1.7300 -0.3299
  121OSM   H10T12814   4.338   5.354   9.823 -1.4815  0.8210  0.9981
  121OSM   C11S12815   4.404   5.387   9.610 -0.6299 -0.4583 -0.2418
  121OSM   H11S12816   4.389   5.277   9.606 -0.4830 -0.5133  0.5256
  121OSM   H11T12817   4.514   5.401   9.612 -0.6506 -0.0043 -1.3064
  121OSM   C12S12818   4.337   5.458   9.497 -0.4987  0.1746  0.1038
  121OSM   H12S12819   4.360   5.566   9.505  0.7782 -0.1017  0.2929
  121OSM   H12T12820   4.228   5.439   9.511  0.4065 -5.7059  2.1015
  121OSM   C13S12821   4.389   5.416   9.356 -0.1056  0.2464  0.1689
  121OSM   H13S12822   4.356   5.312   9.333  0.7534  0.2128 -0.9984
  121OSM   H13T12823   4.500   5.411   9.360 -0.0758 -1.1013 -1.2129
  121OSM   C14S12824   4.354   5.520   9.245  0.4838  0.6599 -0.1767
  121OSM   H14S12825   4.413   5.613   9.259 -0.5841  1.1179  1.7960
  121OSM   H14T12826   4.247   5.550   9.248 -0.0939 -0.9929 -2.2182
  121OSM   C15S12827   4.376   5.461   9.110 -0.2047 -0.0378  0.3079
  121OSM   H15S12828   4.302   5.378   9.099 -0.2608 -0.0522  0.7803
  121OSM   H15T12829   4.478   5.421   9.095 -0.7344 -1.0752 -0.7732
  121OSM   C16S12830   4.362   5.558   8.990 -0.1434  0.1086 -0.1026
  121OSM   H16S12831   4.450   5.619   8.964  0.6226 -0.1022  1.8025
  121OSM   H16T12832   4.264   5.608   9.008 -0.2334 -0.0936 -0.0321
  121OSM   C17S12833   4.338   5.484   8.860 -0.1948  0.0333 -0.5795
  121OSM   H17S12834   4.247   5.421   8.863  1.5050 -2.5415 -0.2229
  121OSM   H17T12835   4.414   5.402   8.860 -2.1883 -1.8929 -1.0323
  121OSM   C18S12836   4.345   5.568   8.728 -0.2359  0.2184 -0.2024
  121OSM   H18S12837   4.336   5.491   8.648 -1.8965 -0.2557  0.3967
  121OSM   H18T12838   4.442   5.620   8.717  0.1618 -0.4667 -0.0435
  121OSM   H18U12839   4.258   5.637   8.725 -0.7681 -0.4157  0.2430
  121OSM    C1F12840   4.406   5.095  10.454  0.4048  0.4257 -0.7640
  121OSM     OF12841   4.299   5.066  10.507  0.3975 -0.7522 -0.4162
  121OSM    C2F12842   4.490   4.991  10.395 -0.3221  0.0583 -0.3860
  121OSM    H2F12843   4.568   4.949  10.462  0.3667  0.2222 -1.0648
  121OSM    H2G12844   4.550   5.029  10.309  1.4275 -0.7729  0.4097
  121OSM    C3F12845   4.401   4.875  10.342 -0.1856  1.0500  0.2747
  121OSM    H3F12846   4.321   4.917  10.278 -2.0580 -1.3869  0.8790
  121OSM    H3G12847   4.351   4.821  10.425  0.7255 -0.9789 -0.4177
  121OSM    C4F12848   4.476   4.763  10.252  0.5536  0.3247 -0.2308
  121OSM    H4F12849   4.414   4.671  10.243 -3.1109  2.0198  3.8294
  121OSM    H4G12850   4.572   4.740  10.304  0.9828  1.1539 -0.6464
  121OSM    C5F12851   4.520   4.812  10.114  0.1172  0.3704 -0.0171
  121OSM    H5F12852   4.591   4.897  10.125  0.9939 -0.1759 -1.2891
  121OSM    H5G12853   4.434   4.847  10.053 -1.3414 -2.1087  0.4722
  121OSM    C6F12854   4.581   4.696  10.042 -0.5516 -0.2861 -0.0610
  121OSM    H6F12855   4.501   4.619  10.045  0.8513 -1.7666  0.1855
  121OSM    H6G12856   4.664   4.656  10.103  0.4732 -0.1470 -1.3278
  121OSM    C7F12857   4.616   4.736   9.907 -0.2099 -0.2100  0.0386
  121OSM    H7F12858   4.667   4.835   9.903  0.8535 -0.7974 -2.3204
  121OSM    H7G12859   4.524   4.754   9.849 -0.5802 -1.4725  0.2203
  121OSM    C8F12860   4.709   4.622   9.837 -0.1824  0.0014  0.0078
  121OSM    H8F12861   4.793   4.588   9.901 -2.0502 -2.3176  1.3934
  121OSM    H8G12862   4.754   4.673   9.749 -0.9490  1.2813  0.3305
  121OSM    C9F12863   4.639   4.502   9.781 -0.3688 -0.2016 -0.2074
  121OSM    H9F12864   4.624   4.423   9.856 -0.0878 -1.1986 -1.1699
  121OSM   C10F12865   4.580   4.480   9.661  0.3806 -0.3564 -0.5560
  121OSM   H10F12866   4.535   4.382   9.639 -2.1617  0.5490  0.3074
  121OSM   C11F12867   4.576   4.570   9.554 -0.2047 -0.3230 -0.3334
  121OSM   H11F12868   4.633   4.664   9.570 -1.9876  0.8376 -0.4678
  121OSM   H11G12869   4.468   4.598   9.548  0.1793  0.9508 -2.2046
  121OSM   C12F12870   4.598   4.490   9.426  0.0342  0.2215 -0.0260
  121OSM   H12F12871   4.688   4.425   9.429 -1.3139 -1.8534 -1.6366
  121OSM   H12G12872   4.618   4.571   9.353  1.0251  2.3820  2.4881
  121OSM   C13F12873   4.484   4.397   9.390  0.5015  0.0077 -0.5678
  121OSM   H13F12874   4.395   4.463   9.399 -0.7263 -1.4354 -1.5725
  121OSM   H13G12875   4.480   4.308   9.456  0.9986 -1.6567 -2.6802
  121OSM   C14F12876   4.502   4.368   9.243 -0.2778  0.4378 -0.4168
  121OSM   H14F12877   4.416   4.310   9.203 -0.7742  2.1293 -1.9146
  121OSM   H14G12878   4.597   4.312   9.230 -0.9789 -0.5642 -1.3612
  121OSM   C15F12879   4.494   4.492   9.141  0.3040 -0.7524 -0.0873
  121OSM   H15F12880   4.560   4.577   9.164 -0.9077  0.8382 -2.1396
  121OSM   H15G12881   4.389   4.530   9.140 -0.1733 -2.0173 -0.9724
  121OSM   C16F12882   4.534   4.446   8.999  0.1794  0.4810 -0.7060
  121OSM   H16F12883   4.473   4.364   8.956  1.6238 -1.0947  0.1369
  121OSM   H16G12884   4.636   4.406   9.019 -0.2987 -0.1963  0.4516
  121OSM   C17F12885   4.558   4.562   8.906  0.4342 -0.1741  0.1064
  121OSM   H17F12886   4.617   4.528   8.819  0.2842  0.4953 -0.2592
  121OSM   H17G12887   4.615   4.639   8.963 -0.9469  1.2231 -0.3581
  121OSM   C18F12888   4.432   4.635   8.868  0.0153  0.7165 -0.3916
  121OSM   H18F12889   4.377   4.667   8.959 -0.1247 -0.3871 -0.0792
  121OSM   H18G12890   4.368   4.577   8.799  2.8904  0.0130 -2.6590
  121OSM   H18H12891   4.447   4.732   8.815  1.6007  0.5698 -0.2745
  122OSM      N12892   6.589   2.239  10.840  0.1462  0.1536 -0.4085
  122OSM    C1512893   6.637   2.200  10.978 -0.3101 -0.4092 -0.5055
  122OSM   H15A12894   6.647   2.096  11.006 -3.5923  0.0079  3.0083
  122OSM   H15B12895   6.558   2.220  11.049  1.0869 -3.2151  2.0836
  122OSM   H15C12896   6.725   2.256  11.007 -1.8152  0.9071  1.7849
  122OSM    C1412897   6.696   2.195  10.741 -0.0071 -1.1219  0.2863
  122OSM   H14A12898   6.794   2.201  10.785  0.2009  1.2913 -0.3860
  122OSM   H14B12899   6.692   2.263  10.657  2.3555  0.3328  1.2735
  122OSM   H14C12900   6.680   2.093  10.707  0.7577 -0.4421 -2.3674
  122OSM    C1312901   6.466   2.170  10.813 -0.1210  0.7106  0.1775
  122OSM   H13A12902   6.432   2.194  10.714  1.9078 -0.6406 -0.8967
  122OSM   H13B12903   6.383   2.212  10.869 -0.4470 -0.6823  0.7840
  122OSM   H13C12904   6.468   2.063  10.824  1.2831  0.8197  1.3620
  122OSM    C1212905   6.556   2.385  10.829  0.2616 -1.1116  0.1519
  122OSM   H12A12906   6.637   2.449  10.861 -0.3135 -1.0797  1.5992
  122OSM   H12B12907   6.478   2.403  10.901  0.7426  2.0584 -0.0020
  122OSM    C1112908   6.506   2.444  10.690 -0.4217  0.2604 -0.0280
  122OSM   H11A12909   6.577   2.412  10.610 -0.6884 -0.8428  0.1556
  122OSM   H11B12910   6.521   2.554  10.688  2.1599  0.0039  1.0735
  122OSM      P12911   6.255   2.485  10.652 -0.0396 -0.6443  0.2837
  122OSM    O1312912   6.145   2.433  10.572  0.0177 -0.5492 -0.1346
  122OSM    O1412913   6.236   2.514  10.798 -0.3980  0.5083 -0.1313
  122OSM    O1112914   6.303   2.613  10.569 -0.0822 -1.1194  0.4830
  122OSM    O1212915   6.382   2.390  10.644  0.3388 -0.3968  0.9230
  122OSM    C1S12916   6.358   2.624  10.439  0.1478  0.1921 -0.3371
  122OSM    H1S12917   6.382   2.522  10.403  0.3821  0.1643 -0.1092
  122OSM    H1T12918   6.455   2.677  10.454 -0.6156  1.6086 -0.2735
  122OSM     NF12919   6.336   2.694  10.211 -0.8272 -0.2547  0.3224
  122OSM    HNF12920   6.378   2.781  10.187 -0.1955 -0.1443  1.7233
  122OSM    C2S12921   6.270   2.695  10.334  1.0538 -0.3818  0.1457
  122OSM    H2S12922   6.168   2.652  10.324  0.3505  1.0376  0.9154
  122OSM    C3S12923   6.230   2.837  10.392  0.3001 -0.0227  0.0634
  122OSM    H3S12924   6.322   2.893  10.415 -0.6883  0.5617  2.9987
  122OSM     O312925   6.154   2.828  10.519 -0.1405  0.3175  0.3749
  122OSM    HO312926   6.174   2.737  10.540  0.8642  0.3643 -0.3057
  122OSM    C4S12927   6.143   2.914  10.292 -0.0757  0.4008  0.1421
  122OSM    H4S12928   6.201   2.978  10.223  1.0862  1.3455  1.9365
  122OSM    C5S12929   6.010   2.935  10.303 -0.0743  0.4953  0.5237
  122OSM    H5S12930   5.958   2.884  10.386  0.6591 -0.3073  0.5084
  122OSM    C6S12931   5.933   3.035  10.223 -0.1206  0.9694  0.0601
  122OSM    H6S12932   5.883   3.098  10.300 -1.3320 -0.1964  0.2729
  122OSM    H6T12933   5.842   2.992  10.176 -0.4622  1.9431 -0.1983
  122OSM    C7S12934   6.004   3.119  10.110 -0.2771  0.1751 -0.6583
  122OSM    H7S12935   6.098   3.164  10.149  0.3379 -0.8801 -0.8961
  122OSM    H7T12936   5.936   3.202  10.081 -0.8982 -0.5699 -1.3854
  122OSM    C8S12937   6.053   3.035   9.997 -0.8374  0.4654  0.5115
  122OSM    H8S12938   5.974   2.962   9.968 -0.2771  0.4419 -1.0430
  122OSM    H8T12939   6.135   2.966  10.025 -0.8516  0.2603  0.0521
  122OSM    C9S12940   6.099   3.106   9.866  0.6342  0.0053  0.2850
  122OSM    H9S12941   6.172   3.182   9.900  1.0891  0.3225 -1.3329
  122OSM    H9T12942   6.013   3.158   9.818 -0.2600 -1.3712  0.3323
  122OSM   C10S12943   6.163   3.004   9.772  0.2373  0.1431 -0.1602
  122OSM   H10S12944   6.240   2.950   9.831  0.3742 -0.0226 -0.4880
  122OSM   H10T12945   6.218   3.059   9.692  0.0674 -0.5853 -0.7881
  122OSM   C11S12946   6.065   2.909   9.699 -0.2389 -0.5887  0.2003
  122OSM   H11S12947   5.975   2.963   9.663 -0.5757  1.0813  3.1706
  122OSM   H11T12948   6.030   2.833   9.773  1.1109 -0.8827  0.5563
  122OSM   C12S12949   6.117   2.829   9.580 -0.0915 -0.4297 -0.0911
  122OSM   H12S12950   6.033   2.773   9.534  2.0934 -2.5671 -1.7686
  122OSM   H12T12951   6.195   2.757   9.615 -1.2049 -0.7147  1.9787
  122OSM   C13S12952   6.169   2.913   9.456  0.2344  0.8895  0.0477
  122OSM   H13S12953   6.245   2.990   9.483  0.4817  0.3231  1.0410
  122OSM   H13T12954   6.080   2.965   9.414  0.2990  1.2952  0.3944
  122OSM   C14S12955   6.193   2.829   9.338  0.2206  0.3271 -0.0740
  122OSM   H14S12956   6.117   2.749   9.332 -1.1112  1.2448  2.6694
  122OSM   H14T12957   6.285   2.772   9.363  0.3552 -0.9651 -3.1160
  122OSM   C15S12958   6.212   2.897   9.202  0.2418  0.2750 -1.1520
  122OSM   H15S12959   6.304   2.860   9.154  0.8979  1.4805 -0.8669
  122OSM   H15T12960   6.244   3.000   9.229  3.0038 -1.0153  1.0283
  122OSM   C16S12961   6.083   2.901   9.115 -0.2359  0.0128  0.0100
  122OSM   H16S12962   6.002   2.959   9.163 -1.1798  0.9804 -2.6227
  122OSM   H16T12963   6.052   2.795   9.100  0.9040 -0.4944  0.9953
  122OSM   C17S12964   6.099   2.961   8.974 -0.3125  0.3002 -0.5400
  122OSM   H17S12965   6.129   3.068   8.989 -3.4867  1.1155  0.7087
  122OSM   H17T12966   6.001   2.973   8.923 -1.1064 -0.0580  0.8805
  122OSM   C18S12967   6.203   2.880   8.890  0.2338  0.2760  0.4336
  122OSM   H18S12968   6.173   2.774   8.877 -0.8276  0.6434 -0.3328
  122OSM   H18T12969   6.312   2.893   8.907  0.1934 -0.2527  1.1320
  122OSM   H18U12970   6.191   2.918   8.786 -0.0507 -1.0000 -0.0118
  122OSM    C1F12971   6.363   2.586  10.137 -0.3057 -0.1344  0.0542
  122OSM     OF12972   6.345   2.473  10.181  0.2037  0.4487  0.0607
  122OSM    C2F12973   6.412   2.608   9.994  0.1548  0.6001 -0.3986
  122OSM    H2F12974   6.519   2.579   9.984 -0.0003 -0.0514 -0.1678
  122OSM    H2G12975   6.410   2.717   9.972 -2.2777  0.8205  0.6174
  122OSM    C3F12976   6.335   2.530   9.887  0.0201 -0.3906 -0.7714
  122OSM    H3F12977   6.229   2.562   9.880 -0.5143 -1.2656  1.9946
  122OSM    H3G12978   6.324   2.426   9.925  2.7729 -0.4648  0.0455
  122OSM    C4F12979   6.402   2.520   9.743  0.1405  0.3417  0.2255
  122OSM    H4F12980   6.498   2.464   9.747 -0.2310 -0.3653 -0.3366
  122OSM    H4G12981   6.418   2.626   9.716  0.8168  0.3049  0.4533
  122OSM    C5F12982   6.321   2.449   9.631 -0.0183 -0.3114 -0.6699
  122OSM    H5F12983   6.225   2.504   9.625 -0.5935 -0.7166  2.9218
  122OSM    H5G12984   6.312   2.344   9.666  1.2330  0.0789  0.9624
  122OSM    C6F12985   6.396   2.449   9.493  0.4604 -0.1723 -0.2728
  122OSM    H6F12986   6.472   2.370   9.479  0.5210  0.0856 -1.4991
  122OSM    H6G12987   6.441   2.551   9.496 -0.2350  0.1851 -1.4129
  122OSM    C7F12988   6.294   2.431   9.372 -0.8696  0.4642 -0.7184
  122OSM    H7F12989   6.197   2.479   9.395 -1.9399 -1.2734 -1.3970
  122OSM    H7G12990   6.278   2.321   9.365 -0.5568  0.4655 -1.5734
  122OSM    C8F12991   6.347   2.469   9.230  0.0781 -0.2015 -0.9118
  122OSM    H8F12992   6.435   2.412   9.192  1.4248  0.0157  1.6723
  122OSM    H8G12993   6.401   2.563   9.251 -0.0357 -0.2191 -0.5421
  122OSM    C9F12994   6.234   2.494   9.139  0.1170 -1.1617  0.3237
  122OSM    H9F12995   6.144   2.531   9.192 -0.7940 -1.8103 -0.7320
  122OSM   C10F12996   6.215   2.445   9.015  0.5551  0.0459 -0.0248
  122OSM   H10F12997   6.120   2.463   8.962  0.7893  1.4656  0.0049
  122OSM   C11F12998   6.319   2.367   8.933  0.5067 -0.2831  0.5300
  122OSM   H11F12999   6.283   2.268   8.899  0.4639  0.1229 -0.6521
  122OSM   H11G13000   6.416   2.353   8.985  1.9401  0.2767 -1.8486
  122OSM   C12F13001   6.354   2.446   8.811  0.3720 -0.2780  0.1867
  122OSM   H12F13002   6.423   2.391   8.744  1.0533 -0.6347  1.1681
  122OSM   H12G13003   6.416   2.535   8.837  0.6929 -0.7177  0.9434
  122OSM   C13F13004   6.239   2.494   8.718 -0.7162 -0.1543  0.6805
  122OSM   H13F13005   6.281   2.535   8.623 -1.8360  0.1661  0.3071
  122OSM   H13G13006   6.183   2.577   8.766  1.1930  0.1808  2.4748
  122OSM   C14F13007   6.152   2.384   8.672 -0.0441 -0.1049  0.5221
  122OSM   H14F13008   6.109   2.343   8.766 -0.1015 -0.1384  0.4819
  122OSM   H14G13009   6.221   2.307   8.631  0.7836  1.2650 -0.7386
  122OSM   C15F13010   6.048   2.410   8.567 -0.7201  0.2967 -0.3892
  122OSM   H15F13011   6.050   2.520   8.550 -0.5957  0.6537  1.6002
  122OSM   H15G13012   5.948   2.383   8.610 -0.4260 -0.7931 -0.3517
  122OSM   C16F13013   6.057   2.346   8.429  0.8472  0.5138  0.2283
  122OSM   H16F13014   6.052   2.237   8.450 -0.2662  0.9356  2.4743
  122OSM   H16G13015   6.149   2.372   8.372  0.5985 -2.4208 -1.7013
  122OSM   C17F13016   5.926   2.384   8.351  0.0681 -0.3489  0.3148
  122OSM   H17F13017   5.952   2.365   8.244  0.5025 -2.8483  0.7959
  122OSM   H17G13018   5.895   2.489   8.368  0.4989 -0.5901  2.8482
  122OSM   C18F13019   5.800   2.300   8.389 -0.0605 -0.2538  0.8635
  122OSM   H18F13020   5.721   2.296   8.311  0.6631  1.2040  0.0123
  122OSM   H18G13021   5.775   2.328   8.494  2.3057  1.0043  1.1430
  122OSM   H18H13022   5.837   2.196   8.402 -0.1057 -0.1813  1.6694
  123OSM      N13023   3.839   3.932   6.230 -0.0741 -0.0316  0.0340
  123OSM    C1513024   3.731   4.033   6.211 -0.4398  0.1149  0.7825
  123OSM   H15A13025   3.721   4.057   6.106  0.3048  0.5182  0.7949
  123OSM   H15B13026   3.750   4.120   6.272  0.1697 -0.0429  0.8297
  123OSM   H15C13027   3.630   4.007   6.238 -1.0311 -1.6707 -2.5755
  123OSM    C1413028   3.817   3.823   6.124 -0.2308 -0.5812  0.3333
  123OSM   H14A13029   3.885   3.743   6.151  0.5804 -0.6879 -1.7991
  123OSM   H14B13030   3.849   3.860   6.027 -3.7321  0.3855 -0.5946
  123OSM   H14C13031   3.713   3.794   6.122 -1.0527  2.1590 -0.3847
  123OSM    C1313032   3.970   3.993   6.194  0.3699  0.6565 -0.1664
  123OSM   H13A13033   3.995   4.054   6.279 -0.7101  1.9631 -0.7546
  123OSM   H13B13034   3.971   4.060   6.110 -2.1848  0.5615 -0.3654
  123OSM   H13C13035   4.059   3.932   6.185 -0.3780 -0.6334  0.7846
  123OSM    C1213036   3.833   3.880   6.375 -0.6799 -0.1097 -0.5746
  123OSM   H12A13037   3.741   3.826   6.385  0.5944 -2.1829  0.8031
  123OSM   H12B13038   3.830   3.969   6.436  1.2331  1.0050 -1.9823
  123OSM    C1113039   3.955   3.798   6.419 -0.0079 -0.1713 -0.1730
  123OSM   H11A13040   3.939   3.751   6.519 -2.5560  0.2639 -0.3064
  123OSM   H11B13041   4.048   3.859   6.413 -0.3269  0.2361 -1.2080
  123OSM      P13042   3.903   3.554   6.347  0.1148 -0.0036 -0.2309
  123OSM    O1313043   3.790   3.565   6.447 -0.6816 -0.6412 -0.0682
  123OSM    O1413044   3.867   3.497   6.213  0.3070  0.6160  0.0734
  123OSM    O1113045   4.014   3.463   6.413 -0.0565  0.1989 -0.4809
  123OSM    O1213046   3.975   3.692   6.332  0.3096  0.1824 -0.0391
  123OSM    C1S13047   4.065   3.482   6.545  0.0969  0.3374 -0.0020
  123OSM    H1S13048   4.047   3.585   6.583 -1.2629  0.9404 -2.1110
  123OSM    H1T13049   4.174   3.459   6.546 -0.3998 -2.3036  1.4929
  123OSM     NF13050   4.053   3.385   6.778  0.6400  0.3642  0.2904
  123OSM    HNF13051   4.096   3.304   6.818  0.6134 -1.5338 -3.1857
  123OSM    C2S13052   4.006   3.368   6.641 -0.1317 -0.2384 -0.7442
  123OSM    H2S13053   3.895   3.372   6.651 -0.0950  0.1138 -0.4549
  123OSM    C3S13054   4.046   3.224   6.579  0.1041 -0.3496  0.3641
  123OSM    H3S13055   4.157   3.216   6.568  0.0927 -1.5569  0.9782
  123OSM     O313056   3.999   3.201   6.443  0.6510 -0.1184 -0.1223
  123OSM    HO313057   3.982   3.293   6.423 -0.7182  0.2114  2.1234
  123OSM    C4S13058   3.999   3.118   6.673  0.3532 -0.1126 -0.1112
  123OSM    H4S13059   3.894   3.123   6.706  0.7587  1.1429  1.0526
  123OSM    C5S13060   4.061   3.006   6.703 -0.8220 -0.4826 -1.0969
  123OSM    H5S13061   4.153   2.974   6.652 -0.8632 -1.6737 -0.4619
  123OSM    C6S13062   3.993   2.901   6.789 -0.1227  0.5195  0.0282
  123OSM    H6S13063   4.015   2.798   6.755  0.9203 -0.0130  2.1348
  123OSM    H6T13064   3.884   2.921   6.790 -0.2598  0.0882 -1.9633
  123OSM    C7S13065   4.075   2.920   6.921  0.3129 -0.9602  0.4429
  123OSM    H7S13066   4.095   3.026   6.944 -2.0964 -0.4276  0.3324
  123OSM    H7T13067   4.170   2.863   6.913 -0.9001 -2.8449 -3.8960
  123OSM    C8S13068   3.997   2.858   7.037  0.8646  0.7895 -0.0987
  123OSM    H8S13069   3.964   2.753   7.026  0.3366  0.9284  0.1084
  123OSM    H8T13070   3.905   2.919   7.051  0.6618  1.0299 -2.2261
  123OSM    C9S13071   4.071   2.854   7.160 -0.7693 -0.5926 -0.1607
  123OSM    H9S13072   4.110   2.953   7.193 -0.4932 -0.7018 -0.1599
  123OSM    H9T13073   4.164   2.798   7.139 -0.5394 -0.0664 -0.5587
  123OSM   C10S13074   3.994   2.801   7.276 -0.5323 -0.4064 -0.5338
  123OSM   H10S13075   3.981   2.691   7.279  0.4662 -0.5118  0.8106
  123OSM   H10T13076   3.889   2.837   7.278 -0.8385 -1.1887 -1.6185
  123OSM   C11S13077   4.046   2.843   7.421  0.2371 -0.8583 -0.3285
  123OSM   H11S13078   4.074   2.950   7.414  0.2221 -0.8456 -0.2023
  123OSM   H11T13079   4.138   2.782   7.433  0.7694  0.1294  0.8436
  123OSM   C12S13080   3.939   2.823   7.536  0.2479 -0.0096  0.6810
  123OSM   H12S13081   3.904   2.718   7.534 -1.1367  0.4453 -1.3272
  123OSM   H12T13082   3.853   2.884   7.503  1.1709  1.4393  0.8490
  123OSM   C13S13083   3.985   2.884   7.670 -0.6245 -0.2895  0.1007
  123OSM   H13S13084   3.976   2.993   7.654 -0.5231 -0.1994  0.6781
  123OSM   H13T13085   4.092   2.859   7.685 -0.1260 -1.1503 -3.7726
  123OSM   C14S13086   3.884   2.852   7.779  0.1173 -0.4033 -1.1165
  123OSM   H14S13087   3.877   2.746   7.809  1.2111  0.0105  0.7417
  123OSM   H14T13088   3.789   2.893   7.739 -0.1800 -1.6596 -1.7306
  123OSM   C15S13089   3.924   2.917   7.911  0.2072 -0.1927 -0.3305
  123OSM   H15S13090   3.966   3.018   7.888  1.6727 -0.5333  0.6963
  123OSM   H15T13091   4.002   2.857   7.963  0.1570  0.2430  0.2605
  123OSM   C16S13092   3.805   2.938   8.003  0.9680  0.9126 -0.4158
  123OSM   H16S13093   3.719   2.976   7.943  0.5047 -0.6925 -0.8201
  123OSM   H16T13094   3.839   3.015   8.076 -0.3610  1.6016 -0.4737
  123OSM   C17S13095   3.751   2.819   8.084 -0.4050  0.9226  0.8243
  123OSM   H17S13096   3.822   2.780   8.160 -1.8546 -2.1491  0.7575
  123OSM   H17T13097   3.731   2.734   8.015 -2.1432  0.7528  1.5001
  123OSM   C18S13098   3.620   2.854   8.159  0.1999 -0.3652 -0.4671
  123OSM   H18S13099   3.646   2.940   8.224  0.1574 -0.4957 -0.2802
  123OSM   H18T13100   3.577   2.772   8.219  1.1318 -1.6690 -1.5280
  123OSM   H18U13101   3.539   2.886   8.089 -0.2110 -0.8061 -0.2009
  123OSM    C1F13102   4.026   3.492   6.852  0.2658 -0.4469 -0.6737
  123OSM     OF13103   3.955   3.582   6.807  0.0541 -0.4348  0.1037
  123OSM    C2F13104   4.089   3.505   6.991 -0.8531  0.3066  0.5827
  123OSM    H2F13105   4.110   3.612   7.015  0.3812  0.5281 -1.3039
  123OSM    H2G13106   4.184   3.447   6.987 -0.4157  1.0881 -1.6434
  123OSM    C3F13107   4.001   3.432   7.094  0.0092  0.3043 -0.4639
  123OSM    H3F13108   3.975   3.326   7.071 -0.5682 -0.2885  2.4933
  123OSM    H3G13109   3.899   3.477   7.103  0.4450  1.0592  1.2180
  123OSM    C4F13110   4.054   3.408   7.237  0.1247  0.1735 -0.7161
  123OSM    H4F13111   4.064   3.511   7.276  0.3898  0.7741 -2.2887
  123OSM    H4G13112   4.154   3.364   7.258  1.3663  1.9472 -2.5723
  123OSM    C5F13113   3.960   3.314   7.319  0.2285 -0.5955 -0.2626
  123OSM    H5F13114   3.973   3.207   7.291 -0.8188 -0.5167 -1.1372
  123OSM    H5G13115   3.856   3.353   7.313  0.7791  1.4074  1.8636
  123OSM    C6F13116   3.990   3.342   7.468  0.2351  0.0965 -0.1873
  123OSM    H6F13117   3.989   3.451   7.485  2.2531  0.4409 -1.8893
  123OSM    H6G13118   4.083   3.293   7.503 -0.8686 -2.2234 -0.2413
  123OSM    C7F13119   3.877   3.269   7.539  0.1388  0.0539  0.2447
  123OSM    H7F13120   3.896   3.160   7.538 -2.3332 -0.4404 -1.5006
  123OSM    H7G13121   3.778   3.289   7.493  0.6670  0.0534 -0.9212
  123OSM    C8F13122   3.867   3.315   7.689 -0.7522  0.2455  0.5132
  123OSM    H8F13123   3.963   3.314   7.744 -1.4475 -1.2219  1.7670
  123OSM    H8G13124   3.808   3.240   7.746  0.8119  0.8300  3.0512
  123OSM    C9F13125   3.798   3.447   7.698  0.1494 -1.1491  0.2259
  123OSM    H9F13126   3.730   3.469   7.615 -0.4557  0.1490  1.0546
  123OSM   C10F13127   3.829   3.544   7.791  0.1245  0.0268 -0.0306
  123OSM   H10F13128   3.762   3.631   7.784 -0.3469 -0.3992 -1.1490
  123OSM   C11F13129   3.927   3.521   7.896 -0.4822  0.2907 -0.9134
  123OSM   H11F13130   4.022   3.469   7.868 -0.5728 -0.2657 -0.2163
  123OSM   H11G13131   3.892   3.440   7.963  1.8801  0.6053  0.8263
  123OSM   C12F13132   3.950   3.649   7.973 -0.3835 -0.0848  1.0987
  123OSM   H12F13133   3.852   3.694   8.002  0.8690  2.7982  1.1743
  123OSM   H12G13134   3.984   3.741   7.922 -0.3485  0.4244  2.0263
  123OSM   C13F13135   4.042   3.631   8.098  0.3042  0.9661 -0.3858
  123OSM   H13F13136   4.075   3.733   8.129 -1.3552  0.6814  2.6970
  123OSM   H13G13137   4.139   3.583   8.074  0.2736  0.6627  0.0714
  123OSM   C14F13138   3.980   3.551   8.218  0.4517 -0.3616  0.5350
  123OSM   H14F13139   3.964   3.445   8.191 -0.9654  0.3739 -1.9024
  123OSM   H14G13140   3.878   3.588   8.243  0.8053  1.9118 -1.0764
  123OSM   C15F13141   4.064   3.566   8.344  0.3538  0.1348  0.7644
  123OSM   H15F13142   4.107   3.669   8.347  1.2049 -0.2275  2.4687
  123OSM   H15G13143   4.154   3.502   8.344 -0.1947 -0.6712  1.8037
  123OSM   C16F13144   3.975   3.551   8.471  0.4041  0.2981 -0.0015
  123OSM   H16F13145   3.930   3.449   8.480 -2.5108  1.5365  0.8344
  123OSM   H16G13146   3.894   3.627   8.466  0.1138  0.0319  0.5692
  123OSM   C17F13147   4.056   3.575   8.600  0.0298  0.1592  0.1939
  123OSM   H17F13148   3.994   3.575   8.692  0.8533 -1.0910  0.7776
  123OSM   H17G13149   4.114   3.670   8.597  0.6854 -0.2650 -0.9780
  123OSM   C18F13150   4.153   3.462   8.627 -0.2265  0.6837  0.2566
  123OSM   H18F13151   4.231   3.500   8.697  0.6706  1.4000 -1.0802
  123OSM   H18G13152   4.194   3.428   8.529 -1.1167  1.4143 -0.3906
  123OSM   H18H13153   4.119   3.364   8.665 -0.0116  0.3213 -0.4729
  124OSM      N13154   6.513   6.303   5.924 -0.4432 -0.4399  0.3807
  124OSM    C1513155   6.585   6.409   5.843 -0.0662 -0.2706  0.0290
  124OSM   H15A13156   6.624   6.373   5.749  1.7084  1.3095  0.0841
  124OSM   H15B13157   6.674   6.440   5.896 -0.1074  0.1207 -0.1248
  124OSM   H15C13158   6.510   6.479   5.808  0.3309 -1.0593 -2.5905
  124OSM    C1413159   6.403   6.261   5.853  0.0268  0.6237 -0.3022
  124OSM   H14A13160   6.363   6.178   5.910  1.6779 -0.4237 -0.6229
  124OSM   H14B13161   6.428   6.225   5.754  0.2949  0.3930 -0.1517
  124OSM   H14C13162   6.326   6.336   5.844 -0.8708 -0.4645 -2.5727
  124OSM    C1313163   6.618   6.190   5.938  0.1638 -0.7946 -0.1091
  124OSM   H13A13164   6.667   6.154   5.849  0.9677 -0.9491  0.3840
  124OSM   H13B13165   6.573   6.099   5.977 -0.7112 -0.5085 -0.4299
  124OSM   H13C13166   6.696   6.223   6.006  1.3441  0.5121 -2.0085
  124OSM    C1213167   6.477   6.354   6.064 -0.1126  0.3570 -0.6685
  124OSM   H12A13168   6.432   6.268   6.112 -0.1098 -0.5617 -2.2472
  124OSM   H12B13169   6.408   6.437   6.060 -1.0184 -0.3707 -0.4598
  124OSM    C1113170   6.596   6.402   6.160 -0.0075  0.1856  0.2518
  124OSM   H11A13171   6.674   6.323   6.159 -0.8686 -0.6975 -0.9720
  124OSM   H11B13172   6.555   6.409   6.263 -2.6092 -0.4078 -0.6556
  124OSM      P13173   6.579   6.662   6.145 -0.0652  0.4398  0.0007
  124OSM    O1313174   6.662   6.775   6.095 -0.0922 -0.2187 -0.9775
  124OSM    O1413175   6.441   6.659   6.089  0.1271 -0.2694 -0.4546
  124OSM    O1113176   6.573   6.666   6.297 -0.6940 -0.5353  0.2507
  124OSM    O1213177   6.647   6.528   6.109 -0.4421 -0.0291 -0.2603
  124OSM    C1S13178   6.684   6.696   6.388  0.3618  0.0678  0.3531
  124OSM    H1S13179   6.752   6.768   6.337 -0.1981  0.6513  0.4255
  124OSM    H1T13180   6.740   6.603   6.413 -0.1290  0.0176  1.3268
  124OSM     NF13181   6.754   6.788   6.609  0.2372  0.5385  0.5921
  124OSM    HNF13182   6.793   6.727   6.677 -0.8136 -0.1354  0.6210
  124OSM    C2S13183   6.639   6.742   6.527 -0.3049 -0.2137 -0.2926
  124OSM    H2S13184   6.578   6.836   6.522 -0.7324 -0.3998  0.9517
  124OSM    C3S13185   6.552   6.626   6.591 -0.4817  0.2869  0.6269
  124OSM    H3S13186   6.613   6.534   6.603 -1.4093 -0.4166  0.1312
  124OSM     O313187   6.447   6.581   6.506 -1.1833  0.1118 -0.3770
  124OSM    HO313188   6.473   6.608   6.418 -0.4118 -1.9628 -0.8379
  124OSM    C4S13189   6.499   6.665   6.727  0.1190 -0.5868 -0.2320
  124OSM    H4S13190   6.559   6.628   6.812 -1.8718  0.4690  1.7269
  124OSM    C5S13191   6.385   6.729   6.760  0.7706 -0.8951  0.0671
  124OSM    H5S13192   6.316   6.744   6.675  2.5611  0.7904 -1.1783
  124OSM    C6S13193   6.336   6.761   6.900 -0.1055  0.3801  0.6246
  124OSM    H6S13194   6.243   6.704   6.923 -0.0818 -0.6024 -1.4710
  124OSM    H6T13195   6.318   6.870   6.900  1.1701  0.6331  2.2624
  124OSM    C7S13196   6.426   6.728   7.019 -0.2941 -0.4592 -0.5420
  124OSM    H7S13197   6.522   6.783   7.004 -0.6044 -0.2363 -1.8634
  124OSM    H7T13198   6.452   6.621   7.035  0.9432  0.1231  1.7116
  124OSM    C8S13199   6.378   6.775   7.154 -0.4727  0.0838  0.3430
  124OSM    H8S13200   6.274   6.742   7.176 -0.5952 -0.0658 -0.4390
  124OSM    H8T13201   6.373   6.886   7.154  0.3696  0.1993  3.0890
  124OSM    C9S13202   6.469   6.724   7.266 -0.0365 -0.7400  0.8830
  124OSM    H9S13203   6.575   6.735   7.237  0.2443 -0.5668  1.9408
  124OSM    H9T13204   6.446   6.616   7.276 -0.6705 -0.6003  1.0193
  124OSM   C10S13205   6.455   6.793   7.404 -0.1341 -0.4284 -0.1240
  124OSM   H10S13206   6.348   6.803   7.431 -0.1946 -1.4928  0.0661
  124OSM   H10T13207   6.490   6.898   7.393  1.3266 -0.7081  1.3978
  124OSM   C11S13208   6.541   6.724   7.511  0.7307 -0.2078  0.5025
  124OSM   H11S13209   6.649   6.746   7.505  0.0667  3.1939 -1.7366
  124OSM   H11T13210   6.531   6.614   7.495 -0.1254 -0.3891  2.0578
  124OSM   C12S13211   6.490   6.764   7.647  0.0736  0.1083 -0.0633
  124OSM   H12S13212   6.383   6.737   7.660 -0.1860  1.0692 -0.1267
  124OSM   H12T13213   6.488   6.875   7.658  1.5042  0.0271  1.3406
  124OSM   C13S13214   6.569   6.695   7.758 -0.1281  0.5705  1.6584
  124OSM   H13S13215   6.671   6.737   7.754  0.0880  0.0043  0.9526
  124OSM   H13T13216   6.573   6.586   7.739 -0.8994  0.2610  3.1461
  124OSM   C14S13217   6.513   6.705   7.900 -0.5782 -0.2471 -0.5262
  124OSM   H14S13218   6.595   6.660   7.959 -2.5519 -0.4027  2.2752
  124OSM   H14T13219   6.414   6.655   7.909 -0.6765 -0.0698 -0.6147
  124OSM   C15S13220   6.516   6.850   7.949  0.3293 -0.1404  0.0110
  124OSM   H15S13221   6.440   6.903   7.888  0.0950  0.1725  0.5674
  124OSM   H15T13222   6.609   6.906   7.931  1.1443 -1.2813  0.5504
  124OSM   C16S13223   6.471   6.872   8.097  0.0988  0.6384  0.2160
  124OSM   H16S13224   6.543   6.810   8.154  0.2460 -0.3765 -1.0352
  124OSM   H16T13225   6.369   6.829   8.108  1.9039 -4.0608  0.8116
  124OSM   C17S13226   6.485   7.014   8.144 -1.1509  0.1097  0.6116
  124OSM   H17S13227   6.386   7.039   8.187 -1.4359  0.8791 -0.4537
  124OSM   H17T13228   6.491   7.076   8.052 -1.7420 -1.0334 -0.2144
  124OSM   C18S13229   6.597   7.048   8.243 -0.1386  0.2686 -0.2340
  124OSM   H18S13230   6.612   6.973   8.324  0.0858 -0.6108 -1.0743
  124OSM   H18T13231   6.559   7.139   8.295 -1.9577  0.5760 -1.9858
  124OSM   H18U13232   6.696   7.058   8.196 -0.1722  0.5494 -0.2430
  124OSM    C1F13233   6.812   6.902   6.586  0.2780 -0.0590 -0.7064
  124OSM     OF13234   6.787   6.976   6.490 -0.3476 -0.3320  0.2487
  124OSM    C2F13235   6.916   6.948   6.687  0.5344  1.1198 -0.1323
  124OSM    H2F13236   7.007   6.970   6.626  0.8798 -1.1074 -0.5429
  124OSM    H2G13237   6.950   6.870   6.759 -0.4443 -0.1001 -0.9571
  124OSM    C3F13238   6.879   7.085   6.754 -1.0787  0.6334  0.1312
  124OSM    H3F13239   6.823   7.151   6.685 -1.4786 -1.1782 -1.3673
  124OSM    H3G13240   6.974   7.136   6.783 -0.6522 -0.3094  0.4356
  124OSM    C4F13241   6.795   7.059   6.876  0.2420 -0.0491 -0.0383
  124OSM    H4F13242   6.702   7.007   6.845 -1.6543  2.7059  0.6073
  124OSM    H4G13243   6.757   7.160   6.902  0.9084  0.5032 -1.1346
  124OSM    C5F13244   6.852   6.978   6.993 -0.7976 -0.4604 -0.1688
  124OSM    H5F13245   6.946   7.030   7.020 -0.5392 -0.6233 -0.7318
  124OSM    H5G13246   6.870   6.874   6.958  0.4721 -0.2784 -0.0869
  124OSM    C6F13247   6.761   6.967   7.117 -0.4931  0.0000  0.5481
  124OSM    H6F13248   6.663   6.946   7.070  0.2826 -0.9040 -0.7482
  124OSM    H6G13249   6.758   7.074   7.148  1.2007  0.4334 -0.6230
  124OSM    C7F13250   6.807   6.870   7.224  0.7876 -0.3809 -0.2826
  124OSM    H7F13251   6.807   6.766   7.186  0.0879 -0.0318 -1.3049
  124OSM    H7G13252   6.735   6.882   7.307  1.2746  0.1568  0.0712
  124OSM    C8F13253   6.937   6.904   7.293 -0.0301  0.4585 -0.1011
  124OSM    H8F13254   7.009   6.910   7.209  0.6856  4.7390  0.6174
  124OSM    H8G13255   6.973   6.816   7.352 -2.7559 -1.3169 -0.8763
  124OSM    C9F13256   6.945   7.029   7.378 -0.1185 -0.5399 -0.4711
  124OSM    H9F13257   6.920   7.123   7.326 -1.3626 -1.4255 -1.5180
  124OSM   C10F13258   6.976   7.039   7.511  0.3514 -0.4386 -0.6065
  124OSM   H10F13259   6.976   7.137   7.561 -0.9929 -0.4674 -0.5131
  124OSM   C11F13260   7.000   6.924   7.606 -0.1948  0.4306 -0.1841
  124OSM   H11F13261   7.100   6.882   7.585 -0.4645 -1.2508  1.5845
  124OSM   H11G13262   6.927   6.842   7.588  1.6332 -1.7442  1.6544
  124OSM   C12F13263   6.994   6.945   7.764  0.1760  0.2095 -0.1208
  124OSM   H12F13264   6.901   7.002   7.783  0.8500  0.8062  1.5887
  124OSM   H12G13265   7.090   6.999   7.779  0.9710 -1.0251 -0.6682
  124OSM   C13F13266   6.992   6.814   7.835  0.6333 -0.3746 -0.4885
  124OSM   H13F13267   7.097   6.777   7.841  1.3421  1.4651 -1.0691
  124OSM   H13G13268   6.925   6.739   7.788 -1.2384  1.5167 -0.9515
  124OSM   C14F13269   6.954   6.835   7.978  0.7372  0.6614 -0.1948
  124OSM   H14F13270   6.852   6.879   7.989  0.1274  0.3823 -3.6786
  124OSM   H14G13271   7.024   6.911   8.018 -1.6511  1.2585  3.2849
  124OSM   C15F13272   6.969   6.703   8.048  0.6349  0.3816  0.6746
  124OSM   H15F13273   7.070   6.660   8.038  0.3162 -0.0558 -1.0077
  124OSM   H15G13274   6.906   6.632   7.991  0.6110  0.7866  0.1914
  124OSM   C16F13275   6.923   6.714   8.193 -0.1407  0.4530  0.6422
  124OSM   H16F13276   6.814   6.695   8.206 -0.3119 -0.9621 -2.0953
  124OSM   H16G13277   6.963   6.813   8.225  2.6341 -0.6955  0.9901
  124OSM   C17F13278   7.012   6.616   8.282  0.1920 -1.1766 -0.2080
  124OSM   H17F13279   7.108   6.670   8.272 -0.9467  1.3107  1.1914
  124OSM   H17G13280   7.023   6.515   8.237 -1.8392 -1.0836 -1.0351
  124OSM   C18F13281   6.981   6.606   8.421 -0.6211 -0.2905 -0.6782
  124OSM   H18F13282   7.020   6.693   8.477 -0.5235  0.4575 -1.8596
  124OSM   H18G13283   7.033   6.519   8.466 -0.9374  0.6505  1.6114
  124OSM   H18H13284   6.871   6.604   8.440 -0.8568  2.0182 -1.4582
  125OSM      N13285   6.568   1.468   5.822  0.6864  0.3944 -0.1904
  125OSM    C1513286   6.429   1.436   5.763  0.0989  0.4083 -0.0713
  125OSM   H15A13287   6.388   1.521   5.712 -1.4869 -0.5799 -0.5197
  125OSM   H15B13288   6.360   1.406   5.841 -2.9901 -1.3146 -3.2002
  125OSM   H15C13289   6.424   1.366   5.681  0.3190  2.0698 -1.5382
  125OSM    C1413290   6.641   1.339   5.847 -0.5087  0.2295  0.0256
  125OSM   H14A13291   6.651   1.281   5.757  0.2188  1.3695 -0.6616
  125OSM   H14B13292   6.585   1.275   5.914 -2.5102  1.3800 -0.4828
  125OSM   H14C13293   6.738   1.353   5.894 -0.4316 -1.0740  0.3095
  125OSM    C1313294   6.645   1.552   5.727 -0.3154  0.3431 -0.1524
  125OSM   H13A13295   6.578   1.631   5.696 -0.4277  0.4314  0.2993
  125OSM   H13B13296   6.679   1.484   5.651 -1.0848 -0.4329  0.1784
  125OSM   H13C13297   6.729   1.589   5.784 -2.2216  1.5002  2.1138
  125OSM    C1213298   6.557   1.553   5.947 -0.0977  0.0661  0.1979
  125OSM   H12A13299   6.504   1.637   5.906  0.7489 -0.5687 -2.3473
  125OSM   H12B13300   6.656   1.579   5.980 -0.1965  0.4561  0.1903
  125OSM    C1113301   6.487   1.484   6.070  0.0429  0.0954  0.2451
  125OSM   H11A13302   6.484   1.541   6.165  0.7518 -2.0912  1.6645
  125OSM   H11B13303   6.550   1.396   6.094  0.9680  0.3062 -1.2384
  125OSM      P13304   6.301   1.300   6.086 -0.0161 -0.6835  0.1363
  125OSM    O1313305   6.153   1.298   6.061 -0.2223  0.6901 -0.1855
  125OSM    O1413306   6.394   1.199   6.021  0.3924 -0.7051 -0.3623
  125OSM    O1113307   6.331   1.298   6.240  0.3702 -0.2576  0.2389
  125OSM    O1213308   6.350   1.447   6.040  0.2898  0.1144  0.6736
  125OSM    C1S13309   6.282   1.401   6.328  0.1620  0.1729 -0.5612
  125OSM    H1S13310   6.173   1.386   6.345  0.1781 -0.4167 -0.9467
  125OSM    H1T13311   6.302   1.504   6.292 -2.0491 -0.3326 -3.6143
  125OSM     NF13312   6.289   1.476   6.559 -0.0464  0.1123  0.1535
  125OSM    HNF13313   6.319   1.570   6.571 -1.1115  1.0371 -3.2237
  125OSM    C2S13314   6.360   1.393   6.468  0.4178  0.4595  0.0653
  125OSM    H2S13315   6.348   1.288   6.504  3.2836  0.1555  0.3710
  125OSM    C3S13316   6.513   1.412   6.467  0.3725  0.2592  0.3248
  125OSM    H3S13317   6.534   1.520   6.446 -0.6592  0.0571 -2.1370
  125OSM     O313318   6.584   1.348   6.365  0.0149  0.5444 -0.0282
  125OSM    HO313319   6.510   1.338   6.304 -0.7089  0.4595  0.8380
  125OSM    C4S13320   6.571   1.393   6.603 -0.2737 -0.3581 -0.6722
  125OSM    H4S13321   6.552   1.473   6.676 -0.8837 -2.0433  1.1042
  125OSM    C5S13322   6.642   1.290   6.659  0.1375 -0.1083 -0.4528
  125OSM    H5S13323   6.672   1.205   6.596 -0.5297 -0.1959 -0.6647
  125OSM    C6S13324   6.698   1.298   6.800 -0.5922  0.1511  0.6926
  125OSM    H6S13325   6.727   1.399   6.838 -3.2242  0.3345  2.4954
  125OSM    H6T13326   6.789   1.235   6.791  0.2005  1.3690 -0.0591
  125OSM    C7S13327   6.632   1.220   6.918  0.7101  0.3826  0.0298
  125OSM    H7S13328   6.643   1.111   6.899 -1.3787  0.3487 -1.3432
  125OSM    H7T13329   6.524   1.244   6.928  0.5072 -0.4843  0.0627
  125OSM    C8S13330   6.709   1.260   7.043 -0.0224  0.8319 -0.1967
  125OSM    H8S13331   6.712   1.371   7.040 -0.0518  0.8548  0.4454
  125OSM    H8T13332   6.813   1.220   7.040 -1.2838 -2.7269 -0.5470
  125OSM    C9S13333   6.637   1.207   7.164  0.2357  0.1168  0.0423
  125OSM    H9S13334   6.621   1.097   7.166 -0.5257  0.1917  2.9894
  125OSM    H9T13335   6.538   1.257   7.174 -0.5682 -1.2493 -0.6952
  125OSM   C10S13336   6.726   1.240   7.284  0.8725  0.6794 -0.4104
  125OSM   H10S13337   6.734   1.351   7.289  0.3966  0.7901 -1.7617
  125OSM   H10T13338   6.819   1.181   7.274 -0.4256 -1.5345 -0.0201
  125OSM   C11S13339   6.659   1.173   7.412 -0.8124  0.3697 -0.3941
  125OSM   H11S13340   6.668   1.063   7.400  0.3927  0.1512  1.8651
  125OSM   H11T13341   6.552   1.200   7.422 -1.2751 -1.5431  0.2352
  125OSM   C12S13342   6.741   1.202   7.534 -0.9683  0.4948  0.0830
  125OSM   H12S13343   6.746   1.313   7.540  3.1396  0.4132  0.8718
  125OSM   H12T13344   6.841   1.156   7.524 -1.5326 -0.5982 -0.7955
  125OSM   C13S13345   6.680   1.153   7.665  0.3793 -0.4679  0.1804
  125OSM   H13S13346   6.678   1.042   7.662  0.0121 -0.4458 -2.1742
  125OSM   H13T13347   6.577   1.192   7.679  0.9573  1.3332 -0.2622
  125OSM   C14S13348   6.766   1.185   7.788  0.6567  1.0344  0.1265
  125OSM   H14S13349   6.773   1.296   7.789  3.0987  0.9914 -1.9414
  125OSM   H14T13350   6.871   1.152   7.772  0.6402  1.4290 -0.8931
  125OSM   C15S13351   6.714   1.122   7.914 -0.2642 -0.6108 -0.2635
  125OSM   H15S13352   6.694   1.013   7.914 -0.3959 -0.6083  1.2458
  125OSM   H15T13353   6.611   1.162   7.924  0.9094  2.8101 -0.7187
  125OSM   C16S13354   6.785   1.176   8.032  0.3031 -0.8667 -0.7425
  125OSM   H16S13355   6.801   1.285   8.016 -0.2600 -0.7327 -0.4381
  125OSM   H16T13356   6.875   1.112   8.044  0.5244 -0.4002  0.2365
  125OSM   C17S13357   6.699   1.172   8.166 -0.3793  0.5397 -0.9440
  125OSM   H17S13358   6.619   1.248   8.170 -0.7481  0.2461 -2.2672
  125OSM   H17T13359   6.761   1.186   8.257 -0.3063  0.7703 -1.0304
  125OSM   C18S13360   6.638   1.033   8.187 -0.1078 -0.1592  0.7259
  125OSM   H18S13361   6.540   1.024   8.135 -0.6709  2.4915  1.2191
  125OSM   H18T13362   6.611   1.000   8.290 -0.1362 -2.9151 -0.0739
  125OSM   H18U13363   6.706   0.947   8.166  0.5559  0.3505  0.7824
  125OSM    C1F13364   6.167   1.435   6.597 -0.0710 -0.3358 -0.0818
  125OSM     OF13365   6.127   1.315   6.605 -0.6038  0.0165  0.1389
  125OSM    C2F13366   6.078   1.546   6.636 -0.0119  0.3812 -0.5988
  125OSM    H2F13367   6.032   1.574   6.539  0.5543  1.4477 -0.5707
  125OSM    H2G13368   6.142   1.630   6.671  0.4969 -0.2726  0.1017
  125OSM    C3F13369   5.983   1.513   6.758  0.3641  0.0820  0.8898
  125OSM    H3F13370   6.042   1.474   6.843  0.7304  0.2830  0.7326
  125OSM    H3G13371   5.913   1.431   6.732 -0.1059  0.9624 -0.7933
  125OSM    C4F13372   5.899   1.641   6.799 -0.0544 -0.0288  0.4939
  125OSM    H4F13373   5.851   1.682   6.708  2.5587  0.2475 -0.8559
  125OSM    H4G13374   5.963   1.712   6.856  1.1666 -1.3206  0.8140
  125OSM    C5F13375   5.793   1.588   6.897  0.3432 -0.4422  0.1459
  125OSM    H5F13376   5.734   1.506   6.852 -0.3776  0.1852 -0.0646
  125OSM    H5G13377   5.719   1.670   6.905 -1.0648 -1.7406  1.0927
  125OSM    C6F13378   5.852   1.541   7.025 -0.4926  0.3087 -0.4558
  125OSM    H6F13379   5.921   1.456   7.005  0.9244  0.6700  2.3477
  125OSM    H6G13380   5.768   1.508   7.089  1.1929 -2.8662  0.3495
  125OSM    C7F13381   5.928   1.651   7.105 -0.4452  0.0541  0.2386
  125OSM    H7F13382   5.875   1.748   7.094  0.4124  0.3263 -2.2213
  125OSM    H7G13383   6.022   1.668   7.047  1.9721 -1.8918  3.2671
  125OSM    C8F13384   5.960   1.626   7.250  0.3152 -0.2798  0.8569
  125OSM    H8F13385   6.040   1.692   7.289  0.7709 -1.2561  1.6019
  125OSM    H8G13386   6.008   1.526   7.256  1.3548  0.0773 -0.8246
  125OSM    C9F13387   5.837   1.643   7.332 -0.0087  0.6105  0.5109
  125OSM    H9F13388   5.742   1.674   7.286  0.0540  2.7702  1.7606
  125OSM   C10F13389   5.826   1.612   7.459  0.2229 -0.1555 -0.4813
  125OSM   H10F13390   5.730   1.630   7.509  0.5092  0.4220 -0.1189
  125OSM   C11F13391   5.945   1.554   7.530 -0.6669 -0.5464 -0.1963
  125OSM   H11F13392   6.024   1.632   7.530 -1.2821  0.1259  1.7685
  125OSM   H11G13393   5.981   1.464   7.475  0.5365  0.6829 -1.5405
  125OSM   C12F13394   5.930   1.516   7.677 -0.4248  0.7496 -0.5542
  125OSM   H12F13395   6.027   1.473   7.709 -0.5107  0.0202 -1.2184
  125OSM   H12G13396   5.845   1.446   7.696  0.1898  0.5905  1.9374
  125OSM   C13F13397   5.921   1.639   7.776 -0.5898  0.2404  0.3769
  125OSM   H13F13398   5.822   1.687   7.765 -0.7480 -0.0069  0.6853
  125OSM   H13G13399   6.008   1.702   7.749 -1.0156  0.7756  0.2521
  125OSM   C14F13400   5.907   1.598   7.922 -0.4996  0.1239  0.4454
  125OSM   H14F13401   5.997   1.539   7.952 -0.7486  0.9300  3.0122
  125OSM   H14G13402   5.825   1.523   7.928  0.2092 -0.5624  2.7131
  125OSM   C15F13403   5.889   1.712   8.018  0.7383  0.0014 -0.3402
  125OSM   H15F13404   5.793   1.762   7.996  1.3013  1.3259  0.1344
  125OSM   H15G13405   5.970   1.787   8.023  0.0587  0.7544 -0.4746
  125OSM   C16F13406   5.872   1.642   8.156  0.7014 -0.5703  0.1298
  125OSM   H16F13407   5.961   1.579   8.175  0.3699 -0.6582  1.5479
  125OSM   H16G13408   5.778   1.583   8.149 -0.2363  0.6068  1.9678
  125OSM   C17F13409   5.849   1.732   8.279 -0.3457 -0.0699 -0.1321
  125OSM   H17F13410   5.881   1.673   8.368 -0.3920 -0.8679 -0.6326
  125OSM   H17G13411   5.739   1.749   8.279 -0.0051  2.8178  1.2368
  125OSM   C18F13412   5.924   1.859   8.291  0.5474  0.2276 -0.5186
  125OSM   H18F13413   5.909   1.897   8.395  1.0323 -0.2556 -0.2678
  125OSM   H18G13414   5.892   1.936   8.218  0.1120  1.5299  0.9755
  125OSM   H18H13415   6.033   1.842   8.276  0.4952  0.5774 -1.3463
  126OSM      N13416   3.243   4.854   6.069  0.2180 -0.0491 -0.3441
  126OSM    C1513417   3.374   4.809   6.014  0.0034  0.4962  0.4368
  126OSM   H15A13418   3.399   4.709   6.047 -2.5042 -0.5368 -0.4964
  126OSM   H15B13419   3.461   4.863   6.047  1.7446 -1.8487 -0.0379
  126OSM   H15C13420   3.369   4.794   5.907 -2.0914 -0.7511  0.6406
  126OSM    C1413421   3.216   4.975   5.999 -0.2567 -0.2936 -0.1306
  126OSM   H14A13422   3.207   4.960   5.893  0.2249 -1.2257 -0.0478
  126OSM   H14B13423   3.288   5.054   6.011  1.0429 -1.3537 -0.7707
  126OSM   H14C13424   3.127   5.027   6.032 -1.5650 -1.7795 -1.1841
  126OSM    C1313425   3.134   4.756   6.030 -0.6686 -0.4975  0.3354
  126OSM   H13A13426   3.138   4.743   5.923  1.2274  0.6346  0.2267
  126OSM   H13B13427   3.040   4.806   6.049  0.3258  0.7613  2.3268
  126OSM   H13C13428   3.146   4.664   6.086  1.7276  1.4358  3.3352
  126OSM    C1213429   3.243   4.878   6.221 -0.6744  0.1683 -0.1047
  126OSM   H12A13430   3.310   4.958   6.251 -0.9250 -0.1805  1.4621
  126OSM   H12B13431   3.300   4.798   6.266  4.6221  2.4933 -1.8932
  126OSM    C1113432   3.112   4.908   6.298 -0.2186 -1.0182 -0.7361
  126OSM   H11A13433   3.129   4.910   6.408  2.8145  0.3193 -1.1121
  126OSM   H11B13434   3.039   4.827   6.278  1.4331 -2.7881  0.0155
  126OSM      P13435   3.104   5.174   6.321 -0.1734  0.0468  0.2238
  126OSM    O1313436   3.247   5.154   6.356 -0.4810 -0.3306  0.0797
  126OSM    O1413437   3.065   5.288   6.234 -0.9691 -0.1862 -0.0871
  126OSM    O1113438   3.020   5.193   6.450  0.4825 -0.2211  0.3019
  126OSM    O1213439   3.058   5.037   6.257  0.2984 -0.7384  0.5321
  126OSM    C1S13440   3.040   5.112   6.557 -0.1746 -0.7159  0.3791
  126OSM    H1S13441   3.146   5.087   6.578  0.3433  1.3380  0.4108
  126OSM    H1T13442   2.982   5.018   6.544  0.5549 -1.0979 -0.2086
  126OSM     NF13443   2.981   5.099   6.794 -0.0323 -0.1449 -0.5855
  126OSM    HNF13444   2.895   5.066   6.832 -0.7776  1.9797 -0.3049
  126OSM    C2S13445   2.984   5.190   6.681 -0.0335  0.2940  0.2048
  126OSM    H2S13446   3.054   5.272   6.705  0.9201 -0.6382  0.6524
  126OSM    C3S13447   2.850   5.267   6.641 -0.0863  0.0275 -0.5929
  126OSM    H3S13448   2.780   5.191   6.600  0.6718 -1.0983  0.1245
  126OSM     O313449   2.849   5.363   6.539 -0.6483 -0.8641  0.5722
  126OSM    HO313450   2.923   5.328   6.490 -0.9196 -1.0670  0.3018
  126OSM    C4S13451   2.784   5.320   6.767  0.4770 -0.1254 -0.1315
  126OSM    H4S13452   2.738   5.238   6.824  0.8897  0.1153  0.5620
  126OSM    C5S13453   2.782   5.444   6.818  0.0991 -0.2955  0.0022
  126OSM    H5S13454   2.819   5.525   6.754 -1.4368  2.0991  1.9710
  126OSM    C6S13455   2.719   5.498   6.938 -0.0716 -0.2639 -0.4207
  126OSM    H6S13456   2.640   5.568   6.902  0.3025  0.1732 -0.3891
  126OSM    H6T13457   2.806   5.543   6.990  0.6968 -0.8590 -1.1818
  126OSM    C7S13458   2.667   5.395   7.040 -0.0555 -0.0843  0.4852
  126OSM    H7S13459   2.607   5.318   6.987 -2.4312  0.1326  2.6449
  126OSM    H7T13460   2.598   5.445   7.111 -0.3441  0.5422 -0.2226
  126OSM    C8S13461   2.765   5.318   7.123  0.2930 -0.0317  0.1388
  126OSM    H8S13462   2.795   5.382   7.208  1.1673 -0.5052  0.2020
  126OSM    H8T13463   2.857   5.306   7.062 -0.1117  2.7085 -1.1764
  126OSM    C9S13464   2.700   5.195   7.180 -0.9642 -0.3500 -0.7021
  126OSM    H9S13465   2.677   5.129   7.093  1.0591  1.2812 -2.6107
  126OSM    H9T13466   2.603   5.231   7.219  0.2282  0.7555  1.4322
  126OSM   C10S13467   2.788   5.125   7.289  0.1192  0.3131  0.6278
  126OSM   H10S13468   2.884   5.089   7.245  0.1941 -0.3112  1.2775
  126OSM   H10T13469   2.734   5.030   7.305 -1.7062  0.8179 -2.0130
  126OSM   C11S13470   2.823   5.204   7.418  0.0427  0.0875 -0.3511
  126OSM   H11S13471   2.876   5.297   7.386  0.9047 -1.2147 -2.9652
  126OSM   H11T13472   2.904   5.154   7.475  0.4939  2.4056  1.1974
  126OSM   C12S13473   2.702   5.245   7.498 -0.9511  0.4756  0.1497
  126OSM   H12S13474   2.635   5.312   7.441 -0.8474 -0.0270 -0.5708
  126OSM   H12T13475   2.746   5.306   7.580 -0.8935  1.9643 -0.9601
  126OSM   C13S13476   2.607   5.135   7.549 -0.1381  0.4550  0.7296
  126OSM   H13S13477   2.551   5.098   7.461  0.1442  1.3900  0.1486
  126OSM   H13T13478   2.532   5.193   7.607 -0.9878 -0.0397  0.1420
  126OSM   C14S13479   2.670   5.027   7.634  0.4617  0.1780 -0.7005
  126OSM   H14S13480   2.768   4.995   7.592  0.9231 -2.0658  1.8488
  126OSM   H14T13481   2.602   4.941   7.616  0.2657  0.3970 -1.0221
  126OSM   C15S13482   2.670   5.066   7.786 -0.4158 -0.8143 -0.4259
  126OSM   H15S13483   2.566   5.095   7.809 -0.1904 -0.8365  0.7108
  126OSM   H15T13484   2.733   5.156   7.805  3.5984 -2.4732 -4.0116
  126OSM   C16S13485   2.720   4.957   7.882 -0.0184 -0.1104  0.1102
  126OSM   H16S13486   2.807   4.904   7.836  0.7701  1.8749 -0.8140
  126OSM   H16T13487   2.645   4.876   7.898  0.4892 -0.4199  1.0108
  126OSM   C17S13488   2.746   5.020   8.020  0.1681  0.4810  0.2218
  126OSM   H17S13489   2.650   5.068   8.048  0.1544  0.8996 -0.5164
  126OSM   H17T13490   2.814   5.107   8.013 -1.1688  1.4345 -2.0378
  126OSM   C18S13491   2.804   4.928   8.126 -0.3960  0.8835  0.1766
  126OSM   H18S13492   2.781   4.973   8.225 -1.5677 -0.8111  0.7171
  126OSM   H18T13493   2.915   4.927   8.121 -0.4319  0.1865 -0.7564
  126OSM   H18U13494   2.759   4.827   8.127  0.6161  0.1434 -4.7974
  126OSM    C1F13495   3.099   5.056   6.842  0.1920 -0.0915  0.3203
  126OSM     OF13496   3.202   5.100   6.806  0.3734  0.3908  0.4535
  126OSM    C2F13497   3.095   4.959   6.950  0.1690 -0.4821 -0.1608
  126OSM    H2F13498   3.140   4.865   6.912 -0.0016  0.0385 -1.7138
  126OSM    H2G13499   2.986   4.943   6.963  0.1289  0.1221  0.3118
  126OSM    C3F13500   3.176   5.012   7.074 -0.6501  0.4168  0.2544
  126OSM    H3F13501   3.128   5.106   7.111 -3.3079 -0.9045  0.4137
  126OSM    H3G13502   3.279   5.036   7.041 -0.6097  3.5724  2.2360
  126OSM    C4F13503   3.164   4.920   7.195 -0.5269  0.0958  0.2521
  126OSM    H4F13504   3.063   4.933   7.241 -1.1093 -2.1998 -0.2829
  126OSM    H4G13505   3.234   4.960   7.272  0.8730  0.0660 -0.9793
  126OSM    C5F13506   3.174   4.773   7.161 -0.1745  0.6721  0.0666
  126OSM    H5F13507   3.259   4.761   7.091 -2.5170 -0.2510 -2.8148
  126OSM    H5G13508   3.089   4.737   7.099 -0.8188  1.2989  0.5536
  126OSM    C6F13509   3.184   4.675   7.281 -0.5659  0.4155 -0.1367
  126OSM    H6F13510   3.284   4.680   7.328  0.2422 -1.7792 -1.4977
  126OSM    H6G13511   3.188   4.573   7.239  1.4411  0.1322  0.6280
  126OSM    C7F13512   3.072   4.676   7.383  0.5229 -0.2857  0.2212
  126OSM    H7F13513   2.979   4.672   7.322  0.7641  0.2206 -0.1869
  126OSM    H7G13514   3.069   4.777   7.428  1.0338 -0.3719  0.4553
  126OSM    C8F13515   3.071   4.571   7.493  0.7655  0.0842 -0.0410
  126OSM    H8F13516   3.166   4.575   7.552  0.8783 -0.4420 -0.1798
  126OSM    H8G13517   3.083   4.474   7.440  0.3286  0.0789 -0.1327
  126OSM    C9F13518   2.946   4.562   7.581  0.1658 -0.0070 -0.4898
  126OSM    H9F13519   2.853   4.550   7.524 -0.0117  1.0797 -0.4542
  126OSM   C10F13520   2.934   4.575   7.714  0.3006  0.6571  0.0932
  126OSM   H10F13521   2.832   4.563   7.754  1.2352 -0.9237  2.2152
  126OSM   C11F13522   3.057   4.583   7.798 -0.1819 -0.5715  0.3852
  126OSM   H11F13523   3.124   4.666   7.766 -1.6606  0.8176  0.7694
  126OSM   H11G13524   3.112   4.487   7.789  1.6138  0.4910 -0.5748
  126OSM   C12F13525   3.024   4.617   7.942 -0.0144 -0.2163  0.7166
  126OSM   H12F13526   2.948   4.552   7.990 -1.3904 -0.7112 -1.9158
  126OSM   H12G13527   2.982   4.718   7.963  1.1876  0.2797  0.8048
  126OSM   C13F13528   3.139   4.605   8.043 -0.0583 -0.1490 -0.1429
  126OSM   H13F13529   3.226   4.666   8.011  0.2729 -0.0816  0.8814
  126OSM   H13G13530   3.170   4.499   8.050 -2.7513 -1.1123 -1.2636
  126OSM   C14F13531   3.105   4.647   8.187 -0.5056 -0.1259  0.6200
  126OSM   H14F13532   3.019   4.590   8.227 -1.7651  1.7834  0.7726
  126OSM   H14G13533   3.090   4.757   8.185  1.1549  0.1336  0.2869
  126OSM   C15F13534   3.225   4.608   8.274 -0.1396 -0.3924  0.6140
  126OSM   H15F13535   3.318   4.640   8.223  0.3505  0.2217  1.8283
  126OSM   H15G13536   3.218   4.498   8.286  1.2201 -0.5544  0.0923
  126OSM   C16F13537   3.210   4.685   8.403  0.0084 -0.1681 -0.1313
  126OSM   H16F13538   3.109   4.671   8.446  0.7409  2.3448  2.7689
  126OSM   H16G13539   3.233   4.793   8.390  1.0107 -0.3041  0.4068
  126OSM   C17F13540   3.300   4.621   8.515 -0.2279 -0.3329 -0.3813
  126OSM   H17F13541   3.404   4.623   8.475  1.1807  0.6414  2.9972
  126OSM   H17G13542   3.282   4.511   8.518  0.3413 -0.4071  2.5932
  126OSM   C18F13543   3.288   4.680   8.656  0.0221 -0.1464 -1.0423
  126OSM   H18F13544   3.321   4.786   8.653 -0.6669  0.1091 -0.1894
  126OSM   H18G13545   3.348   4.632   8.736 -1.1776  1.8084  1.1696
  126OSM   H18H13546   3.181   4.675   8.687  0.5456  0.0913  0.9555
  127OSM      N13547   4.867   0.601   5.712  0.1863 -0.5040  0.2076
  127OSM    C1513548   4.790   0.733   5.734 -0.2120 -0.4102  0.0035
  127OSM   H15A13549   4.765   0.743   5.839  0.3174 -2.9948  0.4355
  127OSM   H15B13550   4.689   0.738   5.698  0.1172 -2.8504 -1.4955
  127OSM   H15C13551   4.837   0.826   5.703 -1.6554  0.2385 -0.3257
  127OSM    C1413552   4.882   0.578   5.563  0.0669  0.2290 -0.1360
  127OSM   H14A13553   4.941   0.490   5.540 -1.5743 -0.8038 -0.6348
  127OSM   H14B13554   4.936   0.662   5.522  2.7307 -0.9269  0.7778
  127OSM   H14C13555   4.786   0.552   5.520  0.6928 -1.8326 -0.3869
  127OSM    C1313556   5.001   0.627   5.783  0.0309 -0.1224  0.6204
  127OSM   H13A13557   4.984   0.611   5.889 -0.7072 -1.3404  0.3366
  127OSM   H13B13558   5.048   0.724   5.773 -0.6316  0.1375 -0.1517
  127OSM   H13C13559   5.065   0.547   5.751 -1.1762 -1.4246  1.3415
  127OSM    C1213560   4.790   0.481   5.769 -0.2957  0.8198 -0.1383
  127OSM   H12A13561   4.772   0.504   5.873 -1.1478  0.1279 -0.1236
  127OSM   H12B13562   4.866   0.405   5.774  0.8371  1.9453  0.2122
  127OSM    C1113563   4.658   0.423   5.713 -0.5160  0.5870 -0.0981
  127OSM   H11A13564   4.636   0.336   5.779  1.7343  0.3615  0.4378
  127OSM   H11B13565   4.671   0.388   5.609 -0.8129  2.2836 -0.7264
  127OSM      P13566   4.424   0.494   5.806  0.1578 -0.4465  0.0198
  127OSM    O1313567   4.346   0.619   5.829  0.1284 -0.3008 -0.2764
  127OSM    O1413568   4.343   0.389   5.742 -0.1946  0.3370 -0.1988
  127OSM    O1113569   4.479   0.438   5.940  0.1173  0.4162  0.5677
  127OSM    O1213570   4.561   0.522   5.719 -0.3055  0.7019  0.4032
  127OSM    C1S13571   4.535   0.523   6.042  0.5373 -0.1714 -0.5253
  127OSM    H1S13572   4.476   0.614   6.063  0.8615  0.0081 -0.3834
  127OSM    H1T13573   4.638   0.556   6.017  0.5900  0.0220 -0.0476
  127OSM     NF13574   4.570   0.520   6.285  1.1154  0.5316  0.1482
  127OSM    HNF13575   4.657   0.504   6.330  0.2011  0.6231  2.0614
  127OSM    C2S13576   4.539   0.436   6.170 -0.0783  0.3495  0.3732
  127OSM    H2S13577   4.445   0.381   6.193  0.6787 -0.5976  1.2592
  127OSM    C3S13578   4.640   0.321   6.166  1.0803  0.0270  0.3362
  127OSM    H3S13579   4.738   0.365   6.136  0.7650  1.1572  0.9144
  127OSM     O313580   4.611   0.229   6.061 -0.6882  0.3506  0.2039
  127OSM    HO313581   4.535   0.268   6.018  1.2398  1.8605 -2.0690
  127OSM    C4S13582   4.649   0.239   6.292 -0.8019  0.0724  0.1363
  127OSM    H4S13583   4.559   0.182   6.319 -0.0208 -1.1253  0.2815
  127OSM    C5S13584   4.762   0.205   6.361 -0.7422  0.1216  0.6621
  127OSM    H5S13585   4.861   0.240   6.325 -0.8834  1.0431  1.1437
  127OSM    C6S13586   4.787   0.119   6.479 -0.8935  0.7394 -0.5341
  127OSM    H6S13587   4.802   0.185   6.567  1.5168  0.1486 -0.4326
  127OSM    H6T13588   4.872   0.049   6.465  0.3980  2.1198  0.1259
  127OSM    C7S13589   4.666   0.031   6.535 -0.3159 -0.3920  0.5015
  127OSM    H7S13590   4.634  -0.042   6.458  0.3139 -1.3373  1.1134
  127OSM    H7T13591   4.582   0.103   6.551  0.0484 -0.2541  1.9471
  127OSM    C8S13592   4.698  -0.048   6.660  0.0952 -0.0052  0.1646
  127OSM    H8S13593   4.731   0.020   6.741  0.1214  0.5656 -0.3198
  127OSM    H8T13594   4.784  -0.113   6.634  0.2547  0.6638 -1.0628
  127OSM    C9S13595   4.582  -0.128   6.712 -0.2668 -0.4725  0.1666
  127OSM    H9S13596   4.630  -0.220   6.750  0.7764  0.6894  1.7482
  127OSM    H9T13597   4.497  -0.150   6.643 -0.5785 -2.6631  1.1707
  127OSM   C10S13598   4.530  -0.044   6.833  0.6197  0.5857  0.1110
  127OSM   H10S13599   4.490   0.057   6.808  2.7448  1.7289  1.0133
  127OSM   H10T13600   4.614  -0.027   6.904  0.4377  2.6905 -0.1079
  127OSM   C11S13601   4.414  -0.115   6.906 -0.2063  0.2746  0.2005
  127OSM   H11S13602   4.461  -0.199   6.962  0.9348  0.8068  0.0808
  127OSM   H11T13603   4.350  -0.155   6.825 -1.5206  0.8238  0.9360
  127OSM   C12S13604   4.341  -0.033   7.012  0.0943  0.4809  0.4707
  127OSM   H12S13605   4.280   0.050   6.974 -0.8176 -1.0626 -1.5930
  127OSM   H12T13606   4.418   0.011   7.079 -0.0964  0.2571  0.8414
  127OSM   C13S13607   4.240  -0.112   7.091 -0.1185  0.1296 -0.2671
  127OSM   H13S13608   4.288  -0.206   7.125 -2.4075 -1.4535 -1.1132
  127OSM   H13T13609   4.160  -0.138   7.018  1.3171 -1.3647 -1.3781
  127OSM   C14S13610   4.189  -0.024   7.203  0.4613  0.8025 -0.5360
  127OSM   H14S13611   4.133   0.064   7.165 -0.1422  0.2850 -0.8548
  127OSM   H14T13612   4.280   0.013   7.256  1.6597 -1.7302 -0.6777
  127OSM   C15S13613   4.104  -0.094   7.307  0.6033 -0.1534  0.0213
  127OSM   H15S13614   4.166  -0.183   7.332 -0.4796 -0.6713  0.9351
  127OSM   H15T13615   4.011  -0.139   7.264  0.3548  2.7975 -2.9608
  127OSM   C16S13616   4.063  -0.009   7.428  0.2262 -0.3986 -0.1765
  127OSM   H16S13617   4.005   0.073   7.380 -0.7347 -1.8670 -1.6116
  127OSM   H16T13618   4.156   0.035   7.471  0.9919 -0.6031 -1.5701
  127OSM   C17S13619   3.980  -0.086   7.535 -0.2398  0.0519  0.1617
  127OSM   H17S13620   3.963  -0.015   7.618 -0.3959  0.4587 -0.2124
  127OSM   H17T13621   4.043  -0.166   7.579 -0.2989 -0.4634 -0.6628
  127OSM   C18S13622   3.856  -0.143   7.470  0.0579  0.2583 -0.3349
  127OSM   H18S13623   3.886  -0.230   7.406 -2.7530 -0.8622 -0.2728
  127OSM   H18T13624   3.812  -0.074   7.395  1.6581 -0.4752 -2.0513
  127OSM   H18U13625   3.786  -0.189   7.542  2.3288 -4.4543 -0.7330
  127OSM    C1F13626   4.486   0.607   6.336  0.3295  0.9556  0.2296
  127OSM     OF13627   4.377   0.626   6.283 -1.0724  0.5211  0.4352
  127OSM    C2F13628   4.544   0.673   6.466  0.3566  0.1308  0.7952
  127OSM    H2F13629   4.588   0.772   6.439 -0.9915  0.5892  0.1261
  127OSM    H2G13630   4.616   0.604   6.515  0.9553  0.6821  0.7087
  127OSM    C3F13631   4.437   0.691   6.576 -0.1124  0.1553  0.5339
  127OSM    H3F13632   4.412   0.594   6.623  0.7144 -0.8155 -0.9410
  127OSM    H3G13633   4.355   0.756   6.537  0.5205  0.0039 -1.1422
  127OSM    C4F13634   4.494   0.773   6.699  0.0626  0.5997  0.0688
  127OSM    H4F13635   4.538   0.874   6.686  1.0282  0.3462  1.1229
  127OSM    H4G13636   4.582   0.711   6.729 -1.1899 -1.3754 -0.1616
  127OSM    C5F13637   4.394   0.764   6.816  0.5225 -0.3062  0.6455
  127OSM    H5F13638   4.359   0.660   6.824 -1.3817  0.2141 -0.3478
  127OSM    H5G13639   4.307   0.831   6.798  0.7270 -0.1152  0.3532
  127OSM    C6F13640   4.462   0.781   6.949  0.5697  0.8320 -0.2157
  127OSM    H6F13641   4.496   0.886   6.945  1.8626  0.4050 -2.4480
  127OSM    H6G13642   4.552   0.715   6.951  0.9419  1.1578 -2.5694
  127OSM    C7F13643   4.376   0.743   7.064  0.0717  0.3151  0.1060
  127OSM    H7F13644   4.368   0.632   7.065 -0.9841  0.3896  0.2769
  127OSM    H7G13645   4.273   0.783   7.066  0.3685  1.0618  1.0738
  127OSM    C8F13646   4.428   0.799   7.188 -0.2731  0.7676  0.2273
  127OSM    H8F13647   4.354   0.779   7.269 -0.3384 -0.0059 -0.0121
  127OSM    H8G13648   4.448   0.908   7.179  1.2014  0.6286  1.5418
  127OSM    C9F13649   4.557   0.745   7.242 -0.3005  0.5527  0.4859
  127OSM    H9F13650   4.567   0.636   7.225  3.8174  0.8888 -0.1561
  127OSM   C10F13651   4.657   0.819   7.284 -0.5132 -0.3661  0.5490
  127OSM   H10F13652   4.752   0.769   7.312  0.8460  0.5818 -2.0380
  127OSM   C11F13653   4.656   0.969   7.312  0.3121  0.9263 -0.1483
  127OSM   H11F13654   4.553   1.007   7.330 -0.4494 -1.2631  0.3667
  127OSM   H11G13655   4.707   1.025   7.231 -0.5625 -0.7769 -1.9492
  127OSM   C12F13656   4.730   0.998   7.442  0.0471  0.4674 -0.4390
  127OSM   H12F13657   4.742   1.108   7.449  1.3504  0.5677 -3.0749
  127OSM   H12G13658   4.835   0.963   7.432 -0.1593 -0.8028  1.4217
  127OSM   C13F13659   4.682   0.955   7.577 -0.1331  0.3657  0.2223
  127OSM   H13F13660   4.639   0.853   7.573  2.1972 -0.6424 -1.1327
  127OSM   H13G13661   4.609   1.034   7.604 -1.4399 -0.9336  0.5692
  127OSM   C14F13662   4.783   0.993   7.682 -0.2190  0.2095 -0.1992
  127OSM   H14F13663   4.812   1.100   7.668  0.3262  0.1152  0.1691
  127OSM   H14G13664   4.866   0.919   7.683 -0.3270  0.0907 -0.0835
  127OSM   C15F13665   4.734   0.973   7.826  0.5170 -0.3161 -0.2156
  127OSM   H15F13666   4.724   0.866   7.854  0.7973  0.1133  1.6744
  127OSM   H15G13667   4.631   1.017   7.827  1.4825  2.1684 -1.5530
  127OSM   C16F13668   4.800   1.046   7.938  0.3843  0.5503  0.2681
  127OSM   H16F13669   4.851   1.132   7.889  0.4014 -0.0059 -0.7228
  127OSM   H16G13670   4.878   0.977   7.977 -0.5976 -0.4641  0.4779
  127OSM   C17F13671   4.711   1.106   8.051 -0.4577 -0.4693  0.5058
  127OSM   H17F13672   4.658   1.014   8.083 -3.0041  0.2667 -1.2727
  127OSM   H17G13673   4.630   1.162   7.999 -0.2346  0.8286  1.5082
  127OSM   C18F13674   4.783   1.176   8.156 -0.1067  0.0919  0.4666
  127OSM   H18F13675   4.885   1.133   8.162 -0.4846 -0.7668  0.9115
  127OSM   H18G13676   4.735   1.184   8.256  1.1501  2.1511  0.9603
  127OSM   H18H13677   4.803   1.280   8.121 -2.1482  0.1678 -0.6747
  128OSM      N13678   0.633   2.119   6.028  0.2214  1.1830 -0.1978
  128OSM    C1513679   0.771   2.059   5.995  0.6518  0.2916  0.0399
  128OSM   H15A13680   0.822   2.102   5.909  1.2819 -1.2342 -0.3821
  128OSM   H15B13681   0.769   1.953   5.977 -0.7418  0.7182 -3.0085
  128OSM   H15C13682   0.837   2.078   6.078  1.1522  3.4731 -0.9375
  128OSM    C1413683   0.624   2.262   6.005 -0.0844  0.1546 -0.2185
  128OSM   H14A13684   0.519   2.286   6.008 -0.6358 -2.0487  2.2409
  128OSM   H14B13685   0.661   2.289   5.907 -3.2427 -2.1021 -2.2260
  128OSM   H14C13686   0.676   2.305   6.090 -0.8083  0.2883  0.1614
  128OSM    C1313687   0.543   2.058   5.921  0.3041  0.3989  0.0712
  128OSM   H13A13688   0.572   2.100   5.826 -0.2623  0.5115 -0.0615
  128OSM   H13B13689   0.438   2.082   5.930  0.1297 -0.9915  2.4660
  128OSM   H13C13690   0.557   1.952   5.905 -1.2753 -0.0929  1.6247
  128OSM    C1213691   0.580   2.075   6.165 -0.2408 -0.3502 -0.4571
  128OSM   H12A13692   0.549   1.972   6.162 -0.1771 -0.3810 -0.0263
  128OSM   H12B13693   0.490   2.132   6.186 -0.0977  0.2385 -1.3810
  128OSM    C1113694   0.689   2.101   6.287  0.0431 -0.2978  0.2137
  128OSM   H11A13695   0.629   2.064   6.372 -1.9154 -0.7200 -1.2725
  128OSM   H11B13696   0.704   2.211   6.296  1.1910 -0.3068 -1.1588
  128OSM      P13697   0.920   2.008   6.378 -0.0282  0.1761  0.1664
  128OSM    O1313698   0.981   1.882   6.345 -0.5294  0.3263 -0.5240
  128OSM    O1413699   1.004   2.132   6.382  0.1508 -0.7836  0.1144
  128OSM    O1113700   0.835   1.999   6.507 -0.3134 -0.2662 -0.3902
  128OSM    O1213701   0.810   2.025   6.268  0.3325 -0.2129  0.2508
  128OSM    C1S13702   0.884   1.949   6.635  0.0980  0.2131  0.4489
  128OSM    H1S13703   0.988   1.913   6.628  0.3671  1.1145 -0.4244
  128OSM    H1T13704   0.829   1.859   6.668 -2.2527  0.5510 -2.1349
  128OSM     NF13705   0.907   1.999   6.880 -0.1773  0.8402  0.1629
  128OSM    HNF13706   0.823   1.980   6.930  1.0064  1.1715  2.4425
  128OSM    C2S13707   0.887   2.052   6.746 -0.0915 -0.0939 -0.1814
  128OSM    H2S13708   0.976   2.114   6.723 -0.7050  0.7852 -0.2366
  128OSM    C3S13709   0.761   2.140   6.737  0.2141  0.3162 -0.3586
  128OSM    H3S13710   0.676   2.073   6.757  2.3492 -2.2356  0.8040
  128OSM     O313711   0.725   2.205   6.612 -0.5372  0.7788 -0.3253
  128OSM    HO313712   0.793   2.167   6.556 -0.6076 -0.4412  0.3859
  128OSM    C4S13713   0.765   2.243   6.846 -0.5402 -0.2668 -0.1195
  128OSM    H4S13714   0.692   2.221   6.926 -1.0366  1.5170 -0.0477
  128OSM    C5S13715   0.830   2.361   6.842  0.0961 -0.0514 -0.2689
  128OSM    H5S13716   0.884   2.385   6.750 -0.2347 -1.0674 -0.7415
  128OSM    C6S13717   0.834   2.472   6.948 -0.2323 -0.4786 -0.0386
  128OSM    H6S13718   0.760   2.550   6.921 -1.4031 -1.5441  0.0122
  128OSM    H6T13719   0.936   2.516   6.958 -0.9882  0.9503  1.9300
  128OSM    C7S13720   0.814   2.436   7.097 -0.9354 -0.1869 -0.1687
  128OSM    H7S13721   0.895   2.371   7.137 -1.0576  0.3812  1.0419
  128OSM    H7T13722   0.718   2.384   7.119 -0.3002 -1.1519  0.4194
  128OSM    C8S13723   0.809   2.566   7.182  0.1969  0.3111 -0.5163
  128OSM    H8S13724   0.746   2.641   7.129  0.8311  0.3018 -1.2940
  128OSM    H8T13725   0.913   2.604   7.178  0.1049  0.7689  0.8325
  128OSM    C9S13726   0.774   2.553   7.332 -0.0621  0.9252 -0.6140
  128OSM    H9S13727   0.857   2.499   7.383 -1.3813  0.7008  1.4273
  128OSM    H9T13728   0.684   2.487   7.337  0.6085  0.0003 -0.5884
  128OSM   C10S13729   0.740   2.689   7.396 -1.1849 -0.1874 -0.7158
  128OSM   H10S13730   0.632   2.714   7.396 -0.9638  0.8267 -1.3205
  128OSM   H10T13731   0.796   2.750   7.322  0.6295 -0.8275  0.0656
  128OSM   C11S13732   0.787   2.702   7.540  0.2359  0.6415 -0.1193
  128OSM   H11S13733   0.896   2.719   7.537  0.1737  1.6810  1.6451
  128OSM   H11T13734   0.774   2.603   7.589  0.7003  0.6227 -0.0278
  128OSM   C12S13735   0.739   2.825   7.611  0.0284  0.2676 -0.6298
  128OSM   H12S13736   0.629   2.834   7.607 -0.0093  0.4243  0.5639
  128OSM   H12T13737   0.779   2.917   7.564 -1.5489  1.1634 -0.2941
  128OSM   C13S13738   0.791   2.839   7.756 -0.0177  0.1783 -0.1389
  128OSM   H13S13739   0.758   2.936   7.798  0.5515 -0.4555  1.8759
  128OSM   H13T13740   0.901   2.838   7.742  0.2812  0.0850  1.9089
  128OSM   C14S13741   0.742   2.723   7.843  0.2373 -0.1794 -0.5221
  128OSM   H14S13742   0.769   2.627   7.795 -1.4158 -1.8010  1.5960
  128OSM   H14T13743   0.632   2.741   7.834  0.0576 -0.9313  0.0740
  128OSM   C15S13744   0.794   2.724   7.987  0.5040  0.0214 -0.2564
  128OSM   H15S13745   0.903   2.742   7.979  0.4103  1.4377  1.0664
  128OSM   H15T13746   0.776   2.625   8.035 -0.4349  0.4939  0.4096
  128OSM   C16S13747   0.726   2.823   8.082 -0.1333 -0.5268  0.4733
  128OSM   H16S13748   0.625   2.784   8.104 -0.5794  1.4324  2.1711
  128OSM   H16T13749   0.724   2.923   8.032 -3.5933 -1.2633 -1.1262
  128OSM   C17S13750   0.814   2.832   8.205 -0.1381 -0.2978  0.0913
  128OSM   H17S13751   0.919   2.855   8.181  0.4441 -2.1434  0.6324
  128OSM   H17T13752   0.806   2.732   8.255 -1.1124 -0.7004 -0.8166
  128OSM   C18S13753   0.778   2.945   8.306 -0.0097 -0.1026 -0.2439
  128OSM   H18S13754   0.671   2.946   8.337 -0.2703  1.0074 -1.0863
  128OSM   H18T13755   0.803   3.038   8.251  0.9493 -0.1268  0.1203
  128OSM   H18U13756   0.842   2.953   8.397 -1.3894 -1.5260  0.9115
  128OSM    C1F13757   1.028   1.946   6.901 -0.6852 -0.2741 -0.3687
  128OSM     OF13758   1.122   1.965   6.823  0.0083 -0.2220 -0.4737
  128OSM    C2F13759   1.036   1.862   7.024  0.1379  1.0779  1.2284
  128OSM    H2F13760   1.097   1.775   6.992  0.4818  1.9719 -0.6960
  128OSM    H2G13761   0.938   1.828   7.063  0.3612  0.3350  1.1440
  128OSM    C3F13762   1.119   1.937   7.129  0.0757  0.3032 -0.5612
  128OSM    H3F13763   1.056   2.023   7.160  0.8466 -0.0761  2.3635
  128OSM    H3G13764   1.211   1.982   7.085  0.6551  0.7808  1.0824
  128OSM    C4F13765   1.144   1.868   7.266 -0.0532 -0.1396 -0.3669
  128OSM    H4F13766   1.223   1.923   7.321 -1.1279 -0.1393  1.2430
  128OSM    H4G13767   1.186   1.767   7.244  0.7990 -0.1286  1.1279
  128OSM    C5F13768   1.021   1.860   7.372  0.0654 -0.6048 -0.1612
  128OSM    H5F13769   0.951   1.784   7.330 -1.5501  0.6255  0.2006
  128OSM    H5G13770   0.974   1.960   7.368 -1.0295 -0.9009  2.7943
  128OSM    C6F13771   1.065   1.838   7.514 -0.2971  0.4408  0.2750
  128OSM    H6F13772   1.159   1.890   7.543  0.2328 -0.4867  0.2670
  128OSM    H6G13773   1.082   1.729   7.523 -1.3048  0.1862 -0.6307
  128OSM    C7F13774   0.959   1.875   7.624  0.2709  0.0302 -0.3123
  128OSM    H7F13775   0.865   1.819   7.607 -0.7323  0.5771  2.7898
  128OSM    H7G13776   0.948   1.984   7.610 -0.5380  0.0912  0.6505
  128OSM    C8F13777   1.011   1.837   7.760  0.0843 -0.8255 -0.3762
  128OSM    H8F13778   1.112   1.883   7.764 -0.0888 -0.4632 -0.0725
  128OSM    H8G13779   1.016   1.728   7.780 -1.6810 -0.7416  0.7744
  128OSM    C9F13780   0.940   1.901   7.876  0.4763  0.4957  0.2680
  128OSM    H9F13781   0.835   1.928   7.859  0.5844  0.8756  0.2039
  128OSM   C10F13782   0.994   1.939   7.995 -0.1084 -0.3068  0.2140
  128OSM   H10F13783   0.932   1.985   8.073  0.1956  0.5608 -0.0390
  128OSM   C11F13784   1.139   1.912   8.038 -0.4479 -0.2920  0.4865
  128OSM   H11F13785   1.193   2.009   8.043  1.1476 -0.7846 -3.5011
  128OSM   H11G13786   1.190   1.840   7.970 -0.2883 -0.3205  0.6339
  128OSM   C12F13787   1.147   1.847   8.171  0.4028 -0.1977 -1.0014
  128OSM   H12F13788   1.085   1.754   8.171  0.0591 -0.0131 -2.9845
  128OSM   H12G13789   1.119   1.909   8.258  2.6054 -1.0711  0.3965
  128OSM   C13F13790   1.293   1.820   8.203  0.6230 -0.4699 -0.1590
  128OSM   H13F13791   1.363   1.894   8.159 -0.7059  2.9031  2.9165
  128OSM   H13G13792   1.325   1.715   8.187  1.5444 -0.3648  0.8851
  128OSM   C14F13793   1.326   1.836   8.355  1.2455 -0.5759  0.2595
  128OSM   H14F13794   1.259   1.768   8.412  2.4431 -1.4335  0.6868
  128OSM   H14G13795   1.305   1.936   8.398 -1.9741 -1.5234  1.1608
  128OSM   C15F13796   1.478   1.803   8.378 -0.3365  0.4516 -0.9713
  128OSM   H15F13797   1.540   1.847   8.296 -0.7998 -3.4628 -3.7382
  128OSM   H15G13798   1.499   1.696   8.357 -0.5056  0.1378  0.3644
  128OSM   C16F13799   1.528   1.843   8.517 -1.1424  0.3362  0.3331
  128OSM   H16F13800   1.475   1.793   8.602  0.5404  0.1752  1.3348
  128OSM   H16G13801   1.501   1.951   8.520 -0.5380  0.5297 -0.7442
  128OSM   C17F13802   1.678   1.849   8.539 -0.1533 -0.5641 -0.3611
  128OSM   H17F13803   1.727   1.892   8.448  0.3997  0.7716  0.5367
  128OSM   H17G13804   1.704   1.741   8.549 -2.0731 -1.2150 -1.8496
  128OSM   C18F13805   1.729   1.929   8.652  0.2775  0.0609 -0.4251
  128OSM   H18F13806   1.674   1.913   8.747  1.0556  0.1982  0.0598
  128OSM   H18G13807   1.735   2.033   8.615  2.4970 -0.3745 -1.4963
  128OSM   H18H13808   1.827   1.887   8.684 -0.0228  2.3571  4.3136
  129OSM      N13809   4.416   6.129   6.314  0.1127 -0.1266  0.5438
  129OSM    C1513810   4.564   6.152   6.337 -0.0501  0.3980 -0.3444
  129OSM   H15A13811   4.581   6.134   6.442 -0.5256  0.1969 -0.2998
  129OSM   H15B13812   4.594   6.252   6.309  1.4289  0.0778  0.0227
  129OSM   H15C13813   4.621   6.086   6.274 -1.7547 -0.3677 -1.1456
  129OSM    C1413814   4.391   5.993   6.360 -0.3306  0.4929 -0.3109
  129OSM   H14A13815   4.387   5.999   6.468 -2.0191 -1.0832 -0.2432
  129OSM   H14B13816   4.467   5.921   6.333 -0.9356 -0.6714  0.9498
  129OSM   H14C13817   4.293   5.964   6.325 -0.6674  2.0331 -0.7157
  129OSM    C1313818   4.333   6.232   6.387 -0.0081  0.0703  0.2472
  129OSM   H13A13819   4.336   6.208   6.493  0.0735 -1.0788 -0.0099
  129OSM   H13B13820   4.228   6.227   6.363 -0.3244  2.7703  0.7409
  129OSM   H13C13821   4.364   6.336   6.387 -0.4952  0.2381  1.6461
  129OSM    C1213822   4.386   6.134   6.161  0.4908  0.2920 -0.2697
  129OSM   H12A13823   4.429   6.049   6.110 -0.7781 -0.6171  0.1341
  129OSM   H12B13824   4.430   6.228   6.128 -3.8575  2.3526 -0.8543
  129OSM    C1113825   4.240   6.148   6.118 -0.1899  0.0232  0.8920
  129OSM   H11A13826   4.234   6.169   6.009 -0.3220  3.3971  1.4232
  129OSM   H11B13827   4.197   6.237   6.170  0.3158  1.2999 -0.8008
  129OSM      P13828   4.015   6.029   6.174  0.0009 -0.0019 -0.4001
  129OSM    O1313829   3.954   6.016   6.040 -0.2077  0.3288 -0.0110
  129OSM    O1413830   3.976   5.913   6.261  1.1838 -0.6327 -1.0443
  129OSM    O1113831   3.990   6.167   6.236  0.8457 -0.0063 -0.3482
  129OSM    O1213832   4.174   6.029   6.147  0.0914  0.2849 -0.5942
  129OSM    C1S13833   3.876   6.183   6.323 -0.3053 -0.0725  0.6302
  129OSM    H1S13834   3.843   6.084   6.361 -1.4881 -0.7587 -1.9975
  129OSM    H1T13835   3.796   6.227   6.259  0.2609 -1.6686 -1.2708
  129OSM     NF13836   3.815   6.257   6.538  0.2515  0.0660  0.2487
  129OSM    HNF13837   3.733   6.312   6.547 -1.5150 -2.1335 -1.2170
  129OSM    C2S13838   3.910   6.277   6.432 -0.6366 -0.6381 -0.4595
  129OSM    H2S13839   4.011   6.254   6.473  0.1972  3.1902 -0.0289
  129OSM    C3S13840   3.944   6.423   6.378  0.4176  0.0909 -0.6186
  129OSM    H3S13841   3.851   6.476   6.347  0.7348  0.1934 -1.4309
  129OSM     O313842   4.020   6.426   6.256  0.0252  0.6407 -0.7771
  129OSM    HO313843   4.043   6.333   6.246 -2.0945 -0.2458  1.4889
  129OSM    C4S13844   3.997   6.517   6.488 -0.0452  0.3407 -0.2647
  129OSM    H4S13845   3.927   6.578   6.547  0.7726  1.3894 -0.3519
  129OSM    C5S13846   4.124   6.528   6.524  0.2043  0.2664 -0.4297
  129OSM    H5S13847   4.193   6.455   6.478  0.0713  1.0014 -1.8694
  129OSM    C6S13848   4.172   6.621   6.633  0.6696 -0.6222 -0.2781
  129OSM    H6S13849   4.283   6.612   6.637  0.8151  0.8869 -0.2451
  129OSM    H6T13850   4.123   6.598   6.730  2.4462  2.0173  1.3874
  129OSM    C7S13851   4.154   6.777   6.618 -0.5912  0.1716 -0.0745
  129OSM    H7S13852   4.181   6.835   6.709 -0.6623 -0.7004  0.5147
  129OSM    H7T13853   4.048   6.805   6.598  0.2137  2.3781 -1.6318
  129OSM    C8S13854   4.251   6.830   6.508  0.7021  0.1717  0.7239
  129OSM    H8S13855   4.218   6.787   6.411  0.3786  0.8991  0.5063
  129OSM    H8T13856   4.357   6.804   6.528  0.4370 -0.7278  1.0081
  129OSM    C9S13857   4.236   6.982   6.482 -0.9363 -0.0031  0.1814
  129OSM    H9S13858   4.131   6.996   6.449 -1.1654 -1.6255  0.1505
  129OSM    H9T13859   4.316   7.000   6.406  0.0853 -0.7377  1.0558
  129OSM   C10S13860   4.277   7.079   6.599 -0.4320  0.1399 -0.1300
  129OSM   H10S13861   4.319   7.174   6.558 -1.4642  0.2306 -0.9970
  129OSM   H10T13862   4.363   7.031   6.651 -1.2112 -1.3892 -0.1991
  129OSM   C11S13863   4.157   7.117   6.683 -0.1167 -0.4158 -1.1527
  129OSM   H11S13864   4.098   7.028   6.715  1.6824 -1.4040 -0.4382
  129OSM   H11T13865   4.096   7.179   6.614 -0.1930 -0.8425 -1.4765
  129OSM   C12S13866   4.189   7.205   6.805 -0.2946  0.4343 -0.9570
  129OSM   H12S13867   4.252   7.289   6.768 -0.0752  0.0851 -1.3883
  129OSM   H12T13868   4.259   7.154   6.873  0.6533  1.4769 -1.1297
  129OSM   C13S13869   4.050   7.237   6.871  0.0444 -0.1480 -0.6088
  129OSM   H13S13870   4.013   7.138   6.907 -1.8179  0.3152 -1.1243
  129OSM   H13T13871   3.984   7.287   6.797 -0.9452  1.3178  1.1842
  129OSM   C14S13872   4.077   7.327   6.992 -0.4053 -0.0498  0.4584
  129OSM   H14S13873   3.973   7.359   7.016 -0.8728  0.4949 -2.0453
  129OSM   H14T13874   4.145   7.412   6.969  1.2860 -1.6045 -0.6390
  129OSM   C15S13875   4.124   7.236   7.105 -0.0430  0.0773 -0.7176
  129OSM   H15S13876   4.228   7.198   7.091 -0.1399 -0.8311  0.7814
  129OSM   H15T13877   4.061   7.145   7.109  0.2179 -0.0618  0.9080
  129OSM   C16S13878   4.122   7.308   7.248 -0.3807  0.7357 -0.2061
  129OSM   H16S13879   4.015   7.305   7.277 -0.2670  0.4853  0.1931
  129OSM   H16T13880   4.147   7.412   7.220 -4.3011  1.5674 -1.2595
  129OSM   C17S13881   4.217   7.234   7.353 -0.0478  1.0813 -0.0658
  129OSM   H17S13882   4.206   7.281   7.453  0.6586  2.0975 -0.4484
  129OSM   H17T13883   4.324   7.255   7.331  0.3008 -0.5775 -0.0871
  129OSM   C18S13884   4.199   7.082   7.365  0.0813  0.1906  0.7187
  129OSM   H18S13885   4.096   7.044   7.354  0.6342 -1.5157  1.1394
  129OSM   H18T13886   4.239   7.051   7.464 -1.9862  1.0838  1.8880
  129OSM   H18U13887   4.264   7.040   7.285 -0.1234 -0.6496  0.9822
  129OSM    C1F13888   3.817   6.142   6.610 -0.5136  0.5483 -0.2798
  129OSM     OF13889   3.918   6.073   6.608  0.3016  0.7501  0.4437
  129OSM    C2F13890   3.700   6.113   6.691  0.4824 -0.0390 -0.7820
  129OSM    H2F13891   3.622   6.067   6.626  1.2660 -1.1338 -0.9676
  129OSM    H2G13892   3.668   6.207   6.740 -0.3390 -0.6733 -0.0826
  129OSM    C3F13893   3.727   6.009   6.808 -0.4204 -0.3077  0.2255
  129OSM    H3F13894   3.828   6.017   6.854 -0.3446 -1.8080  0.3967
  129OSM    H3G13895   3.717   5.909   6.760 -1.7951 -0.4216  0.7120
  129OSM    C4F13896   3.624   6.010   6.920 -0.1020  0.6667 -0.0540
  129OSM    H4F13897   3.523   5.993   6.877  0.0204  1.0219 -0.4894
  129OSM    H4G13898   3.612   6.104   6.977  0.0016  0.7834 -0.2232
  129OSM    C5F13899   3.653   5.895   7.015 -0.5184  0.4362 -0.2869
  129OSM    H5F13900   3.758   5.905   7.050 -1.4461  0.4088  2.7168
  129OSM    H5G13901   3.639   5.796   6.966 -2.0317  0.7715 -0.5650
  129OSM    C6F13902   3.571   5.912   7.141  0.6953 -1.2916 -0.6161
  129OSM    H6F13903   3.461   5.905   7.127  0.4800 -2.1708  1.2825
  129OSM    H6G13904   3.592   6.013   7.182  0.7273 -0.9173 -1.5292
  129OSM    C7F13905   3.596   5.801   7.241 -0.1875 -0.0682  0.6283
  129OSM    H7F13906   3.700   5.812   7.279 -0.2694  0.3172  0.7413
  129OSM    H7G13907   3.592   5.703   7.188  1.0574 -0.2750  0.8788
  129OSM    C8F13908   3.509   5.813   7.359  0.2720  0.7132  0.5419
  129OSM    H8F13909   3.407   5.825   7.319 -1.2653 -2.6466  2.9755
  129OSM    H8G13910   3.533   5.906   7.415  2.5103  0.6183 -0.1373
  129OSM    C9F13911   3.523   5.698   7.452 -0.0861  0.0996 -0.2846
  129OSM    H9F13912   3.500   5.603   7.401 -3.6858  0.1065  1.0793
  129OSM   C10F13913   3.578   5.692   7.578  0.4433 -0.1333 -0.5734
  129OSM   H10F13914   3.578   5.595   7.629 -1.1403  0.5633  0.8516
  129OSM   C11F13915   3.636   5.810   7.659  0.0340  0.0065  0.3593
  129OSM   H11F13916   3.626   5.907   7.605  0.8891 -0.1585 -0.1155
  129OSM   H11G13917   3.747   5.806   7.660  0.0940  1.3258  0.0224
  129OSM   C12F13918   3.577   5.840   7.797  0.2777 -0.3890  0.8194
  129OSM   H12F13919   3.469   5.850   7.773  0.6028  0.1473 -0.4855
  129OSM   H12G13920   3.625   5.934   7.833  0.7581 -0.0512 -0.6578
  129OSM   C13F13921   3.600   5.728   7.896  0.0746  0.4978 -0.1628
  129OSM   H13F13922   3.711   5.718   7.901  0.2417  1.7503 -1.0260
  129OSM   H13G13923   3.558   5.632   7.857 -0.1995  1.0218 -1.1969
  129OSM   C14F13924   3.535   5.740   8.038  0.4811 -0.8133  0.3318
  129OSM   H14F13925   3.425   5.752   8.031  0.6686  0.5105 -0.7164
  129OSM   H14G13926   3.574   5.834   8.083 -0.5992 -0.2347  0.0957
  129OSM   C15F13927   3.556   5.625   8.131 -0.3522 -0.1120 -0.0185
  129OSM   H15F13928   3.665   5.621   8.152 -0.1623 -1.7945 -1.1040
  129OSM   H15G13929   3.526   5.529   8.084  0.9805 -0.6244  0.1169
  129OSM   C16F13930   3.492   5.640   8.271 -0.2551 -0.2159  0.1091
  129OSM   H16F13931   3.428   5.553   8.300  2.9304 -2.6518  0.3966
  129OSM   H16G13932   3.433   5.733   8.258  3.0604  1.9150 -0.9013
  129OSM   C17F13933   3.596   5.645   8.382  0.0382 -0.7775 -0.0348
  129OSM   H17F13934   3.540   5.661   8.476  0.1278  0.8220 -0.2237
  129OSM   H17G13935   3.663   5.732   8.362  1.3133 -1.3895  1.3883
  129OSM   C18F13936   3.685   5.525   8.397 -0.4958  0.2258 -0.6211
  129OSM   H18F13937   3.726   5.518   8.500  1.5481  0.5002 -1.3844
  129OSM   H18G13938   3.771   5.527   8.328  0.6869  0.7114  0.8176
  129OSM   H18H13939   3.624   5.433   8.381  0.3516 -0.0712 -2.3170
  130OSM      N13940   2.234   1.346   6.096  0.9340 -0.4724  0.6412
  130OSM    C1513941   2.344   1.259   6.142 -1.2817  0.0600  0.2790
  130OSM   H15A13942   2.362   1.175   6.076  2.0050  0.2530  0.7897
  130OSM   H15B13943   2.322   1.233   6.245  0.7901 -1.5629  0.3838
  130OSM   H15C13944   2.437   1.313   6.143 -0.3458 -1.4284 -0.8678
  130OSM    C1413945   2.278   1.434   5.988  0.2059 -0.0040  0.4135
  130OSM   H14A13946   2.206   1.488   5.929  0.8110 -0.9919 -1.3167
  130OSM   H14B13947   2.325   1.377   5.909 -0.8993  0.1270 -0.3664
  130OSM   H14C13948   2.354   1.505   6.015 -0.7416  1.4914 -0.6950
  130OSM    C1313949   2.113   1.266   6.051 -1.0680 -0.0989  0.3337
  130OSM   H13A13950   2.032   1.333   6.029 -0.4534  0.5673  0.0941
  130OSM   H13B13951   2.087   1.192   6.126  0.2651 -1.4047 -0.4266
  130OSM   H13C13952   2.138   1.212   5.961 -1.8837  1.6848 -1.0104
  130OSM    C1213953   2.189   1.422   6.220  0.2966 -0.1039  0.2346
  130OSM   H12A13954   2.108   1.489   6.194  2.1543  2.5807  0.8940
  130OSM   H12B13955   2.270   1.487   6.251  0.2755  0.1374 -0.2051
  130OSM    C1113956   2.136   1.340   6.342 -0.6137  0.7344  0.4550
  130OSM   H11A13957   2.147   1.403   6.433 -1.6815 -0.3318  1.3593
  130OSM   H11B13958   2.201   1.250   6.349  2.1661  2.6380  1.2803
  130OSM      P13959   1.926   1.178   6.362  0.1705  0.2329 -0.2593
  130OSM    O1313960   1.781   1.207   6.370  0.1069  0.1474  0.2211
  130OSM    O1413961   1.959   1.067   6.271 -0.3470 -0.6203  0.3978
  130OSM    O1113962   1.994   1.160   6.501  0.6433  0.4049  0.3290
  130OSM    O1213963   1.997   1.310   6.315 -0.1348 -0.3214 -0.5879
  130OSM    C1S13964   1.930   1.212   6.616 -0.1592  0.0256 -1.0422
  130OSM    H1S13965   1.825   1.176   6.619  0.8142 -3.1036 -1.0134
  130OSM    H1T13966   1.938   1.322   6.622  0.0833 -0.0390  0.0014
  130OSM     NF13967   1.912   1.214   6.865  0.1654  0.2097 -0.2304
  130OSM    HNF13968   1.925   1.307   6.898  4.1367 -0.4978  0.6369
  130OSM    C2S13969   1.994   1.168   6.747 -0.2294 -0.6475 -0.6324
  130OSM    H2S13970   1.990   1.057   6.746  3.0849 -0.8662 -0.3263
  130OSM    C3S13971   2.151   1.200   6.747  0.1846 -0.2982 -0.0320
  130OSM    H3S13972   2.178   1.307   6.749 -0.4245 -0.1500  0.6390
  130OSM     O313973   2.207   1.144   6.628 -0.3458 -0.1590  0.1348
  130OSM    HO313974   2.143   1.142   6.556  0.6293  1.9017 -0.8909
  130OSM    C4S13975   2.221   1.126   6.860 -0.5266  0.2233 -0.5077
  130OSM    H4S13976   2.276   1.036   6.829 -0.4994  0.9209 -2.6528
  130OSM    C5S13977   2.245   1.174   6.984 -0.4436 -0.5025  0.3655
  130OSM    H5S13978   2.240   1.283   6.996  0.8476 -0.4306  0.4339
  130OSM    C6S13979   2.320   1.102   7.096 -0.0669 -0.3423  0.1904
  130OSM    H6S13980   2.390   1.179   7.138  0.7938 -0.1132 -1.5702
  130OSM    H6T13981   2.372   1.010   7.063 -3.4547 -1.5522 -2.3056
  130OSM    C7S13982   2.225   1.067   7.213 -0.0340  0.4856  0.4548
  130OSM    H7S13983   2.143   0.998   7.185  1.0127 -0.2395 -0.9404
  130OSM    H7T13984   2.173   1.153   7.261 -2.3750 -1.2882  1.3056
  130OSM    C8S13985   2.314   0.996   7.314  0.0350 -0.4000 -0.0956
  130OSM    H8S13986   2.387   1.073   7.347  0.5051  0.4957 -2.9784
  130OSM    H8T13987   2.363   0.911   7.264  3.2353  0.9198  0.5377
  130OSM    C9S13988   2.223   0.964   7.435 -0.2896  0.6241 -0.7158
  130OSM    H9S13989   2.270   0.884   7.497  0.2584  0.9391 -0.7260
  130OSM    H9T13990   2.124   0.924   7.403 -0.9906  1.8056 -0.0870
  130OSM   C10S13991   2.193   1.087   7.519 -0.5011 -0.1652  0.5382
  130OSM   H10S13992   2.135   1.162   7.461  0.9675  1.1405  0.7146
  130OSM   H10T13993   2.292   1.132   7.541  0.1343  0.9559 -3.7024
  130OSM   C11S13994   2.127   1.054   7.656  0.3362 -0.6526 -0.1750
  130OSM   H11S13995   2.157   0.953   7.690  1.7962 -0.3410 -0.4851
  130OSM   H11T13996   2.018   1.072   7.647  0.3989  0.1199  0.4130
  130OSM   C12S13997   2.176   1.154   7.766 -0.4030  0.5324 -0.1029
  130OSM   H12S13998   2.168   1.259   7.731 -1.7814  0.0089 -1.4581
  130OSM   H12T13999   2.282   1.127   7.784 -0.3750 -0.3146 -1.4258
  130OSM   C13S14000   2.113   1.145   7.907  0.3461  0.7264  0.9022
  130OSM   H13S14001   2.138   1.045   7.949 -1.8465  0.4678  1.7462
  130OSM   H13T14002   2.002   1.140   7.897  0.0545 -1.9521  3.8008
  130OSM   C14S14003   2.143   1.251   8.010 -0.0789  0.1190 -0.7633
  130OSM   H14S14004   2.102   1.350   7.981  0.6585  0.2511 -1.3635
  130OSM   H14T14005   2.253   1.258   8.016  0.0138 -1.9163  1.2405
  130OSM   C15S14006   2.093   1.213   8.142 -0.2053  0.0218 -0.1740
  130OSM   H15S14007   1.982   1.212   8.131 -0.3163 -0.9711  0.7889
  130OSM   H15T14008   2.133   1.289   8.212  3.6000 -2.8800  1.1864
  130OSM   C16S14009   2.134   1.067   8.194 -0.1351 -0.5985 -0.7727
  130OSM   H16S14010   2.245   1.059   8.182  0.1374 -1.3018  1.6837
  130OSM   H16T14011   2.074   0.991   8.139 -0.1144 -1.5609  0.4937
  130OSM   C17S14012   2.110   1.071   8.347  0.0351 -0.7466  0.5532
  130OSM   H17S14013   2.140   0.967   8.372  0.7669 -0.2522  1.8794
  130OSM   H17T14014   2.000   1.068   8.361  0.1581  0.5815  2.1784
  130OSM   C18S14015   2.190   1.161   8.429  0.1824 -0.3414 -0.1456
  130OSM   H18S14016   2.296   1.176   8.400  0.1528  0.8949  0.3241
  130OSM   H18T14017   2.185   1.135   8.537  0.6727 -1.7376 -0.4452
  130OSM   H18U14018   2.138   1.259   8.438  3.5388  1.5717  0.2109
  130OSM    C1F14019   1.800   1.163   6.899 -0.2730 -0.6662  0.0645
  130OSM     OF14020   1.744   1.083   6.836 -0.5655 -0.0385 -0.3383
  130OSM    C2F14021   1.743   1.216   7.025 -0.2775 -0.7920 -0.0848
  130OSM    H2F14022   1.642   1.257   7.002 -0.4536 -1.8396 -1.2601
  130OSM    H2G14023   1.812   1.294   7.063 -0.5744 -1.3831  1.7553
  130OSM    C3F14024   1.720   1.122   7.146 -0.4594  0.4930  0.0251
  130OSM    H3F14025   1.817   1.069   7.160  1.5781  3.7231 -0.6927
  130OSM    H3G14026   1.645   1.054   7.099 -0.7097  1.1462 -0.5370
  130OSM    C4F14027   1.670   1.183   7.280  0.0336 -0.5731  0.4262
  130OSM    H4F14028   1.602   1.115   7.334 -1.0018 -0.3415 -0.5571
  130OSM    H4G14029   1.609   1.275   7.267  0.4915 -0.4671 -1.2473
  130OSM    C5F14030   1.782   1.223   7.375 -0.6238  0.7571 -0.4984
  130OSM    H5F14031   1.830   1.303   7.314 -0.6299  0.3769 -1.0134
  130OSM    H5G14032   1.860   1.145   7.384 -2.5308 -1.1528  0.3492
  130OSM    C6F14033   1.746   1.286   7.511  0.1470  0.0235 -0.0209
  130OSM    H6F14034   1.660   1.357   7.518 -0.3402 -0.4185 -1.2208
  130OSM    H6G14035   1.833   1.342   7.551 -1.1455  2.3169 -0.1918
  130OSM    C7F14036   1.708   1.183   7.614 -0.1670 -0.9368 -0.4159
  130OSM    H7F14037   1.796   1.117   7.631 -1.1525 -2.2726 -0.2496
  130OSM    H7G14038   1.634   1.116   7.565 -1.8913 -0.2622  1.1559
  130OSM    C8F14039   1.644   1.241   7.743 -0.5369  0.0621 -0.3163
  130OSM    H8F14040   1.577   1.162   7.783 -2.1798  1.4546 -0.1667
  130OSM    H8G14041   1.587   1.330   7.709  0.4009  0.8846  0.1907
  130OSM    C9F14042   1.742   1.304   7.830  0.3259  0.1606 -0.2853
  130OSM    H9F14043   1.848   1.283   7.810  0.4127 -1.8289  1.8372
  130OSM   C10F14044   1.710   1.373   7.939  0.9989  0.9043 -0.6467
  130OSM   H10F14045   1.792   1.406   8.004  2.0265 -1.4887 -0.6162
  130OSM   C11F14046   1.573   1.399   7.996  1.0341 -0.0292  0.0848
  130OSM   H11F14047   1.498   1.348   7.931  0.4313 -0.6663  1.2323
  130OSM   H11G14048   1.544   1.505   7.983 -1.1342 -0.1805  2.7171
  130OSM   C12F14049   1.534   1.361   8.144 -0.3982 -0.1572  0.4594
  130OSM   H12F14050   1.561   1.446   8.210 -1.1860 -0.6227  1.4014
  130OSM   H12G14051   1.584   1.266   8.174 -0.0974 -0.0728  0.2299
  130OSM   C13F14052   1.386   1.332   8.162  1.0757  0.3158  0.4074
  130OSM   H13F14053   1.370   1.243   8.097  2.4752  1.8656 -2.2099
  130OSM   H13G14054   1.315   1.412   8.129 -1.0880 -0.7377  2.2122
  130OSM   C14F14055   1.341   1.301   8.309 -0.5487 -0.5464  0.2979
  130OSM   H14F14056   1.418   1.230   8.346 -0.2116 -0.3130  0.0500
  130OSM   H14G14057   1.247   1.242   8.307 -1.2082  0.5086 -0.5674
  130OSM   C15F14058   1.308   1.420   8.400  0.1613 -0.3809 -0.1641
  130OSM   H15F14059   1.217   1.476   8.369 -0.6283 -2.2338 -1.3523
  130OSM   H15G14060   1.394   1.489   8.414  0.8652 -1.3065  0.2075
  130OSM   C16F14061   1.271   1.372   8.538  0.2496  0.0699  0.4764
  130OSM   H16F14062   1.365   1.327   8.578  0.0898 -1.4118 -0.7037
  130OSM   H16G14063   1.198   1.289   8.525  0.0648  0.5449 -2.0410
  130OSM   C17F14064   1.218   1.485   8.629 -0.1962 -0.2643  0.6603
  130OSM   H17F14065   1.137   1.435   8.687 -0.2236  1.3287  2.0695
  130OSM   H17G14066   1.171   1.571   8.578 -2.1566 -1.0934  0.9878
  130OSM   C18F14067   1.308   1.532   8.741  0.3717  0.2051 -0.1488
  130OSM   H18F14068   1.234   1.591   8.800  0.3624  1.7504 -1.6088
  130OSM   H18G14069   1.392   1.596   8.705  1.4700 -0.7622  0.6489
  130OSM   H18H14070   1.349   1.458   8.812  0.6726  0.7381  0.2385
  131OSM      N14071   3.638   5.434   6.211 -0.2762  1.1251  0.3421
  131OSM    C1514072   3.489   5.411   6.197 -0.0056 -0.5331 -0.1505
  131OSM   H15A14073   3.450   5.441   6.101 -3.6455  0.0574  1.3751
  131OSM   H15B14074   3.431   5.470   6.266 -1.0901  0.0542 -1.5181
  131OSM   H15C14075   3.459   5.309   6.215 -0.3513 -0.2314  1.0279
  131OSM    C1414076   3.654   5.572   6.167 -1.0136  0.0513 -0.1373
  131OSM   H14A14077   3.759   5.595   6.175 -0.9830 -0.2583  0.3823
  131OSM   H14B14078   3.584   5.634   6.221  3.0169  2.7377  2.5815
  131OSM   H14C14079   3.626   5.590   6.064  3.4632  0.5056 -1.4940
  131OSM    C1314080   3.674   5.419   6.360 -0.3001 -0.5973  0.1025
  131OSM   H13A14081   3.782   5.422   6.367 -0.1140 -1.8413 -1.4638
  131OSM   H13B14082   3.659   5.316   6.391  2.1479 -0.5877  1.5069
  131OSM   H13C14083   3.629   5.491   6.426 -0.3970  0.2544 -0.8552
  131OSM    C1214084   3.704   5.332   6.120 -0.4442 -0.3168  0.0005
  131OSM   H12A14085   3.811   5.328   6.139 -0.6019  0.5848  1.1813
  131OSM   H12B14086   3.695   5.358   6.015 -1.0907  0.5859  0.2692
  131OSM    C1114087   3.657   5.180   6.119  0.1435  0.7190 -0.1075
  131OSM   H11A14088   3.711   5.133   6.034 -2.4294 -1.7255 -0.5302
  131OSM   H11B14089   3.549   5.174   6.091  0.5587 -0.8132 -1.5178
  131OSM      P14090   3.821   5.084   6.299  0.0136  0.0817 -0.1775
  131OSM    O1314091   3.811   4.938   6.292 -0.5171  0.5747 -0.7362
  131OSM    O1414092   3.919   5.152   6.215  0.3729 -0.0813  0.4241
  131OSM    O1114093   3.830   5.142   6.445 -0.9757  0.2781 -0.0461
  131OSM    O1214094   3.681   5.119   6.247  0.2740  0.6464  0.1360
  131OSM    C1S14095   3.730   5.102   6.543 -0.2479  0.4105  0.0375
  131OSM    H1S14096   3.708   4.993   6.533  2.6123 -0.1754 -0.8030
  131OSM    H1T14097   3.635   5.151   6.515  0.5380  2.0097  0.0606
  131OSM     NF14098   3.659   5.062   6.772 -0.2740 -0.0109  0.4216
  131OSM    HNF14099   3.573   5.107   6.794 -0.9641 -1.8715  1.7588
  131OSM    C2S14100   3.764   5.130   6.690  0.0134  0.5264 -0.4895
  131OSM    H2S14101   3.868   5.095   6.711  0.0952  0.2229 -1.3745
  131OSM    C3S14102   3.771   5.287   6.707  0.3782 -0.0896  0.2211
  131OSM    H3S14103   3.679   5.337   6.670  0.7918 -1.6266 -3.3503
  131OSM     O314104   3.883   5.328   6.640 -0.2434  0.2123 -0.0477
  131OSM    HO314105   3.917   5.256   6.586 -3.4698 -0.7492 -1.0325
  131OSM    C4S14106   3.788   5.323   6.845 -0.2170  0.4733 -0.0247
  131OSM    H4S14107   3.876   5.276   6.891 -0.8571 -1.0764 -0.3362
  131OSM    C5S14108   3.688   5.374   6.924  0.1715  0.1934 -0.3000
  131OSM    H5S14109   3.584   5.376   6.890 -0.6965  2.4160  2.1072
  131OSM    C6S14110   3.703   5.423   7.062  0.1054  0.1277 -0.2787
  131OSM    H6S14111   3.611   5.481   7.085  0.4806  0.8068 -0.4584
  131OSM    H6T14112   3.788   5.494   7.076 -0.0034  0.1006  0.5755
  131OSM    C7S14113   3.702   5.307   7.173 -0.4058 -0.2930  0.5145
  131OSM    H7S14114   3.809   5.278   7.181 -0.0217  0.5015 -1.3617
  131OSM    H7T14115   3.645   5.215   7.147  0.2954 -0.5255 -0.2330
  131OSM    C8S14116   3.658   5.363   7.311 -0.1629  0.2992 -0.3242
  131OSM    H8S14117   3.549   5.383   7.304 -0.3450 -0.7476 -0.5270
  131OSM    H8T14118   3.717   5.452   7.342  1.3897 -0.1006 -1.9808
  131OSM    C9S14119   3.684   5.268   7.435 -0.3688  0.5782 -0.4572
  131OSM    H9S14120   3.784   5.219   7.430 -0.8926 -0.4280 -1.4468
  131OSM    H9T14121   3.623   5.176   7.426 -0.3776  0.0342  3.4715
  131OSM   C10S14122   3.663   5.335   7.577  0.2451 -0.0290  0.1348
  131OSM   H10S14123   3.557   5.361   7.594  0.8772  2.6775  0.4253
  131OSM   H10T14124   3.713   5.434   7.577 -1.1150  0.8037 -3.1528
  131OSM   C11S14125   3.704   5.238   7.684 -0.2766  0.1390  0.2990
  131OSM   H11S14126   3.813   5.217   7.686 -0.3357 -0.1312  1.6720
  131OSM   H11T14127   3.649   5.143   7.666  0.5346 -0.4910  1.0708
  131OSM   C12S14128   3.665   5.299   7.821  0.7106 -0.9011  0.1690
  131OSM   H12S14129   3.555   5.313   7.815  0.6833 -1.6750 -2.2441
  131OSM   H12T14130   3.704   5.403   7.824 -1.8402  0.1440  0.2171
  131OSM   C13S14131   3.719   5.219   7.932  0.1355  0.3580 -0.1211
  131OSM   H13S14132   3.830   5.214   7.933  0.1260 -1.4416 -2.0626
  131OSM   H13T14133   3.677   5.117   7.930  1.5884 -0.3873  2.3199
  131OSM   C14S14134   3.676   5.281   8.064 -0.6708 -0.3741  0.0773
  131OSM   H14S14135   3.565   5.291   8.061 -0.5047  1.5154 -1.6164
  131OSM   H14T14136   3.725   5.378   8.085  0.4149 -1.3304  2.3687
  131OSM   C15S14137   3.713   5.201   8.191  0.0343 -0.0051 -0.1456
  131OSM   H15S14138   3.655   5.106   8.181 -0.0065 -0.1114  0.9696
  131OSM   H15T14139   3.683   5.243   8.289  0.9275  0.5270 -0.0952
  131OSM   C16S14140   3.863   5.144   8.194 -0.4932  0.3394  0.0428
  131OSM   H16S14141   3.944   5.219   8.183  0.5794 -0.5965  1.1857
  131OSM   H16T14142   3.881   5.075   8.109 -0.1602 -1.4603  1.5010
  131OSM   C17S14143   3.898   5.094   8.337 -0.5181 -0.2100 -0.0797
  131OSM   H17S14144   3.877   5.181   8.402 -2.7343 -1.9089  1.6398
  131OSM   H17T14145   4.007   5.072   8.340 -0.4047 -0.8792 -3.7800
  131OSM   C18S14146   3.830   4.975   8.392 -0.3645  0.6625  0.2509
  131OSM   H18S14147   3.725   5.001   8.421 -0.8873 -0.6858 -0.3575
  131OSM   H18T14148   3.875   4.930   8.483  0.1501  1.7496  0.5512
  131OSM   H18U14149   3.819   4.898   8.313  0.8253 -2.2640  2.7630
  131OSM    C1F14150   3.658   4.936   6.804  0.1174 -0.1381 -0.0402
  131OSM     OF14151   3.751   4.866   6.767 -0.3466 -0.7536 -0.5549
  131OSM    C2F14152   3.539   4.880   6.867  0.6072 -0.0992  0.1767
  131OSM    H2F14153   3.508   4.798   6.800  1.4080 -0.0166 -0.3148
  131OSM    H2G14154   3.463   4.961   6.872 -0.1127 -0.7572 -0.0184
  131OSM    C3F14155   3.565   4.816   7.001  0.2336  0.2871 -0.1225
  131OSM    H3F14156   3.629   4.725   6.997 -0.4670 -0.2608  0.8182
  131OSM    H3G14157   3.464   4.801   7.044 -0.4994 -0.0080 -1.8547
  131OSM    C4F14158   3.648   4.905   7.097 -0.2473  0.0626  0.8172
  131OSM    H4F14159   3.593   4.999   7.120 -0.7111 -0.1545  0.6296
  131OSM    H4G14160   3.744   4.927   7.045 -0.3425 -1.5057 -0.1048
  131OSM    C5F14161   3.690   4.836   7.222 -0.7890  0.5522 -0.0863
  131OSM    H5F14162   3.756   4.902   7.282 -1.7322  0.1523  1.4221
  131OSM    H5G14163   3.734   4.736   7.201 -1.9313 -0.0739  0.4372
  131OSM    C6F14164   3.575   4.815   7.321 -0.2425  0.4676  0.7019
  131OSM    H6F14165   3.512   4.733   7.281 -1.9820  2.0242  0.1066
  131OSM    H6G14166   3.507   4.902   7.309 -0.6945  0.1414  0.8508
  131OSM    C7F14167   3.609   4.776   7.468  0.3988 -0.4969  0.2041
  131OSM    H7F14168   3.671   4.856   7.514 -0.5838  0.1576  0.4431
  131OSM    H7G14169   3.669   4.684   7.467  0.7090 -0.2927 -0.7798
  131OSM    C8F14170   3.494   4.732   7.557  0.7648  0.6710 -0.1726
  131OSM    H8F14171   3.528   4.694   7.656  0.2704  1.9084  0.4899
  131OSM    H8G14172   3.441   4.641   7.520 -0.0433  0.3840  1.5716
  131OSM    C9F14173   3.403   4.850   7.589  0.1549  0.2320  0.3977
  131OSM    H9F14174   3.353   4.893   7.501  0.4046  0.2659  0.2716
  131OSM   C10F14175   3.365   4.883   7.711 -0.2170 -0.7134  0.3592
  131OSM   H10F14176   3.297   4.969   7.722 -0.0981 -0.3999 -1.0634
  131OSM   C11F14177   3.412   4.823   7.839 -0.2041 -0.1817  0.1625
  131OSM   H11F14178   3.428   4.713   7.831 -2.4477 -0.6763  1.3226
  131OSM   H11G14179   3.334   4.832   7.918 -1.7963 -1.2449 -1.2202
  131OSM   C12F14180   3.540   4.894   7.894  0.3637  0.9084  0.2281
  131OSM   H12F14181   3.508   4.998   7.914 -4.1512 -0.0087 -1.1285
  131OSM   H12G14182   3.619   4.901   7.817  1.3256  1.3590  1.2264
  131OSM   C13F14183   3.603   4.834   8.021  1.2337  0.1355 -0.4991
  131OSM   H13F14184   3.542   4.841   8.113  3.8859 -1.1570  1.4829
  131OSM   H13G14185   3.683   4.906   8.048  0.8011  0.7670 -0.8614
  131OSM   C14F14186   3.652   4.685   8.017  0.1450  0.4050  0.3564
  131OSM   H14F14187   3.708   4.659   7.924  0.7257  1.3457  0.4318
  131OSM   H14G14188   3.558   4.626   8.007  2.1863 -3.2376  0.8631
  131OSM   C15F14189   3.726   4.636   8.141 -0.0848  0.1957  0.1448
  131OSM   H15F14190   3.826   4.684   8.144  1.3389 -2.5816  1.8826
  131OSM   H15G14191   3.736   4.525   8.143 -1.4707  0.0663  0.9973
  131OSM   C16F14192   3.661   4.667   8.281  0.7459  0.7999 -0.3520
  131OSM   H16F14193   3.571   4.602   8.292  1.0829 -0.0709 -2.2647
  131OSM   H16G14194   3.633   4.774   8.287 -0.9718  0.5127 -2.0807
  131OSM   C17F14195   3.757   4.630   8.399  0.0721  0.2493  0.2664
  131OSM   H17F14196   3.843   4.699   8.409 -0.6406  0.9876  1.7935
  131OSM   H17G14197   3.794   4.526   8.390  1.3785  0.7469 -0.3262
  131OSM   C18F14198   3.691   4.638   8.539  0.3591  0.6741  0.1711
  131OSM   H18F14199   3.599   4.577   8.527  1.6312 -1.4443  0.7339
  131OSM   H18G14200   3.657   4.738   8.575  0.5279  0.1265  1.9423
  131OSM   H18H14201   3.757   4.600   8.619  1.9269  3.1825  0.1855
  132OSM      N14202   6.166   5.590   6.265 -1.1061  0.5082  0.2051
  132OSM    C1514203   6.051   5.540   6.192  0.0499 -0.2236 -0.4731
  132OSM   H15A14204   6.038   5.600   6.103 -1.5396 -0.4507 -0.4198
  132OSM   H15B14205   5.964   5.562   6.252  0.1894  1.9254 -0.9672
  132OSM   H15C14206   6.068   5.435   6.174  1.3486 -0.5796  2.3146
  132OSM    C1414207   6.179   5.500   6.391  0.2153 -0.1116 -0.6492
  132OSM   H14A14208   6.089   5.490   6.449  1.4116  0.9269  1.5204
  132OSM   H14B14209   6.253   5.536   6.461  0.1351 -0.1856 -0.5272
  132OSM   H14C14210   6.206   5.399   6.364 -1.5602 -1.4966  2.2925
  132OSM    C1314211   6.282   5.568   6.168  0.7726 -0.5818 -0.4545
  132OSM   H13A14212   6.282   5.475   6.112  1.0230 -1.9142  1.6372
  132OSM   H13B14213   6.373   5.580   6.226 -0.6861  0.6023  1.6974
  132OSM   H13C14214   6.290   5.659   6.112  1.2727  0.7681  1.6754
  132OSM    C1214215   6.151   5.737   6.290 -0.3008 -0.0727  0.0528
  132OSM   H12A14216   6.151   5.788   6.196 -2.0200  3.0695  1.6179
  132OSM   H12B14217   6.242   5.766   6.341 -1.2371  1.8271  0.7161
  132OSM    C1114218   6.026   5.779   6.382 -0.6450 -0.0991 -0.0312
  132OSM   H11A14219   6.037   5.888   6.398 -3.2815  0.1282  0.7216
  132OSM   H11B14220   6.042   5.733   6.482  0.9896  0.1185 -0.1629
  132OSM      P14221   5.820   5.857   6.253  0.5840 -0.4849  0.0025
  132OSM    O1314222   5.900   5.912   6.145  0.0533  0.1729  0.3005
  132OSM    O1414223   5.685   5.811   6.215 -0.1342  0.0975 -0.3534
  132OSM    O1114224   5.809   5.975   6.357 -0.0189 -0.2031  0.2435
  132OSM    O1214225   5.903   5.742   6.324 -0.4873  0.0725  0.7801
  132OSM    C1S14226   5.777   5.951   6.495 -0.1996 -0.2854  0.2206
  132OSM    H1S14227   5.855   5.890   6.545 -0.2447  0.8963  1.7877
  132OSM    H1T14228   5.675   5.916   6.523 -0.1492 -0.4196  0.2406
  132OSM     NF14229   5.758   6.080   6.710 -1.1807  0.0700  0.1776
  132OSM    HNF14230   5.669   6.108   6.745 -0.9465 -1.1379  1.8491
  132OSM    C2S14231   5.768   6.093   6.567  0.0250  0.3924 -0.6335
  132OSM    H2S14232   5.865   6.140   6.541  0.7303 -0.0109  1.1685
  132OSM    C3S14233   5.653   6.170   6.503 -0.1352 -0.4861  0.3263
  132OSM    H3S14234   5.560   6.119   6.536  1.4339 -1.9221  2.9055
  132OSM     O314235   5.649   6.170   6.362 -0.1497 -0.6696 -0.5334
  132OSM    HO314236   5.721   6.108   6.346 -0.1224 -0.5931 -0.7106
  132OSM    C4S14237   5.663   6.306   6.558 -0.5609 -0.4600 -0.0126
  132OSM    H4S14238   5.578   6.335   6.622 -0.5805  1.0826 -0.7074
  132OSM    C5S14239   5.747   6.411   6.527 -0.6575 -0.2379  0.5198
  132OSM    H5S14240   5.820   6.390   6.448 -0.9674 -0.7810  0.3788
  132OSM    C6S14241   5.747   6.554   6.569  0.1147 -0.3475  0.2570
  132OSM    H6S14242   5.745   6.618   6.478  2.5605  1.2163  1.2065
  132OSM    H6T14243   5.846   6.582   6.610  0.2195 -1.4799  0.8118
  132OSM    C7S14244   5.639   6.586   6.674  0.5132 -0.7074 -0.9631
  132OSM    H7S14245   5.651   6.529   6.769 -3.9806 -0.8658 -0.3049
  132OSM    H7T14246   5.548   6.549   6.623 -1.2797 -1.7409  2.6652
  132OSM    C8S14247   5.630   6.732   6.718  0.3595 -0.2505 -0.1164
  132OSM    H8S14248   5.607   6.799   6.633 -4.8544  0.6274  1.6093
  132OSM    H8T14249   5.722   6.762   6.773  0.8666 -2.3568  0.2707
  132OSM    C9S14250   5.516   6.745   6.813 -0.1370  0.2724  0.1302
  132OSM    H9S14251   5.526   6.701   6.914  0.0510  0.5356  0.2276
  132OSM    H9T14252   5.421   6.715   6.763 -0.2683  1.8640 -0.6601
  132OSM   C10S14253   5.499   6.892   6.832 -0.7753  0.4980 -0.4107
  132OSM   H10S14254   5.493   6.937   6.730 -3.7666 -3.9567 -2.5779
  132OSM   H10T14255   5.585   6.940   6.882 -0.7249  0.2425 -0.2494
  132OSM   C11S14256   5.381   6.926   6.927 -0.0861 -0.1914 -0.1798
  132OSM   H11S14257   5.291   6.870   6.894 -0.0387 -0.9755  0.9392
  132OSM   H11T14258   5.359   7.033   6.907 -3.6806 -0.8231 -0.3272
  132OSM   C12S14259   5.408   6.904   7.072  0.1590  0.0110  0.1140
  132OSM   H12S14260   5.471   6.812   7.079 -2.1897 -1.6895 -0.0619
  132OSM   H12T14261   5.314   6.894   7.129  1.3326 -0.0407  2.1587
  132OSM   C13S14262   5.497   7.023   7.133 -0.2881 -0.0317 -0.3933
  132OSM   H13S14263   5.434   7.112   7.109 -1.1843 -1.1990 -2.7276
  132OSM   H13T14264   5.595   7.017   7.081  0.7460 -0.6704  1.5656
  132OSM   C14S14265   5.527   7.002   7.286 -0.0668 -0.2306  0.3100
  132OSM   H14S14266   5.580   7.089   7.329  0.6009  0.2200 -1.3644
  132OSM   H14T14267   5.599   6.918   7.286  0.3039  0.0617 -0.9912
  132OSM   C15S14268   5.403   6.999   7.378 -0.0933  0.1677 -0.5490
  132OSM   H15S14269   5.360   6.897   7.372 -1.1155  0.4625  1.2137
  132OSM   H15T14270   5.335   7.075   7.334  0.0077  0.3690 -0.3639
  132OSM   C16S14271   5.427   7.037   7.521 -0.1783 -0.0324 -0.8457
  132OSM   H16S14272   5.457   7.144   7.530  0.2999 -0.1032 -1.5182
  132OSM   H16T14273   5.506   6.969   7.560 -0.9602 -0.0267  0.8561
  132OSM   C17S14274   5.306   7.017   7.610 -0.8490  0.9084 -0.8232
  132OSM   H17S14275   5.259   6.918   7.594 -1.3539  1.0227 -0.1462
  132OSM   H17T14276   5.226   7.089   7.582  0.6127  2.1780 -1.8869
  132OSM   C18S14277   5.347   7.032   7.758  0.3388 -0.1573 -0.6780
  132OSM   H18S14278   5.393   7.129   7.787  0.0697 -0.1760 -0.1614
  132OSM   H18T14279   5.424   6.959   7.789  0.7310 -0.9505 -3.3464
  132OSM   H18U14280   5.259   7.021   7.826  1.1810 -2.4460  0.1077
  132OSM    C1F14281   5.865   6.056   6.780 -0.1370  0.7822 -0.7120
  132OSM     OF14282   5.975   6.042   6.727  0.1371  0.3765 -0.5924
  132OSM    C2F14283   5.864   6.083   6.928 -0.0901 -0.6188  0.2300
  132OSM    H2F14284   5.758   6.090   6.961  0.5702  2.5146  1.9981
  132OSM    H2G14285   5.909   6.184   6.937 -1.4712  0.0433 -0.1014
  132OSM    C3F14286   5.934   5.976   7.006 -0.1918  0.3444  0.2791
  132OSM    H3F14287   6.031   5.942   6.965  0.7015  0.7809  1.9477
  132OSM    H3G14288   5.874   5.882   7.008  1.4195 -0.7234  2.3588
  132OSM    C4F14289   5.954   6.013   7.149  0.1099  0.0061  0.5132
  132OSM    H4F14290   6.017   6.103   7.164 -0.9424  0.9960 -0.7223
  132OSM    H4G14291   6.002   5.929   7.204  0.9016  0.6808  0.8663
  132OSM    C5F14292   5.820   6.044   7.219  0.0948 -0.2704 -0.0114
  132OSM    H5F14293   5.754   5.958   7.200  0.6511 -0.7388  0.1563
  132OSM    H5G14294   5.764   6.129   7.174  0.7780  0.2925  0.1670
  132OSM    C6F14295   5.826   6.059   7.373  0.0446 -0.4433  0.5613
  132OSM    H6F14296   5.900   6.139   7.393 -2.0816  1.7980  0.0738
  132OSM    H6G14297   5.858   5.960   7.410 -0.3959 -1.8355 -2.4465
  132OSM    C7F14298   5.702   6.120   7.437  0.6000  0.0647  0.5607
  132OSM    H7F14299   5.612   6.055   7.428  1.2438 -1.2512  2.8523
  132OSM    H7G14300   5.681   6.209   7.374  0.3417  0.1070  0.7017
  132OSM    C8F14301   5.720   6.154   7.584 -0.6089 -1.1027  0.8308
  132OSM    H8F14302   5.627   6.198   7.626 -0.1037 -0.7541  1.6078
  132OSM    H8G14303   5.799   6.232   7.586 -1.2555 -0.3951 -0.3184
  132OSM    C9F14304   5.776   6.046   7.674  0.6002  0.8377  0.4670
  132OSM    H9F14305   5.787   5.946   7.631 -0.5251 -0.3688  2.8131
  132OSM   C10F14306   5.819   6.054   7.799 -0.2417 -0.2569  0.3827
  132OSM   H10F14307   5.847   5.961   7.850 -0.4318 -1.1066 -1.0176
  132OSM   C11F14308   5.822   6.178   7.883  0.4661 -0.2509  0.7355
  132OSM   H11F14309   5.800   6.269   7.824  1.1201  0.5925  1.7561
  132OSM   H11G14310   5.925   6.185   7.923  1.0653  0.6695 -0.8794
  132OSM   C12F14311   5.726   6.169   8.001 -0.3346 -0.4482 -0.2339
  132OSM   H12F14312   5.751   6.250   8.073 -0.4391  0.3194 -1.0510
  132OSM   H12G14313   5.742   6.083   8.070  1.9170 -1.4497 -1.8498
  132OSM   C13F14314   5.579   6.179   7.970 -0.2841  0.6401  0.0134
  132OSM   H13F14315   5.532   6.078   7.978 -0.7979  0.9178  0.6263
  132OSM   H13G14316   5.552   6.209   7.866 -1.3841 -1.4992 -0.3847
  132OSM   C14F14317   5.510   6.277   8.061 -0.0327  0.4460 -0.6492
  132OSM   H14F14318   5.552   6.376   8.034  2.2417 -0.6084 -1.2208
  132OSM   H14G14319   5.546   6.253   8.164 -1.8524 -0.2242 -0.1293
  132OSM   C15F14320   5.359   6.285   8.084  0.3835 -0.1993 -0.2840
  132OSM   H15F14321   5.311   6.297   7.985 -0.0371 -0.2316 -0.0877
  132OSM   H15G14322   5.334   6.379   8.139  0.9187 -1.2069  1.7965
  132OSM   C16F14323   5.298   6.162   8.152 -0.4401  0.4273 -0.0364
  132OSM   H16F14324   5.341   6.159   8.254 -0.0880 -1.1236 -0.2057
  132OSM   H16G14325   5.324   6.065   8.105 -2.4882  0.8138 -2.1228
  132OSM   C17F14326   5.151   6.166   8.157 -0.2373 -0.8287 -0.9607
  132OSM   H17F14327   5.115   6.256   8.211  1.3718  0.6778 -2.2515
  132OSM   H17G14328   5.125   6.076   8.217  2.7733 -1.0060  0.2484
  132OSM   C18F14329   5.084   6.158   8.022 -0.0058  0.3863  0.7304
  132OSM   H18F14330   5.153   6.188   7.940 -0.9227  0.5046 -0.0141
  132OSM   H18G14331   4.993   6.222   8.011  0.0817  0.4432  0.3216
  132OSM   H18H14332   5.054   6.055   7.993  0.5969  0.0154  1.3966
  133OSM      N14333   5.745   6.379   5.862 -0.2224  0.2710 -0.1308
  133OSM    C1514334   5.709   6.481   5.763  0.6696  0.5207  0.0227
  133OSM   H15A14335   5.648   6.559   5.806 -2.6402 -1.2611 -1.0176
  133OSM   H15B14336   5.642   6.437   5.690  1.3780 -1.9966  0.7848
  133OSM   H15C14337   5.799   6.513   5.714  0.3535  2.0093  0.3759
  133OSM    C1414338   5.615   6.318   5.899  0.1774 -0.0262 -0.8304
  133OSM   H14A14339   5.631   6.225   5.952 -0.3640 -0.0285 -0.6644
  133OSM   H14B14340   5.551   6.303   5.814 -1.2945  1.6212 -0.0874
  133OSM   H14C14341   5.563   6.380   5.971 -0.2000  1.5991 -2.4379
  133OSM    C1314342   5.831   6.283   5.784 -0.2717  0.0552 -0.7653
  133OSM   H13A14343   5.777   6.224   5.711 -2.1495 -0.1715  0.7355
  133OSM   H13B14344   5.871   6.217   5.859 -0.6347  0.9855  0.2681
  133OSM   H13C14345   5.916   6.330   5.736  0.5674 -3.1861 -2.8509
  133OSM    C1214346   5.814   6.438   5.990 -0.6089 -0.0016  0.3731
  133OSM   H12A14347   5.759   6.521   6.032 -0.2052 -0.1648  1.2504
  133OSM   H12B14348   5.907   6.478   5.952  1.9110 -2.8787  2.9692
  133OSM    C1114349   5.854   6.341   6.101  0.2638  0.0763 -0.1799
  133OSM   H11A14350   5.761   6.290   6.134 -0.3207  0.3795 -1.3139
  133OSM   H11B14351   5.887   6.399   6.190 -2.7360  0.8193  0.5676
  133OSM      P14352   6.111   6.291   6.073 -0.0612  0.1782  0.5435
  133OSM    O1314353   6.201   6.186   6.026  0.6108  0.6481  0.1619
  133OSM    O1414354   6.130   6.422   6.008  0.1277  0.3562  0.2291
  133OSM    O1114355   6.140   6.290   6.221  0.0978 -0.4075 -0.3467
  133OSM    O1214356   5.959   6.247   6.060  0.3570 -0.0185  0.0745
  133OSM    C1S14357   6.136   6.171   6.305 -0.7291  0.3980  0.1852
  133OSM    H1S14358   6.202   6.092   6.264 -1.0763 -0.6697  1.5956
  133OSM    H1T14359   6.031   6.137   6.320 -1.1576  2.1328  1.4511
  133OSM     NF14360   6.199   6.077   6.525  0.4240  0.1931  0.4436
  133OSM    HNF14361   6.135   6.088   6.601 -2.0746 -0.5707 -1.4072
  133OSM    C2S14362   6.190   6.204   6.452  0.1331  0.4253 -0.0999
  133OSM    H2S14363   6.294   6.239   6.433  0.6784 -0.4713  1.0745
  133OSM    C3S14364   6.108   6.316   6.524 -0.4174 -0.3530  0.8194
  133OSM    H3S14365   6.012   6.267   6.552  0.9667 -2.9063  1.4589
  133OSM     O314366   6.067   6.424   6.434  0.3544 -0.3896  0.4308
  133OSM    HO314367   6.066   6.379   6.349  0.2948  0.0642  0.1891
  133OSM    C4S14368   6.159   6.372   6.653 -0.1976 -0.0248  1.3688
  133OSM    H4S14369   6.257   6.423   6.657 -0.0480 -0.1180 -0.4057
  133OSM    C5S14370   6.084   6.387   6.762 -0.0432  0.2892 -0.4205
  133OSM    H5S14371   5.984   6.342   6.766  1.0208 -2.1157  2.2655
  133OSM    C6S14372   6.115   6.463   6.895  0.4290 -0.1496  0.2595
  133OSM    H6S14373   6.085   6.570   6.897  3.6924  0.8556  0.2889
  133OSM    H6T14374   6.225   6.465   6.907  0.3716  0.7044  0.6800
  133OSM    C7S14375   6.077   6.381   7.023 -0.2283  0.7008 -0.5477
  133OSM    H7S14376   6.106   6.275   7.014 -2.6961 -0.1311  0.4326
  133OSM    H7T14377   5.967   6.370   7.035  0.1609 -1.3439  2.5469
  133OSM    C8S14378   6.145   6.449   7.146 -0.1327 -0.3848  0.8409
  133OSM    H8S14379   6.123   6.556   7.128 -0.0377 -0.4512  0.3251
  133OSM    H8T14380   6.253   6.428   7.159  0.2221  1.4098  1.0755
  133OSM    C9S14381   6.084   6.402   7.275  0.0503 -0.7446 -0.0355
  133OSM    H9S14382   6.109   6.294   7.286  0.4866 -0.5744  0.7442
  133OSM    H9T14383   5.973   6.399   7.276  0.0637 -1.7164  0.0488
  133OSM   C10S14384   6.140   6.461   7.406  0.6078  0.6172 -0.3173
  133OSM   H10S14385   6.133   6.572   7.403  2.1577  0.7149 -0.6719
  133OSM   H10T14386   6.245   6.428   7.416  1.3994  2.5036 -1.7676
  133OSM   C11S14387   6.053   6.419   7.522 -0.0019  0.1641  0.1789
  133OSM   H11S14388   6.068   6.311   7.547  1.4634 -0.0097 -1.3226
  133OSM   H11T14389   5.947   6.438   7.495 -0.2967  0.3915  1.4306
  133OSM   C12S14390   6.091   6.507   7.650  0.0242  0.2076  0.9880
  133OSM   H12S14391   6.043   6.604   7.628 -1.1049 -0.5992 -0.2357
  133OSM   H12T14392   6.199   6.518   7.672 -0.2910  0.3842  2.6316
  133OSM   C13S14393   6.016   6.449   7.767  0.9327  0.2796  0.7965
  133OSM   H13S14394   6.059   6.348   7.778  2.3713  0.9212  1.2631
  133OSM   H13T14395   5.907   6.445   7.747  0.8660 -0.6570  1.2922
  133OSM   C14S14396   6.040   6.527   7.893  0.0478 -0.0634  0.1680
  133OSM   H14S14397   6.003   6.629   7.868 -1.7920 -0.5771  0.6445
  133OSM   H14T14398   6.148   6.537   7.914  0.5744  1.1249 -2.6022
  133OSM   C15S14399   5.983   6.475   8.022  0.6748 -0.2588  0.3514
  133OSM   H15S14400   6.016   6.372   8.045 -2.8697 -2.0888 -1.9246
  133OSM   H15T14401   5.872   6.465   8.021  0.6667 -0.2765  0.8162
  133OSM   C16S14402   6.000   6.560   8.147 -0.1381 -0.4338 -0.4469
  133OSM   H16S14403   5.916   6.545   8.219  1.9830 -1.2179  2.0489
  133OSM   H16T14404   6.007   6.664   8.110  2.9182 -0.1845  0.5097
  133OSM   C17S14405   6.124   6.514   8.224  0.1735 -0.5965  0.0498
  133OSM   H17S14406   6.165   6.424   8.172 -0.9291  0.6601 -3.2021
  133OSM   H17T14407   6.095   6.481   8.326  1.4740 -0.1133  0.5970
  133OSM   C18S14408   6.246   6.601   8.239 -0.6713 -0.6967  0.5487
  133OSM   H18S14409   6.234   6.695   8.297  1.1200  1.0832 -1.7571
  133OSM   H18T14410   6.276   6.632   8.137 -1.9729 -0.0242  0.3503
  133OSM   H18U14411   6.328   6.534   8.272 -0.1440 -2.1850 -3.3190
  133OSM    C1F14412   6.278   5.969   6.504  0.2345  0.0761 -0.7830
  133OSM     OF14413   6.348   5.959   6.403 -0.5028 -0.2187 -0.8035
  133OSM    C2F14414   6.273   5.868   6.618  0.9765 -0.1902 -0.4253
  133OSM    H2F14415   6.168   5.831   6.619  0.4015  1.3471  2.0395
  133OSM    H2G14416   6.297   5.914   6.716 -2.2442  2.5172 -0.7388
  133OSM    C3F14417   6.383   5.759   6.594  0.4981  0.1157  0.2998
  133OSM    H3F14418   6.474   5.819   6.571 -1.3061  1.5575 -4.0006
  133OSM    H3G14419   6.357   5.698   6.505  0.4697 -1.3832  1.3008
  133OSM    C4F14420   6.406   5.670   6.717 -0.1037  0.1865 -0.5326
  133OSM    H4F14421   6.315   5.614   6.748  0.6161 -1.9992 -2.1459
  133OSM    H4G14422   6.442   5.741   6.795  0.1301 -0.4746 -0.0275
  133OSM    C5F14423   6.506   5.563   6.687 -0.1538 -0.7274  0.9207
  133OSM    H5F14424   6.601   5.608   6.652 -0.4838 -0.6344  0.1352
  133OSM    H5G14425   6.460   5.500   6.608  0.7516 -2.3886  1.6624
  133OSM    C6F14426   6.550   5.470   6.798  0.3668 -0.6335  0.0295
  133OSM    H6F14427   6.614   5.386   6.763 -0.1610 -1.0061 -0.0577
  133OSM    H6G14428   6.456   5.429   6.841 -1.4588  2.6214 -0.5187
  133OSM    C7F14429   6.606   5.550   6.911  0.3708  0.0935  0.3590
  133OSM    H7F14430   6.522   5.611   6.949 -0.3818  0.3732 -1.6129
  133OSM    H7G14431   6.690   5.608   6.866 -0.3618 -0.7165 -2.2401
  133OSM    C8F14432   6.656   5.456   7.028 -0.0633 -0.1511 -0.2233
  133OSM    H8F14433   6.701   5.528   7.100  3.3796 -0.9413 -1.4074
  133OSM    H8G14434   6.736   5.391   6.986 -0.4384  1.2511 -3.3678
  133OSM    C9F14435   6.552   5.386   7.096  0.0146 -0.0279 -0.2680
  133OSM    H9F14436   6.457   5.369   7.043 -0.6637  0.3032  0.7993
  133OSM   C10F14437   6.552   5.343   7.225  0.2700  0.0612 -0.4549
  133OSM   H10F14438   6.461   5.292   7.260  0.7925 -0.2970  0.4175
  133OSM   C11F14439   6.666   5.357   7.322 -0.8821 -0.4347  0.5535
  133OSM   H11F14440   6.647   5.442   7.390  0.3983  0.0597  0.3189
  133OSM   H11G14441   6.761   5.371   7.267 -0.6694 -1.8743  0.5123
  133OSM   C12F14442   6.682   5.225   7.392 -0.1969  0.4619 -0.0430
  133OSM   H12F14443   6.752   5.241   7.477 -0.7949 -1.6060  0.9104
  133OSM   H12G14444   6.743   5.154   7.332  0.1592 -0.1853  1.0355
  133OSM   C13F14445   6.552   5.166   7.451 -0.4234 -0.1241 -0.0507
  133OSM   H13F14446   6.574   5.070   7.501  0.4800  0.4441  0.6659
  133OSM   H13G14447   6.485   5.138   7.366  1.1231  0.6301 -1.5766
  133OSM   C14F14448   6.493   5.253   7.561 -0.1573  0.3044 -0.6099
  133OSM   H14F14449   6.396   5.202   7.580  1.1776 -2.4782 -0.8331
  133OSM   H14G14450   6.463   5.355   7.527 -0.9085  0.1280 -0.4856
  133OSM   C15F14451   6.582   5.276   7.691  0.0183 -0.6297  0.0910
  133OSM   H15F14452   6.676   5.330   7.667 -1.0547  1.0157 -0.5399
  133OSM   H15G14453   6.603   5.174   7.730 -2.6555 -1.4282 -0.4007
  133OSM   C16F14454   6.520   5.349   7.815 -0.0327  0.4006  0.2818
  133OSM   H16F14455   6.503   5.447   7.765 -0.0241 -0.4960 -1.5642
  133OSM   H16G14456   6.594   5.363   7.898  2.1372 -1.1439 -1.2730
  133OSM   C17F14457   6.396   5.278   7.884 -0.1029 -0.0344  0.4214
  133OSM   H17F14458   6.446   5.186   7.919 -0.0119  0.2549  1.0744
  133OSM   H17G14459   6.332   5.262   7.795  1.4116  1.7787 -1.0693
  133OSM   C18F14460   6.336   5.352   7.999 -0.2642  0.4142  0.1425
  133OSM   H18F14461   6.251   5.296   8.045  0.8252 -1.2689  0.1881
  133OSM   H18G14462   6.298   5.454   7.975 -1.3641 -0.1767 -0.7286
  133OSM   H18H14463   6.405   5.376   8.083 -0.1947  0.2755  0.1247
  134OSM      N14464   2.490   1.941   6.336  0.2597 -0.2092  0.1841
  134OSM    C1514465   2.557   1.850   6.247  0.2633  0.1950 -0.3030
  134OSM   H15A14466   2.490   1.776   6.206  0.4532  0.1013 -0.4473
  134OSM   H15B14467   2.632   1.796   6.304 -1.4208  0.8966  2.7645
  134OSM   H15C14468   2.603   1.908   6.168 -0.5480  0.1717 -0.8049
  134OSM    C1414469   2.597   2.033   6.404  0.5600  0.8259 -0.1667
  134OSM   H14A14470   2.559   2.095   6.484 -2.4287 -2.1952  1.0182
  134OSM   H14B14471   2.641   2.097   6.329 -1.2670 -0.0544 -2.1117
  134OSM   H14C14472   2.676   1.973   6.446  1.4112  3.0847  1.6667
  134OSM    C1314473   2.401   2.025   6.251 -0.3695 -0.0623 -0.6591
  134OSM   H13A14474   2.342   1.954   6.194 -0.7703 -3.3649  3.3863
  134OSM   H13B14475   2.460   2.078   6.177  0.0124  1.6101  0.7934
  134OSM   H13C14476   2.340   2.086   6.315 -0.0141 -1.2745  0.9107
  134OSM    C1214477   2.409   1.882   6.452  0.6015 -0.0756 -0.1334
  134OSM   H12A14478   2.329   1.824   6.409  0.5303 -0.3417  0.3506
  134OSM   H12B14479   2.358   1.960   6.506  1.0501  0.2430 -0.1613
  134OSM    C1114480   2.478   1.799   6.557  0.2846 -0.0272 -0.1732
  134OSM   H11A14481   2.406   1.773   6.637  1.4968 -3.1704  0.0367
  134OSM   H11B14482   2.553   1.859   6.614 -1.7536  2.2323  0.2950
  134OSM      P14483   2.445   1.551   6.459 -0.0780  0.0676  0.4639
  134OSM    O1314484   2.311   1.605   6.421  0.5480  0.3703 -0.1322
  134OSM    O1414485   2.519   1.486   6.350 -0.5789  0.2869  0.3864
  134OSM    O1114486   2.436   1.467   6.590  1.2269  0.3228  0.3388
  134OSM    O1214487   2.536   1.680   6.505  0.3227  0.7622 -0.4644
  134OSM    C1S14488   2.494   1.482   6.715 -1.0586 -0.2079  0.4846
  134OSM    H1S14489   2.451   1.570   6.769  1.1307  0.1143  1.8070
  134OSM    H1T14490   2.598   1.513   6.691 -1.4416 -0.0075 -0.9782
  134OSM     NF14491   2.559   1.381   6.933  0.6620 -0.1419  0.1161
  134OSM    HNF14492   2.658   1.370   6.936  1.0468  1.8855 -1.9078
  134OSM    C2S14493   2.498   1.354   6.802 -0.1446 -0.2176 -0.0863
  134OSM    H2S14494   2.396   1.313   6.821 -0.0519 -0.4466 -0.0790
  134OSM    C3S14495   2.571   1.241   6.723 -0.0982 -0.0068 -0.0369
  134OSM    H3S14496   2.664   1.280   6.677 -0.7689 -0.2064 -1.6176
  134OSM     O314497   2.485   1.194   6.622  0.1889 -0.0544  0.1838
  134OSM    HO314498   2.416   1.260   6.620  0.9421  0.7450 -0.5994
  134OSM    C4S14499   2.608   1.128   6.825 -0.1002 -0.1200  0.3061
  134OSM    H4S14500   2.696   1.146   6.889 -0.4093  0.3209  0.6118
  134OSM    C5S14501   2.552   1.004   6.827  0.5616 -0.6746 -0.0852
  134OSM    H5S14502   2.456   0.996   6.774  0.6049  0.5766 -0.3875
  134OSM    C6S14503   2.589   0.885   6.909  0.6527  0.0825  0.2092
  134OSM    H6S14504   2.637   0.817   6.835 -2.1689  0.5161 -2.1955
  134OSM    H6T14505   2.491   0.843   6.938 -0.4030  1.2635 -1.5331
  134OSM    C7S14506   2.666   0.907   7.035  0.2279  0.4887  0.2517
  134OSM    H7S14507   2.604   0.951   7.115 -0.6167  1.9961 -1.1739
  134OSM    H7T14508   2.746   0.983   7.018  0.6714 -0.0426 -0.0845
  134OSM    C8S14509   2.726   0.783   7.105  0.1659 -0.2787 -0.5105
  134OSM    H8S14510   2.796   0.798   7.189 -0.2477 -0.9576 -0.0419
  134OSM    H8T14511   2.776   0.716   7.032 -3.2698 -2.2966 -1.2557
  134OSM    C9S14512   2.632   0.688   7.180 -0.4762  0.5052 -0.3903
  134OSM    H9S14513   2.564   0.646   7.103  1.3463 -0.3472 -1.6085
  134OSM    H9T14514   2.572   0.739   7.259 -0.7279 -1.8602  1.0599
  134OSM   C10S14515   2.697   0.574   7.257  0.0571 -0.9779  0.5280
  134OSM   H10S14516   2.772   0.625   7.320  1.6549 -1.4148 -0.9389
  134OSM   H10T14517   2.758   0.520   7.182  0.0557 -1.7759  1.0890
  134OSM   C11S14518   2.592   0.477   7.331 -0.0633  0.5323 -0.3598
  134OSM   H11S14519   2.527   0.448   7.245  0.5872 -3.9994  0.4100
  134OSM   H11T14520   2.552   0.551   7.402  1.8180  1.4769 -0.2118
  134OSM   C12S14521   2.661   0.361   7.405  0.0945  0.0637  0.1607
  134OSM   H12S14522   2.717   0.291   7.338  2.2437  1.3897  0.4593
  134OSM   H12T14523   2.581   0.300   7.451  1.2823 -1.1511  0.6876
  134OSM   C13S14524   2.751   0.413   7.518  0.1871 -0.0273  0.1219
  134OSM   H13S14525   2.684   0.460   7.594  0.0462  0.0365 -0.0399
  134OSM   H13T14526   2.827   0.490   7.498 -0.2856  0.6090  0.7291
  134OSM   C14S14527   2.821   0.299   7.598 -0.4962 -0.2007  0.8907
  134OSM   H14S14528   2.925   0.288   7.562  0.9414  1.2931  4.1641
  134OSM   H14T14529   2.775   0.199   7.583 -1.8240  0.3482  1.1036
  134OSM   C15S14530   2.845   0.337   7.748  0.1588  0.2863 -0.4256
  134OSM   H15S14531   2.888   0.439   7.753  2.7508 -0.7788  1.0771
  134OSM   H15T14532   2.935   0.280   7.779  0.9916  1.3395 -0.8589
  134OSM   C16S14533   2.733   0.306   7.842 -0.2382  0.0054 -0.0249
  134OSM   H16S14534   2.716   0.197   7.842  1.0976 -0.2305  1.4364
  134OSM   H16T14535   2.638   0.347   7.802 -0.9840 -1.0363  0.6606
  134OSM   C17S14536   2.770   0.364   7.975 -0.2652  0.4720  0.6450
  134OSM   H17S14537   2.782   0.474   7.984  1.0549  0.4198 -0.1946
  134OSM   H17T14538   2.873   0.335   8.006  0.5665  1.6427 -0.8537
  134OSM   C18S14539   2.663   0.322   8.077 -0.1378  0.6417 -0.2152
  134OSM   H18S14540   2.568   0.341   8.023 -0.7712  0.0975  0.6781
  134OSM   H18T14541   2.666   0.373   8.175  2.1274 -1.6375  1.0231
  134OSM   H18U14542   2.667   0.214   8.105  0.6870  0.6619 -0.2215
  134OSM    C1F14543   2.502   1.451   7.032 -1.0547 -0.2044  0.2433
  134OSM     OF14544   2.385   1.477   7.021 -0.5933  0.2599 -0.4583
  134OSM    C2F14545   2.594   1.495   7.147  1.0433  0.2398 -0.4112
  134OSM    H2F14546   2.600   1.606   7.147 -1.1245  0.4345  1.2519
  134OSM    H2G14547   2.694   1.451   7.132  1.4915  1.3420 -0.7309
  134OSM    C3F14548   2.532   1.454   7.283 -0.0767  0.6588 -0.2058
  134OSM    H3F14549   2.522   1.343   7.273  0.4318  0.7135 -1.6187
  134OSM    H3G14550   2.432   1.500   7.299 -1.5536 -2.6829  1.1819
  134OSM    C4F14551   2.630   1.480   7.403  1.0264  0.1622  0.0491
  134OSM    H4F14552   2.647   1.590   7.395  0.9879  0.2826  1.3499
  134OSM    H4G14553   2.720   1.419   7.385  2.0796  2.0245 -1.3088
  134OSM    C5F14554   2.572   1.456   7.539 -0.6707  0.1820 -0.1369
  134OSM    H5F14555   2.509   1.365   7.539 -1.3797  0.6249 -1.9990
  134OSM    H5G14556   2.490   1.527   7.566  0.7933  1.7868  0.2565
  134OSM    C6F14557   2.669   1.442   7.655  0.1800 -0.0846 -0.1943
  134OSM    H6F14558   2.724   1.537   7.673 -1.0423  0.6107  0.0267
  134OSM    H6G14559   2.732   1.361   7.613 -1.6773 -1.3385 -0.6770
  134OSM    C7F14560   2.618   1.374   7.781  0.0175 -0.0465  0.2799
  134OSM    H7F14561   2.525   1.321   7.751 -1.4698  1.6645  1.6629
  134OSM    H7G14562   2.574   1.451   7.848  1.7941  1.3832 -0.1216
  134OSM    C8F14563   2.722   1.296   7.855  0.4540  0.3968 -0.3719
  134OSM    H8F14564   2.796   1.360   7.906 -2.0581  0.0593  4.2361
  134OSM    H8G14565   2.782   1.236   7.784  0.0113  0.2355 -0.6188
  134OSM    C9F14566   2.656   1.200   7.951  0.4899 -1.4832  0.2492
  134OSM    H9F14567   2.622   1.106   7.905  1.1516 -1.2556 -0.7193
  134OSM   C10F14568   2.651   1.217   8.090  0.7208  0.2477  0.2694
  134OSM   H10F14569   2.599   1.138   8.146  0.3357  0.2839 -0.0324
  134OSM   C11F14570   2.693   1.341   8.166 -0.0208 -0.2913 -0.1351
  134OSM   H11F14571   2.610   1.374   8.232 -1.0629 -0.3502 -1.3790
  134OSM   H11G14572   2.709   1.433   8.105 -3.5695  0.1977 -0.5570
  134OSM   C12F14573   2.823   1.311   8.246 -0.1190  0.1859  1.2059
  134OSM   H12F14574   2.902   1.303   8.168 -2.1560 -0.7949 -0.8434
  134OSM   H12G14575   2.835   1.217   8.304 -1.3837 -1.7273 -1.4556
  134OSM   C13F14576   2.867   1.424   8.338  0.0680  0.4093 -0.6903
  134OSM   H13F14577   2.790   1.419   8.418 -0.6125 -1.8126 -1.4195
  134OSM   H13G14578   2.878   1.516   8.276  1.7043 -0.9048 -2.4487
  134OSM   C14F14579   3.000   1.398   8.412 -0.3708 -0.1916  0.3564
  134OSM   H14F14580   2.998   1.297   8.460 -0.1460 -0.3462  0.0452
  134OSM   H14G14581   3.028   1.468   8.493  1.7906  0.0817 -0.5768
  134OSM   C15F14582   3.126   1.393   8.313 -0.3968  0.4592  0.2257
  134OSM   H15F14583   3.129   1.495   8.270 -0.3152  1.3058  2.1624
  134OSM   H15G14584   3.102   1.314   8.239 -0.9222 -2.0497  2.8785
  134OSM   C16F14585   3.257   1.343   8.391  0.7084  0.1262 -0.2104
  134OSM   H16F14586   3.237   1.247   8.444  1.2601 -0.6480 -1.3638
  134OSM   H16G14587   3.296   1.422   8.458  1.5064 -0.6045  0.2016
  134OSM   C17F14588   3.368   1.305   8.289 -0.2732 -0.1649  0.1403
  134OSM   H17F14589   3.344   1.216   8.227 -0.0712 -0.1890  0.0935
  134OSM   H17G14590   3.449   1.278   8.361  0.8246  2.2111 -0.1307
  134OSM   C18F14591   3.407   1.418   8.192  0.0909 -0.1679  0.4431
  134OSM   H18F14592   3.324   1.434   8.120 -1.2868 -0.1981  1.9698
  134OSM   H18G14593   3.496   1.402   8.127  0.5229  0.7261  0.7887
  134OSM   H18H14594   3.410   1.517   8.244 -2.6770  1.0468 -1.4759
  135OSM      N14595   1.572   1.526   6.413 -0.5669 -0.0559  0.1897
  135OSM    C1514596   1.600   1.668   6.386 -0.6673 -0.3057  0.4084
  135OSM   H15A14597   1.528   1.696   6.311  0.5458 -0.0274 -0.6843
  135OSM   H15B14598   1.699   1.670   6.343 -0.8932 -0.6625 -0.1289
  135OSM   H15C14599   1.597   1.737   6.469  0.7632  2.5089 -1.7142
  135OSM    C1414600   1.446   1.525   6.496 -0.1171  0.0440 -0.1386
  135OSM   H14A14601   1.365   1.539   6.427  2.0098  2.9834 -2.3117
  135OSM   H14B14602   1.441   1.615   6.556  2.1279  0.8409 -1.0290
  135OSM   H14C14603   1.435   1.435   6.555  1.0070  0.2610  0.4416
  135OSM    C1314604   1.549   1.455   6.285  0.4144  0.6103  0.9646
  135OSM   H13A14605   1.508   1.356   6.298 -0.6527  0.7042 -1.2728
  135OSM   H13B14606   1.643   1.444   6.233  0.0257  0.5193  0.2794
  135OSM   H13C14607   1.486   1.519   6.226  0.8114  1.0633  1.0215
  135OSM    C1214608   1.682   1.455   6.491 -0.0727 -0.1299  0.1375
  135OSM   H12A14609   1.773   1.470   6.433 -0.7470  1.6036 -0.5340
  135OSM   H12B14610   1.647   1.354   6.502 -0.9956  0.0682 -0.7837
  135OSM    C1114611   1.712   1.504   6.637  0.0325 -0.3585  0.0778
  135OSM   H11A14612   1.779   1.429   6.685 -1.2802 -1.3874  0.3781
  135OSM   H11B14613   1.619   1.499   6.697 -0.3430  2.1825 -0.1997
  135OSM      P14614   1.907   1.681   6.582  0.2580  0.1056  0.4888
  135OSM    O1314615   1.909   1.638   6.434 -0.1945  0.3812  0.1011
  135OSM    O1414616   1.930   1.820   6.613 -0.4358 -0.4806  0.5248
  135OSM    O1114617   1.993   1.571   6.668  0.0660 -0.7635 -0.4173
  135OSM    O1214618   1.765   1.638   6.639 -0.5995  0.2668  0.3939
  135OSM    C1S14619   2.122   1.600   6.733  0.5148 -0.5563 -0.4397
  135OSM    H1S14620   2.185   1.675   6.680 -0.9547  1.5492  0.6226
  135OSM    H1T14621   2.182   1.507   6.735  0.5541 -0.5148  0.5026
  135OSM     NF14622   2.234   1.701   6.928  0.1976 -0.1991 -0.0129
  135OSM    HNF14623   2.301   1.635   6.960  1.5575  0.8487 -0.5908
  135OSM    C2S14624   2.106   1.648   6.880 -0.5045 -0.5115  0.3978
  135OSM    H2S14625   2.041   1.738   6.887  1.3452  1.1295 -1.7329
  135OSM    C3S14626   2.045   1.543   6.967  0.1941 -0.3260  0.1225
  135OSM    H3S14627   2.120   1.461   6.972 -0.3244 -0.7233  3.0589
  135OSM     O314628   1.930   1.486   6.905 -0.1475 -0.3764 -0.8077
  135OSM    HO314629   1.931   1.509   6.812 -0.0987  1.0429 -0.4810
  135OSM    C4S14630   2.015   1.585   7.113  0.0572  0.4526 -0.2062
  135OSM    H4S14631   1.956   1.678   7.120  0.9234  0.9591  0.5602
  135OSM    C5S14632   2.046   1.526   7.221 -0.9690  0.0423 -1.0167
  135OSM    H5S14633   2.112   1.438   7.221 -1.0411 -0.0135 -1.4540
  135OSM    C6S14634   2.015   1.596   7.343 -0.6870  0.3718 -0.2860
  135OSM    H6S14635   1.905   1.588   7.355 -0.7431 -0.2898 -1.1406
  135OSM    H6T14636   2.046   1.702   7.335 -0.9274  0.6321  1.6800
  135OSM    C7S14637   2.093   1.529   7.458 -0.1653  0.3493  0.0995
  135OSM    H7S14638   2.199   1.504   7.438 -0.5821 -1.3861 -0.0466
  135OSM    H7T14639   2.033   1.438   7.479 -1.8794  1.5007  0.4494
  135OSM    C8S14640   2.092   1.618   7.585  0.3973  0.3074 -0.4507
  135OSM    H8S14641   1.996   1.674   7.590 -0.2637 -0.9112  1.2080
  135OSM    H8T14642   2.175   1.692   7.579 -1.4731  2.4504 -1.6555
  135OSM    C9S14643   2.119   1.525   7.710 -0.4737 -0.7734  0.1018
  135OSM    H9S14644   2.194   1.448   7.681 -1.3836 -1.4499 -0.5086
  135OSM    H9T14645   2.031   1.463   7.738 -0.2536 -1.3078 -0.3679
  135OSM   C10S14646   2.166   1.611   7.830 -0.1722  0.3238  0.1257
  135OSM   H10S14647   2.265   1.656   7.810  1.4051 -1.6622  2.8190
  135OSM   H10T14648   2.176   1.553   7.924 -0.8008  0.3575  0.2197
  135OSM   C11S14649   2.083   1.735   7.845  0.0082 -0.4152  0.1829
  135OSM   H11S14650   1.980   1.714   7.808  0.0424 -0.1387 -0.0819
  135OSM   H11T14651   2.113   1.816   7.775 -4.9913  0.3214 -1.4999
  135OSM   C12S14652   2.086   1.780   7.994 -0.3475 -0.2679  0.2636
  135OSM   H12S14653   2.015   1.866   7.991 -0.3160 -0.1662  1.7648
  135OSM   H12T14654   2.190   1.817   8.009  0.1236 -1.4884  0.0864
  135OSM   C13S14655   2.047   1.674   8.100 -0.4985  0.4219  0.6615
  135OSM   H13S14656   2.111   1.582   8.100 -1.8449 -0.5910  2.6345
  135OSM   H13T14657   1.948   1.633   8.073  0.4634 -3.1644  1.9611
  135OSM   C14S14658   2.033   1.746   8.232  0.5451 -0.2850 -0.8234
  135OSM   H14S14659   1.941   1.808   8.227 -0.1167 -1.1974 -0.2766
  135OSM   H14T14660   2.124   1.806   8.254  0.1339  0.1228 -0.2038
  135OSM   C15S14661   2.008   1.643   8.337  0.0442  0.5229 -0.4253
  135OSM   H15S14662   2.084   1.565   8.315 -0.4571 -0.3169  0.7157
  135OSM   H15T14663   1.904   1.606   8.322  0.3909 -1.1478  0.9381
  135OSM   C16S14664   2.028   1.696   8.477 -0.2147 -0.4158 -0.4241
  135OSM   H16S14665   1.949   1.771   8.502  0.9702  1.4751 -1.9720
  135OSM   H16T14666   2.123   1.754   8.480  0.5743 -1.6899 -0.3728
  135OSM   C17S14667   2.038   1.583   8.582 -0.4486  0.0132 -1.0356
  135OSM   H17S14668   2.129   1.524   8.559 -1.1457 -1.5637  0.0162
  135OSM   H17T14669   1.961   1.506   8.560  0.8751 -1.4282 -0.7965
  135OSM   C18S14670   2.041   1.633   8.726  0.6636 -0.3797  0.4189
  135OSM   H18S14671   2.120   1.710   8.727 -0.4088  0.7582  1.2752
  135OSM   H18T14672   2.067   1.557   8.804 -0.3368 -1.2039 -0.0147
  135OSM   H18U14673   1.944   1.675   8.761  0.5153  1.6267 -2.1265
  135OSM    C1F14674   2.278   1.819   6.895  0.7759 -0.1331  0.0866
  135OSM     OF14675   2.206   1.890   6.821  0.1888 -0.0622 -0.1935
  135OSM    C2F14676   2.419   1.851   6.927  0.5050  0.0192 -0.8677
  135OSM    H2F14677   2.442   1.887   6.825  0.4192 -0.4571 -1.0590
  135OSM    H2G14678   2.484   1.766   6.959 -0.3408 -0.3992 -0.2300
  135OSM    C3F14679   2.426   1.966   7.030  0.4595  0.5366  0.0290
  135OSM    H3F14680   2.377   2.058   6.992 -0.2860  0.4499  0.7562
  135OSM    H3G14681   2.535   1.991   7.029  0.4991  0.4189 -2.0252
  135OSM    C4F14682   2.367   1.943   7.170 -0.1352  0.3336 -0.0522
  135OSM    H4F14683   2.267   1.901   7.147  0.3388  1.4119 -5.3233
  135OSM    H4G14684   2.367   2.034   7.235 -0.2808  0.5163 -0.3056
  135OSM    C5F14685   2.455   1.856   7.267  0.6194 -0.1347  0.5063
  135OSM    H5F14686   2.558   1.898   7.264  0.2128  0.8296 -0.8052
  135OSM    H5G14687   2.459   1.759   7.212 -2.9438  1.2923 -2.7466
  135OSM    C6F14688   2.402   1.825   7.408  0.0692 -0.3338  0.2206
  135OSM    H6F14689   2.455   1.739   7.455  0.3333 -0.0366  0.4763
  135OSM    H6G14690   2.293   1.807   7.421  0.0819  1.0921  3.5489
  135OSM    C7F14691   2.431   1.945   7.488 -0.6931  0.2623 -0.0904
  135OSM    H7F14692   2.367   2.030   7.457 -2.7561 -1.3730 -0.5826
  135OSM    H7G14693   2.538   1.972   7.479 -0.1679 -2.2129 -2.7386
  135OSM    C8F14694   2.398   1.900   7.632 -0.0631  0.1932  0.0288
  135OSM    H8F14695   2.296   1.856   7.636  0.1045 -0.0953  2.1317
  135OSM    H8G14696   2.374   1.992   7.688 -1.5275 -0.6037  0.7762
  135OSM    C9F14697   2.517   1.818   7.695  0.3010  0.5374 -0.3563
  135OSM    H9F14698   2.569   1.761   7.617 -1.4705 -0.4654 -0.8460
  135OSM   C10F14699   2.556   1.816   7.826  0.1011 -1.0403  0.1658
  135OSM   H10F14700   2.650   1.770   7.858 -0.3235 -0.7894  1.8293
  135OSM   C11F14701   2.494   1.893   7.937 -0.2487  0.1714  0.2439
  135OSM   H11F14702   2.401   1.930   7.889 -0.7224  1.0303  1.7478
  135OSM   H11G14703   2.554   1.984   7.961 -0.9763  0.2483  2.0068
  135OSM   C12F14704   2.450   1.817   8.065  0.0104 -0.4017 -0.1612
  135OSM   H12F14705   2.387   1.729   8.042  1.3361 -1.5702  0.4785
  135OSM   H12G14706   2.406   1.899   8.125  0.1365  0.2217 -0.9147
  135OSM   C13F14707   2.572   1.759   8.136 -0.2808 -0.4704 -0.0174
  135OSM   H13F14708   2.637   1.848   8.155  0.9677 -1.2131 -0.7127
  135OSM   H13G14709   2.630   1.691   8.070  0.7573  1.6109 -1.3670
  135OSM   C14F14710   2.550   1.690   8.272  0.3584  0.6360  0.1557
  135OSM   H14F14711   2.647   1.657   8.315  0.5879  0.3548 -0.5707
  135OSM   H14G14712   2.500   1.592   8.254  2.3201 -0.0324 -2.1032
  135OSM   C15F14713   2.460   1.763   8.368  0.6724 -0.0429  0.1720
  135OSM   H15F14714   2.354   1.756   8.336  0.8067  0.0681 -0.3116
  135OSM   H15G14715   2.483   1.872   8.370 -1.0137  0.3473 -0.2425
  135OSM   C16F14716   2.479   1.700   8.507 -0.6036 -0.4403 -0.0893
  135OSM   H16F14717   2.424   1.769   8.575 -0.1418  1.5192 -1.6005
  135OSM   H16G14718   2.589   1.699   8.523 -0.2766  2.0457 -1.6465
  135OSM   C17F14719   2.416   1.559   8.522  0.0270 -0.5390 -0.3995
  135OSM   H17F14720   2.458   1.480   8.456 -1.8881  0.3231 -2.8068
  135OSM   H17G14721   2.311   1.559   8.485 -0.8149 -1.8850  1.7829
  135OSM   C18F14722   2.410   1.514   8.674  0.2985 -1.0322  0.0921
  135OSM   H18F14723   2.362   1.585   8.745  1.5328  0.0447 -0.1162
  135OSM   H18G14724   2.512   1.501   8.716  0.1443 -0.4515  0.6618
  135OSM   H18H14725   2.348   1.421   8.673 -0.3456 -0.7769  3.4207
  136OSM      N14726   6.662   2.820   5.822  0.5488 -0.3313 -0.6623
  136OSM    C1514727   6.636   2.796   5.676 -0.3746 -0.5284 -0.1386
  136OSM   H15A14728   6.528   2.803   5.676 -0.4229 -0.7995  1.6791
  136OSM   H15B14729   6.671   2.697   5.652 -0.6461 -1.1432  1.8129
  136OSM   H15C14730   6.693   2.859   5.609 -0.1251 -0.7864 -0.1699
  136OSM    C1414731   6.795   2.767   5.856  0.2387  0.4835 -0.9372
  136OSM   H14A14732   6.882   2.805   5.803  0.8858 -0.8934 -0.9072
  136OSM   H14B14733   6.782   2.660   5.850 -2.0402  0.3501  3.0118
  136OSM   H14C14734   6.814   2.787   5.960  0.0804  0.3760 -0.8871
  136OSM    C1314735   6.669   2.970   5.837  0.1544  0.0355 -0.4921
  136OSM   H13A14736   6.575   3.017   5.813 -0.5673  0.5514  2.8779
  136OSM   H13B14737   6.752   3.012   5.782  0.5689 -0.3996 -0.2032
  136OSM   H13C14738   6.682   3.000   5.940  1.7093 -0.3413 -0.5594
  136OSM    C1214739   6.563   2.746   5.919  0.1440  0.0868  0.3745
  136OSM   H12A14740   6.579   2.759   6.025  0.6335 -0.4694  0.3754
  136OSM   H12B14741   6.564   2.639   5.904  0.6529 -0.0545  1.3521
  136OSM    C1114742   6.408   2.781   5.913 -0.1819  0.2947 -0.4788
  136OSM   H11A14743   6.350   2.741   5.998 -0.2703 -1.5203 -1.3472
  136OSM   H11B14744   6.373   2.712   5.833  0.1749 -0.4774  0.0197
  136OSM      P14745   6.364   3.028   5.998 -0.1161  0.4116  0.2412
  136OSM    O1314746   6.466   3.134   5.999 -0.3231 -0.0481 -0.6631
  136OSM    O1414747   6.224   3.069   5.985  0.1634  0.1269 -0.3208
  136OSM    O1114748   6.377   2.948   6.135  0.0542 -0.2647  0.0596
  136OSM    O1214749   6.383   2.916   5.883  0.4453 -0.6490  0.4197
  136OSM    C1S14750   6.258   2.915   6.211  0.7027  0.4901  0.2934
  136OSM    H1S14751   6.212   2.832   6.154  4.4470  0.4232 -3.0607
  136OSM    H1T14752   6.188   2.999   6.227 -0.2801 -0.7661  3.4852
  136OSM     NF14753   6.202   2.802   6.425  0.6528 -0.0334  0.0358
  136OSM    HNF14754   6.131   2.846   6.480 -0.2621 -0.0690 -1.0701
  136OSM    C2S14755   6.303   2.876   6.353 -0.6383 -0.1005 -0.8583
  136OSM    H2S14756   6.388   2.804   6.346 -0.4985  0.0805 -1.0460
  136OSM    C3S14757   6.344   3.012   6.422  0.1351  0.3169 -0.4056
  136OSM    H3S14758   6.262   3.084   6.403 -0.7243 -0.7186 -0.7376
  136OSM     O314759   6.448   3.078   6.358  0.5115  0.4117  0.1965
  136OSM    HO314760   6.443   3.041   6.270  0.0344  3.0819 -0.9923
  136OSM    C4S14761   6.381   3.002   6.571  0.3727 -0.1353  0.4440
  136OSM    H4S14762   6.466   2.936   6.597 -0.8519 -1.8668  0.1987
  136OSM    C5S14763   6.314   3.081   6.662  0.0844 -0.2533 -0.7454
  136OSM    H5S14764   6.240   3.155   6.630 -1.8781  0.5221  4.5831
  136OSM    C6S14765   6.340   3.084   6.810  0.3600  0.1614 -0.2294
  136OSM    H6S14766   6.397   2.990   6.828 -3.1430 -2.1437 -0.1224
  136OSM    H6T14767   6.250   3.068   6.872  0.2310  1.7786  0.0308
  136OSM    C7S14768   6.404   3.209   6.852 -0.2015  0.4909  0.1825
  136OSM    H7S14769   6.377   3.292   6.784 -0.7009 -0.8376 -1.3014
  136OSM    H7T14770   6.514   3.194   6.850  0.0011  1.5973  1.7108
  136OSM    C8S14771   6.360   3.251   6.988 -0.1038  0.1712  0.2773
  136OSM    H8S14772   6.250   3.264   6.989 -0.2187 -0.3084 -1.8840
  136OSM    H8T14773   6.402   3.354   6.990  1.4475 -0.4476  1.0212
  136OSM    C9S14774   6.410   3.168   7.105 -0.4141 -0.0601 -0.0551
  136OSM    H9S14775   6.519   3.158   7.122 -0.4519  0.7110  0.7151
  136OSM    H9T14776   6.364   3.068   7.093 -2.1606  0.7471 -0.5150
  136OSM   C10S14777   6.349   3.219   7.243  0.1265  0.2018  0.3617
  136OSM   H10S14778   6.372   3.142   7.320 -0.7548 -0.6379 -0.1821
  136OSM   H10T14779   6.240   3.240   7.232  0.2673 -0.2453 -2.8886
  136OSM   C11S14780   6.422   3.350   7.284  0.2328  0.0075 -0.2153
  136OSM   H11S14781   6.388   3.427   7.211  1.8907 -1.9087 -3.2287
  136OSM   H11T14782   6.531   3.342   7.267  0.2043 -0.6113 -0.0975
  136OSM   C12S14783   6.378   3.402   7.420  0.5331  0.1508 -0.1906
  136OSM   H12S14784   6.270   3.425   7.425  0.7047  0.9358  0.1240
  136OSM   H12T14785   6.425   3.503   7.419  0.9185 -0.0292 -0.5629
  136OSM   C13S14786   6.422   3.319   7.542  0.1314  0.4105 -0.0319
  136OSM   H13S14787   6.532   3.300   7.542  0.1779  0.2900 -2.4546
  136OSM   H13T14788   6.381   3.216   7.529  0.5978  0.3423 -1.1101
  136OSM   C14S14789   6.363   3.371   7.661  0.1827 -0.1166 -0.4061
  136OSM   H14S14790   6.253   3.370   7.649 -0.0499  3.7246  0.1763
  136OSM   H14T14791   6.404   3.472   7.680 -1.8206  0.4607  1.1249
  136OSM   C15S14792   6.402   3.276   7.774 -0.3859 -0.2268  0.5489
  136OSM   H15S14793   6.513   3.282   7.786 -0.2977 -1.1501  0.2420
  136OSM   H15T14794   6.378   3.171   7.747 -3.1628  0.5058 -0.1648
  136OSM   C16S14795   6.356   3.317   7.915 -0.0374  0.1960 -0.4670
  136OSM   H16S14796   6.248   3.292   7.924 -0.0745  0.6816  0.5683
  136OSM   H16T14797   6.374   3.425   7.933 -2.4859  0.2695  2.2733
  136OSM   C17S14798   6.433   3.230   8.022 -0.1559 -0.1757 -0.4084
  136OSM   H17S14799   6.534   3.214   7.977 -0.1639  2.0572 -1.3269
  136OSM   H17T14800   6.387   3.129   8.029  0.1353 -0.1820  2.9816
  136OSM   C18S14801   6.440   3.300   8.151 -0.0645 -0.1088  0.1393
  136OSM   H18S14802   6.473   3.405   8.137  0.2819 -0.3917 -1.4194
  136OSM   H18T14803   6.502   3.244   8.224 -1.3055 -0.1204  1.2264
  136OSM   H18U14804   6.334   3.305   8.183 -0.2661 -1.3625 -0.2483
  136OSM    C1F14805   6.170   2.683   6.383 -0.0518 -0.3299 -0.0564
  136OSM     OF14806   6.228   2.626   6.292 -0.1696  0.0673  0.4504
  136OSM    C2F14807   6.060   2.615   6.457  0.1869 -0.5778 -0.3164
  136OSM    H2F14808   5.966   2.665   6.425 -1.0439 -2.9729 -0.6521
  136OSM    H2G14809   6.095   2.618   6.563 -0.0597 -4.3003 -0.0257
  136OSM    C3F14810   6.059   2.462   6.443  0.6861  0.5340  0.1984
  136OSM    H3F14811   6.154   2.419   6.481  2.3736  2.7491 -1.2175
  136OSM    H3G14812   6.058   2.433   6.335  0.5922 -2.0413  0.8322
  136OSM    C4F14813   5.949   2.400   6.524  1.0013  0.0478 -0.3203
  136OSM    H4F14814   5.951   2.288   6.525  1.7361 -0.0097  2.6270
  136OSM    H4G14815   5.849   2.429   6.487  0.9264 -0.4178 -0.4878
  136OSM    C5F14816   5.952   2.417   6.677 -0.0565  0.0510 -0.0409
  136OSM    H5F14817   5.935   2.525   6.694 -1.7859  0.4460 -3.4491
  136OSM    H5G14818   6.054   2.395   6.717 -0.1361  1.0405  0.7430
  136OSM    C6F14819   5.839   2.338   6.747 -0.2938 -0.1118 -0.6082
  136OSM    H6F14820   5.879   2.234   6.748  1.7163  0.5406 -2.8997
  136OSM    H6G14821   5.739   2.343   6.699 -0.3822  0.9934 -0.3192
  136OSM    C7F14822   5.829   2.389   6.891  0.3100  0.6472  0.0544
  136OSM    H7F14823   5.808   2.498   6.898  0.6034  0.7493 -0.6078
  136OSM    H7G14824   5.929   2.375   6.939  0.2130  2.8138  1.0230
  136OSM    C8F14825   5.725   2.307   6.979 -0.2606  0.4467 -0.4049
  136OSM    H8F14826   5.759   2.203   6.960 -2.4482 -0.4059  0.0266
  136OSM    H8G14827   5.625   2.321   6.932 -0.8212  1.4502  1.0057
  136OSM    C9F14828   5.717   2.340   7.129 -0.3745  0.3378  0.1220
  136OSM    H9F14829   5.650   2.421   7.162  1.8995  1.2938  2.6667
  136OSM   C10F14830   5.780   2.270   7.226 -0.6104 -0.0643  0.1063
  136OSM   H10F14831   5.774   2.309   7.329 -0.0561  3.3643 -1.0386
  136OSM   C11F14832   5.886   2.163   7.196  0.2704 -0.3287 -0.4695
  136OSM   H11F14833   5.933   2.180   7.096  1.0209  1.3384  0.1229
  136OSM   H11G14834   5.838   2.064   7.179 -0.6342 -0.0607  0.4320
  136OSM   C12F14835   6.008   2.166   7.290 -0.0124  0.0932 -0.8867
  136OSM   H12F14836   6.062   2.262   7.279 -1.0446  0.7731 -0.1911
  136OSM   H12G14837   6.088   2.099   7.252  0.2444 -1.8963  2.7830
  136OSM   C13F14838   5.986   2.130   7.434  0.6355  0.7997 -0.0519
  136OSM   H13F14839   5.904   2.190   7.478  0.3121  1.3234 -1.3212
  136OSM   H13G14840   6.079   2.149   7.492  1.6046  0.3739 -1.4003
  136OSM   C14F14841   5.953   1.977   7.448 -0.1418 -1.0885 -0.1893
  136OSM   H14F14842   6.043   1.933   7.400  0.2760 -0.0110 -0.4157
  136OSM   H14G14843   5.864   1.951   7.386 -0.6125  0.1318 -0.0541
  136OSM   C15F14844   5.950   1.928   7.596 -0.1537  0.2096  0.1779
  136OSM   H15F14845   6.050   1.944   7.642 -0.3244  1.3467  0.2055
  136OSM   H15G14846   5.936   1.818   7.599  4.2853 -0.5397  3.1177
  136OSM   C16F14847   5.850   2.010   7.686  0.4145 -0.4095  0.1883
  136OSM   H16F14848   5.904   2.104   7.713  0.0306 -0.1381  0.0316
  136OSM   H16G14849   5.838   1.954   7.781 -1.3250  3.3260  2.4160
  136OSM   C17F14850   5.709   2.033   7.625  0.6328  0.4675  0.4829
  136OSM   H17F14851   5.724   2.083   7.527  2.1667  2.0414  1.4728
  136OSM   H17G14852   5.652   2.107   7.685 -1.0500 -0.5640  0.2215
  136OSM   C18F14853   5.626   1.904   7.606 -0.6221  0.3157  0.5554
  136OSM   H18F14854   5.534   1.912   7.667 -1.3847  0.1725 -0.5337
  136OSM   H18G14855   5.676   1.813   7.646 -0.1855 -0.0352 -0.7223
  136OSM   H18H14856   5.595   1.887   7.500  0.4633 -0.2668  0.3147
  137OSM      N14857   2.297   6.327   6.297 -0.3675  0.0808  0.5914
  137OSM    C1514858   2.207   6.215   6.311 -0.0320  0.1491 -0.1502
  137OSM   H15A14859   2.195   6.163   6.216  1.4722  1.3823 -1.0570
  137OSM   H15B14860   2.107   6.246   6.339 -0.8885 -2.3680 -0.1395
  137OSM   H15C14861   2.243   6.140   6.380  0.2617 -0.1088 -0.5800
  137OSM    C1414862   2.416   6.281   6.221  0.4268  0.5048  0.0169
  137OSM   H14A14863   2.388   6.250   6.122 -1.8084 -2.9552  1.5506
  137OSM   H14B14864   2.450   6.191   6.272  1.0536 -0.9639 -2.8069
  137OSM   H14C14865   2.504   6.343   6.213 -1.0894  2.4539 -3.3128
  137OSM    C1314866   2.234   6.433   6.212 -0.2125 -0.5356 -0.0023
  137OSM   H13A14867   2.204   6.399   6.114  0.9493 -2.0676  0.1340
  137OSM   H13B14868   2.297   6.518   6.188  0.4484 -1.7336 -3.0108
  137OSM   H13C14869   2.140   6.457   6.259  0.1119 -0.8394  0.8119
  137OSM    C1214870   2.337   6.387   6.429 -0.0171  1.1497  0.6418
  137OSM   H12A14871   2.414   6.458   6.407  0.3554  0.8580  0.9928
  137OSM   H12B14872   2.383   6.315   6.495 -0.6770  1.3617  1.3609
  137OSM    C1114873   2.233   6.460   6.507 -0.1021 -0.8763 -0.3336
  137OSM   H11A14874   2.183   6.541   6.449  1.5985  0.0676 -0.5425
  137OSM   H11B14875   2.296   6.507   6.585  2.1994 -0.5969 -2.2484
  137OSM      P14876   1.974   6.392   6.538  0.1899 -0.2227 -0.0714
  137OSM    O1314877   1.940   6.532   6.524  0.1051  0.0568 -0.5977
  137OSM    O1414878   1.919   6.307   6.433 -0.5340  0.3821  0.5502
  137OSM    O1114879   1.937   6.331   6.682  0.1778 -0.4788  0.6105
  137OSM    O1214880   2.132   6.368   6.555 -0.5540  0.4075  0.1608
  137OSM    C1S14881   2.007   6.392   6.793  0.7962  0.6310  0.0517
  137OSM    H1S14882   1.991   6.502   6.788 -1.1767  0.3220 -1.8314
  137OSM    H1T14883   2.117   6.380   6.790  0.7283  0.2178 -2.4142
  137OSM     NF14884   1.990   6.430   7.035 -0.6801 -0.6296 -0.3701
  137OSM    HNF14885   2.050   6.384   7.099  0.2961 -0.6886 -1.3032
  137OSM    C2S14886   1.936   6.349   6.925 -1.3091 -0.5193  0.3164
  137OSM    H2S14887   1.828   6.366   6.908 -1.2370 -0.2931  0.0722
  137OSM    C3S14888   1.941   6.199   6.953  0.0422 -0.1058  0.0306
  137OSM    H3S14889   2.042   6.181   6.994 -0.1577 -2.3322 -0.3280
  137OSM     O314890   1.938   6.114   6.841  0.0614 -0.9771 -0.3177
  137OSM    HO314891   1.948   6.181   6.774  2.4425 -0.9436 -0.0121
  137OSM    C4S14892   1.847   6.160   7.072  0.4108 -0.0765  0.0424
  137OSM    H4S14893   1.883   6.209   7.163  0.1031 -1.2684  0.8181
  137OSM    C5S14894   1.730   6.089   7.081  0.0411 -0.0804  0.4227
  137OSM    H5S14895   1.676   6.056   6.991 -0.3579 -1.3961  1.1183
  137OSM    C6S14896   1.660   6.060   7.207 -0.1980 -0.3833 -0.2089
  137OSM    H6S14897   1.616   5.958   7.203 -0.2573 -0.5858  2.8973
  137OSM    H6T14898   1.573   6.128   7.225  0.1335  0.5865 -2.0784
  137OSM    C7S14899   1.749   6.063   7.334 -0.5620 -0.6111  0.4194
  137OSM    H7S14900   1.797   6.163   7.338  0.2963 -1.0116  0.4094
  137OSM    H7T14901   1.831   5.991   7.311 -0.0210 -0.0370  0.5277
  137OSM    C8S14902   1.679   6.024   7.457  0.1465 -0.3684 -0.3023
  137OSM    H8S14903   1.636   5.922   7.448  0.0338 -0.3017 -0.5078
  137OSM    H8T14904   1.591   6.086   7.481 -1.2178 -2.5685  0.6560
  137OSM    C9S14905   1.763   6.018   7.590  0.1972  0.4645 -0.1596
  137OSM    H9S14906   1.803   6.120   7.608 -0.9621  0.9625 -0.3175
  137OSM    H9T14907   1.848   5.948   7.575 -0.4238 -0.1899 -0.7532
  137OSM   C10S14908   1.692   5.960   7.713  0.1910 -0.3029 -0.0614
  137OSM   H10S14909   1.660   5.855   7.696  0.1437  0.0818 -2.7430
  137OSM   H10T14910   1.603   6.023   7.736 -0.0308 -1.3797  2.3289
  137OSM   C11S14911   1.770   5.965   7.845  0.6306 -0.1449 -0.0255
  137OSM   H11S14912   1.814   6.066   7.866 -1.0858  0.3223  1.6169
  137OSM   H11T14913   1.858   5.900   7.827 -0.4113 -1.4721 -0.4425
  137OSM   C12S14914   1.691   5.923   7.969  0.0637  0.1595 -0.5736
  137OSM   H12S14915   1.638   5.827   7.948  0.3349  0.1336 -1.1882
  137OSM   H12T14916   1.620   6.001   8.002 -0.0152 -0.9692  2.2073
  137OSM   C13S14917   1.788   5.893   8.083  0.5073 -0.0227 -0.5638
  137OSM   H13S14918   1.847   5.987   8.091 -0.8907  1.0240 -1.8633
  137OSM   H13T14919   1.854   5.806   8.062  0.7097  0.2399 -1.0295
  137OSM   C14S14920   1.714   5.879   8.218 -0.2305 -0.4144 -0.0594
  137OSM   H14S14921   1.631   5.806   8.206 -0.9411  0.0317  1.7920
  137OSM   H14T14922   1.665   5.977   8.235  0.9447  0.7984 -3.0216
  137OSM   C15S14923   1.814   5.842   8.333  0.3287  0.0237  0.3089
  137OSM   H15S14924   1.897   5.916   8.334 -1.9630  2.7824  0.1171
  137OSM   H15T14925   1.850   5.741   8.304 -0.0721  0.0622 -0.3296
  137OSM   C16S14926   1.744   5.831   8.471 -0.0503 -0.4152  0.4298
  137OSM   H16S14927   1.743   5.722   8.493  0.7620 -0.3745  0.6712
  137OSM   H16T14928   1.638   5.864   8.462  0.5153  0.8582 -3.1285
  137OSM   C17S14929   1.802   5.910   8.587 -0.4449 -0.1709  0.3495
  137OSM   H17S14930   1.908   5.887   8.613 -0.0067  0.0711 -1.1077
  137OSM   H17T14931   1.749   5.891   8.683  0.3159 -0.1287  0.7856
  137OSM   C18S14932   1.793   6.061   8.566 -0.3254 -0.2409 -0.5389
  137OSM   H18S14933   1.864   6.100   8.490  2.5338 -3.3923  0.2667
  137OSM   H18T14934   1.821   6.113   8.660  1.4421 -1.6137 -0.2508
  137OSM   H18U14935   1.693   6.098   8.537  0.1597 -0.0079 -2.0089
  137OSM    C1F14936   1.974   6.567   7.059 -0.2396 -0.5405  0.2632
  137OSM     OF14937   1.920   6.643   6.980  0.3297  0.2302 -0.4346
  137OSM    C2F14938   2.023   6.612   7.190 -0.1382  0.2235 -0.6315
  137OSM    H2F14939   2.134   6.610   7.184 -0.1682  0.1915 -1.2807
  137OSM    H2G14940   2.001   6.536   7.268  1.5229  1.8531  1.5435
  137OSM    C3F14941   1.974   6.750   7.226 -0.3330 -0.1264 -0.8518
  137OSM    H3F14942   1.863   6.748   7.237 -0.4593  1.8786 -1.3380
  137OSM    H3G14943   1.998   6.825   7.147  1.8707  0.6072  0.4284
  137OSM    C4F14944   2.036   6.808   7.358  0.4222 -0.2751 -0.0810
  137OSM    H4F14945   2.145   6.821   7.346  0.8622 -1.4013  2.1211
  137OSM    H4G14946   2.020   6.723   7.428 -0.1861  1.3042  1.7799
  137OSM    C5F14947   1.962   6.924   7.423 -0.5831 -0.1874 -1.2673
  137OSM    H5F14948   1.852   6.910   7.424 -0.4503 -1.2802 -0.9725
  137OSM    H5G14949   1.990   7.015   7.365 -1.5151 -0.9644 -3.0408
  137OSM    C6F14950   2.000   6.937   7.572  0.4067  0.6237  0.2132
  137OSM    H6F14951   1.988   7.041   7.610 -0.0303  0.7072 -0.1438
  137OSM    H6G14952   2.107   6.908   7.576  0.2655 -0.1131 -0.9918
  137OSM    C7F14953   1.913   6.841   7.659  0.1170 -0.1515 -0.2907
  137OSM    H7F14954   1.909   6.731   7.645  1.4600 -0.4355  1.2416
  137OSM    H7G14955   1.808   6.869   7.637  0.1286  1.0281  0.9757
  137OSM    C8F14956   1.935   6.860   7.806 -0.7566  0.3747  0.6410
  137OSM    H8F14957   1.843   6.825   7.857  0.1171 -2.7471  0.2691
  137OSM    H8G14958   1.945   6.966   7.836 -1.0521 -0.1469  2.8057
  137OSM    C9F14959   2.050   6.775   7.851  0.3784  0.7587  0.0042
  137OSM    H9F14960   2.144   6.820   7.814  0.9954  2.1243  2.9667
  137OSM   C10F14961   2.055   6.682   7.949 -0.1815 -0.1425  0.5154
  137OSM   H10F14962   2.157   6.652   7.977 -0.1125 -1.0611 -0.6430
  137OSM   C11F14963   1.942   6.631   8.035  0.0730 -0.0013  0.7511
  137OSM   H11F14964   1.878   6.561   7.978  0.5930  1.8792 -2.3964
  137OSM   H11G14965   1.885   6.718   8.073 -2.4520 -2.3680  2.8006
  137OSM   C12F14966   1.995   6.569   8.164 -0.1501 -0.3128 -0.9172
  137OSM   H12F14967   2.042   6.647   8.227 -3.7953  0.0344  1.6735
  137OSM   H12G14968   2.069   6.490   8.140  0.8480  0.1565  0.5104
  137OSM   C13F14969   1.887   6.510   8.244  0.3427  0.4865  0.0216
  137OSM   H13F14970   1.855   6.418   8.191 -0.0582  0.2110  0.7335
  137OSM   H13G14971   1.803   6.580   8.261 -0.3634 -1.0041  3.4622
  137OSM   C14F14972   1.941   6.457   8.389  0.4031 -0.6475 -0.0974
  137OSM   H14F14973   1.998   6.545   8.425 -1.1344 -0.7056  2.7613
  137OSM   H14G14974   2.016   6.376   8.380 -0.4920 -1.2510 -3.0882
  137OSM   C15F14975   1.833   6.434   8.497 -0.0210 -0.1732 -0.0329
  137OSM   H15F14976   1.789   6.333   8.486  0.7754 -0.4134 -1.1858
  137OSM   H15G14977   1.753   6.510   8.493 -2.2214 -2.4051 -0.9006
  137OSM   C16F14978   1.894   6.446   8.639 -0.0809  0.8721 -0.1274
  137OSM   H16F14979   1.935   6.546   8.666 -0.1416  1.0096 -0.5331
  137OSM   H16G14980   1.975   6.372   8.654 -2.4902 -2.1800 -1.1648
  137OSM   C17F14981   1.782   6.419   8.748 -0.6822  0.0473  0.9590
  137OSM   H17F14982   1.740   6.316   8.739 -0.9987  0.0930  1.7990
  137OSM   H17G14983   1.699   6.493   8.744 -1.0990 -0.3455  1.9086
  137OSM   C18F14984   1.844   6.432   8.889  0.2416 -0.1871 -0.2986
  137OSM   H18F14985   1.881   6.535   8.907  1.9996 -0.9066  0.4673
  137OSM   H18G14986   1.918   6.355   8.918 -0.7463 -0.3853  1.9074
  137OSM   H18H14987   1.767   6.431   8.969  1.4097  0.9023  0.8994
  138OSM      N14988   3.271   3.403   6.231 -0.4678  0.5738  0.5600
  138OSM    C1514989   3.346   3.283   6.178  0.4538 -0.5602  0.0617
  138OSM   H15A14990   3.274   3.203   6.177 -2.0587  1.5582 -1.3502
  138OSM   H15B14991   3.438   3.253   6.226  1.1771 -0.3117 -1.1236
  138OSM   H15C14992   3.383   3.295   6.078  0.7276  2.1057  0.4022
  138OSM    C1414993   3.374   3.502   6.236  0.4401 -0.7167  0.0649
  138OSM   H14A14994   3.332   3.599   6.260  0.1119 -1.0999  1.0764
  138OSM   H14B14995   3.409   3.528   6.137  1.6127 -0.9197  0.4125
  138OSM   H14C14996   3.459   3.480   6.299  1.0565  1.0208 -0.0958
  138OSM    C1314997   3.169   3.444   6.117 -0.0579 -0.3262  0.2794
  138OSM   H13A14998   3.097   3.364   6.103 -0.6142 -0.0528  1.4277
  138OSM   H13B14999   3.228   3.472   6.031 -3.6548  2.5396 -1.5502
  138OSM   H13C15000   3.123   3.537   6.148  0.1835  0.2845 -1.1395
  138OSM    C1215001   3.213   3.377   6.361 -1.1411  0.0019 -0.7780
  138OSM   H12A15002   3.201   3.466   6.420  0.8707  0.6987 -1.3486
  138OSM   H12B15003   3.281   3.326   6.428 -3.1361 -0.2088  1.2038
  138OSM    C1115004   3.085   3.288   6.379  1.3258  0.0389  0.6544
  138OSM   H11A15005   2.996   3.342   6.339  1.0193 -2.0189 -1.6766
  138OSM   H11B15006   3.064   3.274   6.487  0.3534  0.2850  0.5067
  138OSM      P15007   3.141   3.044   6.398 -0.3760  0.3978  0.2425
  138OSM    O1315008   3.151   2.933   6.301 -0.6088 -0.7014  0.0081
  138OSM    O1415009   3.266   3.083   6.467 -0.1441  0.7877 -0.0292
  138OSM    O1115010   3.024   3.019   6.499  0.6270 -0.2071 -0.1507
  138OSM    O1215011   3.092   3.163   6.308 -0.6420  0.6864  0.1316
  138OSM    C1S15012   3.023   2.897   6.577  0.2224 -0.5229  0.2962
  138OSM    H1S15013   3.127   2.866   6.599 -0.1180 -0.6187  1.8683
  138OSM    H1T15014   2.985   2.815   6.512  3.6329 -1.1787 -1.0820
  138OSM     NF15015   3.016   2.834   6.810 -0.0296  0.5391  0.4297
  138OSM    HNF15016   2.989   2.739   6.815  1.0829  0.1205 -1.0064
  138OSM    C2S15017   2.955   2.919   6.711 -0.0894  0.4415 -0.2463
  138OSM    H2S15018   2.953   3.023   6.748 -1.3934 -0.4047  2.2902
  138OSM    C3S15019   2.803   2.889   6.693 -0.1364  0.3984  0.0612
  138OSM    H3S15020   2.795   2.780   6.672  1.2100  0.3094 -0.0262
  138OSM     O315021   2.741   2.954   6.582  0.2237 -1.2486 -0.5287
  138OSM    HO315022   2.810   2.992   6.527  0.1696  0.0950  0.3227
  138OSM    C4S15023   2.733   2.904   6.826 -0.6328  0.4535 -0.0531
  138OSM    H4S15024   2.738   2.807   6.878  1.4215  0.2368 -0.5484
  138OSM    C5S15025   2.668   3.007   6.882 -0.1032  0.5739 -0.2730
  138OSM    H5S15026   2.663   3.102   6.825 -0.0558  0.6024 -0.2291
  138OSM    C6S15027   2.607   3.009   7.022 -0.2552  0.0839 -0.9487
  138OSM    H6S15028   2.496   3.007   7.015 -0.2663 -1.4557 -0.5888
  138OSM    H6T15029   2.633   3.105   7.072  1.7765 -0.5719 -0.6510
  138OSM    C7S15030   2.645   2.903   7.123 -0.6346 -0.6034 -0.1684
  138OSM    H7S15031   2.754   2.901   7.146 -0.2488  1.7271 -1.5295
  138OSM    H7T15032   2.605   2.809   7.080 -1.1942  0.1321 -1.2853
  138OSM    C8S15033   2.572   2.933   7.256 -0.3165 -0.0733  0.2276
  138OSM    H8S15034   2.466   2.904   7.239 -0.5368  0.3609  0.8639
  138OSM    H8T15035   2.573   3.043   7.270 -1.4215  0.0116 -0.2310
  138OSM    C9S15036   2.633   2.856   7.379 -0.0931 -0.1741  0.9846
  138OSM    H9S15037   2.740   2.885   7.387 -0.5590  1.0371  3.5496
  138OSM    H9T15038   2.617   2.747   7.367  1.0801 -0.3480  0.8782
  138OSM   C10S15039   2.568   2.902   7.507  0.8294 -0.1099 -0.2144
  138OSM   H10S15040   2.458   2.898   7.502  0.7656  1.4085 -0.5329
  138OSM   H10T15041   2.602   3.007   7.518  3.6623 -0.7271 -2.0789
  138OSM   C11S15042   2.610   2.815   7.631 -0.2883  0.9246 -0.3842
  138OSM   H11S15043   2.721   2.817   7.639 -0.4169  0.5681  2.2264
  138OSM   H11T15044   2.570   2.713   7.615 -1.6941  1.2802  0.6544
  138OSM   C12S15045   2.564   2.882   7.763 -0.5956 -0.0087 -0.7195
  138OSM   H12S15046   2.461   2.923   7.760 -0.7559 -0.3139  0.2750
  138OSM   H12T15047   2.633   2.968   7.779 -3.6810  2.8790 -1.7197
  138OSM   C13S15048   2.596   2.790   7.875 -0.0266 -0.4496 -1.7759
  138OSM   H13S15049   2.693   2.737   7.863  1.3347  1.2527  0.7169
  138OSM   H13T15050   2.528   2.703   7.893  2.6325 -2.1074  1.4796
  138OSM   C14S15051   2.603   2.867   8.015  0.2187 -0.4451  0.0419
  138OSM   H14S15052   2.511   2.918   8.048  1.1082  2.9224 -2.1810
  138OSM   H14T15053   2.676   2.945   7.985  1.9376 -1.1280  2.1736
  138OSM   C15S15054   2.678   2.783   8.121  0.6217 -1.1845  0.2278
  138OSM   H15S15055   2.784   2.758   8.099  1.1210  0.5769  0.4421
  138OSM   H15T15056   2.617   2.694   8.145 -0.2397 -0.6780 -0.0251
  138OSM   C16S15057   2.696   2.869   8.255 -0.0811 -0.3088 -0.0847
  138OSM   H16S15058   2.594   2.910   8.273  0.1790  1.6637 -2.6075
  138OSM   H16T15059   2.761   2.955   8.227 -0.3009 -0.1646 -0.1517
  138OSM   C17S15060   2.768   2.792   8.363  0.5131 -0.3576  0.0423
  138OSM   H17S15061   2.710   2.704   8.399  1.9839 -1.3230  0.1502
  138OSM   H17T15062   2.784   2.855   8.453  1.5509 -0.8066  0.1876
  138OSM   C18S15063   2.908   2.732   8.327  0.5509  0.7114  0.5361
  138OSM   H18S15064   2.900   2.662   8.241  0.4817  0.4557  0.7512
  138OSM   H18T15065   2.949   2.673   8.411  0.5593  2.1383  1.5684
  138OSM   H18U15066   2.979   2.816   8.310  0.8783  1.0197  3.0562
  138OSM    C1F15067   3.135   2.856   6.868 -0.1223  0.5197 -0.2306
  138OSM     OF15068   3.204   2.952   6.826  0.5852  0.5725 -0.1870
  138OSM    C2F15069   3.175   2.750   6.966  0.3634 -0.2210  0.2057
  138OSM    H2F15070   3.271   2.715   6.921 -0.7978 -3.0090 -0.2416
  138OSM    H2G15071   3.095   2.674   6.963 -0.1929  0.3799 -0.7571
  138OSM    C3F15072   3.189   2.796   7.117  0.4080  0.3161  0.8026
  138OSM    H3F15073   3.263   2.879   7.118  0.1417  0.5977 -0.5460
  138OSM    H3G15074   3.232   2.713   7.178  0.3086  0.4814  1.0983
  138OSM    C4F15075   3.054   2.843   7.175 -0.5603  0.5834 -0.0137
  138OSM    H4F15076   2.983   2.761   7.152  0.9024 -1.3614  1.9919
  138OSM    H4G15077   3.027   2.932   7.114  0.1026  0.2580 -0.7973
  138OSM    C5F15078   3.061   2.872   7.329 -0.5503  0.3934  0.3100
  138OSM    H5F15079   2.963   2.921   7.348 -0.1294  0.9766  1.0635
  138OSM    H5G15080   3.144   2.943   7.349 -1.1658  0.7930  1.5317
  138OSM    C6F15081   3.079   2.749   7.410 -0.0904  0.1037 -0.2448
  138OSM    H6F15082   3.179   2.702   7.420  0.0165 -0.1479 -2.2217
  138OSM    H6G15083   3.025   2.668   7.357 -2.1147  1.9009 -1.0596
  138OSM    C7F15084   3.026   2.765   7.556 -0.1884  0.5102 -0.2409
  138OSM    H7F15085   2.915   2.760   7.560 -0.2304 -2.5404 -1.9530
  138OSM    H7G15086   3.056   2.870   7.578 -0.7867  0.7294 -0.4524
  138OSM    C8F15087   3.090   2.668   7.666  0.5968 -0.2904 -0.5600
  138OSM    H8F15088   3.201   2.673   7.659  0.7661  0.2820  1.6838
  138OSM    H8G15089   3.048   2.574   7.624  1.5429 -0.4432 -1.1983
  138OSM    C9F15090   3.041   2.710   7.806 -0.0971  0.3658  0.0224
  138OSM    H9F15091   2.939   2.752   7.809 -0.2646 -0.0285 -0.1256
  138OSM   C10F15092   3.122   2.712   7.914 -0.6423  0.3634  0.3735
  138OSM   H10F15093   3.079   2.740   8.011 -1.8584 -2.2258  0.6819
  138OSM   C11F15094   3.270   2.677   7.925 -0.3402  0.7895 -0.6168
  138OSM   H11F15095   3.315   2.759   7.984  0.2147 -0.8060  1.2752
  138OSM   H11G15096   3.329   2.643   7.837  2.6961 -0.8480  1.8558
  138OSM   C12F15097   3.277   2.550   8.022 -0.0260 -0.0754  0.0646
  138OSM   H12F15098   3.382   2.515   8.018  0.7485  2.1839 -1.6218
  138OSM   H12G15099   3.204   2.473   7.989  0.5823 -0.6830  0.1239
  138OSM   C13F15100   3.236   2.581   8.162 -0.1260  0.3433  0.0946
  138OSM   H13F15101   3.134   2.624   8.170  1.9882  6.1434  0.4295
  138OSM   H13G15102   3.298   2.669   8.187 -1.7799  2.3715 -2.3953
  138OSM   C14F15103   3.260   2.450   8.246  0.1351  0.2214  0.7311
  138OSM   H14F15104   3.357   2.411   8.208 -0.4837 -0.8461  0.1803
  138OSM   H14G15105   3.188   2.375   8.207 -1.1444  0.3586  2.7404
  138OSM   C15F15106   3.259   2.464   8.395  0.0834 -0.5832  0.8055
  138OSM   H15F15107   3.171   2.526   8.423 -1.0330 -2.1084  0.8194
  138OSM   H15G15108   3.356   2.509   8.424 -0.2457 -0.4632  1.7568
  138OSM   C16F15109   3.255   2.330   8.456  0.6661  0.4028 -0.3191
  138OSM   H16F15110   3.338   2.262   8.429  1.0354 -0.2625  2.1641
  138OSM   H16G15111   3.175   2.257   8.428  1.5708 -0.4049 -0.8551
  138OSM   C17F15112   3.272   2.337   8.613  0.3943 -0.0732 -0.0487
  138OSM   H17F15113   3.196   2.403   8.660 -2.8675 -3.2700 -0.3946
  138OSM   H17G15114   3.369   2.384   8.641  1.2480 -2.0565  0.5178
  138OSM   C18F15115   3.268   2.201   8.690 -0.2635 -0.1777  0.4889
  138OSM   H18F15116   3.343   2.129   8.650 -0.3670  1.0055 -2.0066
  138OSM   H18G15117   3.163   2.166   8.688 -0.7206  1.1909 -0.7874
  138OSM   H18H15118   3.286   2.210   8.800  1.2072 -0.5795  0.3030
  139OSM      N15119   2.503   3.870   6.137  0.4695  0.0688  0.4498
  139OSM    C1515120   2.602   3.956   6.195 -0.2661 -0.5374  0.4202
  139OSM   H15A15121   2.592   4.061   6.171  0.1087 -1.0916 -2.5123
  139OSM   H15B15122   2.693   3.937   6.140 -1.5296  0.4760 -2.2129
  139OSM   H15C15123   2.613   3.958   6.302  0.7258 -0.1123  0.3216
  139OSM    C1415124   2.493   3.899   5.987  0.1301  0.6840  0.1576
  139OSM   H14A15125   2.588   3.881   5.939  0.9273  1.8749  1.1980
  139OSM   H14B15126   2.467   4.001   5.964 -1.0007 -0.1206 -2.4942
  139OSM   H14C15127   2.411   3.844   5.943 -0.9694  2.0921  0.3633
  139OSM    C1315128   2.555   3.733   6.147  0.4831  0.4465  0.3021
  139OSM   H13A15129   2.487   3.651   6.130  0.9728 -0.0747  0.8080
  139OSM   H13B15130   2.575   3.718   6.252 -0.3454 -1.0879  0.2647
  139OSM   H13C15131   2.637   3.716   6.079 -0.1991 -2.5433  0.0705
  139OSM    C1215132   2.370   3.877   6.211 -0.8872 -0.0806 -0.2826
  139OSM   H12A15133   2.347   3.981   6.226 -2.4364 -0.0611 -2.3237
  139OSM   H12B15134   2.391   3.837   6.309  1.2564  0.9133 -0.2780
  139OSM    C1115135   2.251   3.806   6.149 -0.8675  0.4101 -0.2601
  139OSM   H11A15136   2.290   3.709   6.113  2.4708  0.8179  1.7951
  139OSM   H11B15137   2.212   3.862   6.062 -0.7503 -1.1628 -1.3485
  139OSM      P15138   2.049   3.899   6.275  0.2190 -0.4550  0.0927
  139OSM    O1315139   2.098   4.027   6.211 -0.5647 -0.1250  0.1609
  139OSM    O1415140   1.913   3.853   6.238 -0.2231 -0.6253 -0.4810
  139OSM    O1115141   2.063   3.915   6.435  0.0312 -0.3924 -0.2139
  139OSM    O1215142   2.155   3.785   6.251 -1.2726  0.6259 -0.4972
  139OSM    C1S15143   1.995   4.025   6.502  0.1848 -0.0119 -0.1494
  139OSM    H1S15144   1.887   4.016   6.478 -0.0430 -2.1859  1.4000
  139OSM    H1T15145   2.022   4.127   6.467 -0.7052  0.5551  0.7651
  139OSM     NF15146   1.913   4.104   6.716 -0.2289 -0.0910 -0.0766
  139OSM    HNF15147   1.942   4.192   6.752  0.7712 -0.6884  0.6380
  139OSM    C2S15148   2.009   4.020   6.653  0.0454 -0.2528 -0.5657
  139OSM    H2S15149   1.985   3.913   6.673  3.1676 -1.2471 -1.4891
  139OSM    C3S15150   2.158   4.043   6.692 -0.1484  0.1961  0.6719
  139OSM    H3S15151   2.187   4.149   6.678 -0.1859 -0.0480 -1.8385
  139OSM     O315152   2.256   3.973   6.612 -0.0677 -0.1963 -0.3901
  139OSM    HO315153   2.211   3.941   6.534 -0.6169  1.6070 -0.8759
  139OSM    C4S15154   2.177   4.006   6.836  0.3689  0.2475 -0.6827
  139OSM    H4S15155   2.166   3.899   6.858  2.0340  0.1938  0.0554
  139OSM    C5S15156   2.186   4.097   6.939 -0.4548  0.1850 -0.4443
  139OSM    H5S15157   2.173   4.202   6.909 -0.5933  0.5822  0.9212
  139OSM    C6S15158   2.201   4.056   7.081 -0.1490  0.2553 -0.2830
  139OSM    H6S15159   2.203   4.153   7.134  2.3438  0.7426 -1.1402
  139OSM    H6T15160   2.293   3.999   7.107 -0.0844  0.0056 -1.0180
  139OSM    C7S15161   2.076   3.972   7.117  0.0616 -0.4302 -1.0292
  139OSM    H7S15162   2.057   3.898   7.036 -0.3723 -0.5266 -0.8430
  139OSM    H7T15163   1.989   4.040   7.118 -1.1691 -1.9446 -0.1497
  139OSM    C8S15164   2.088   3.890   7.245 -0.2336 -0.4636  0.2792
  139OSM    H8S15165   2.188   3.840   7.240  0.3662  0.5222  1.7752
  139OSM    H8T15166   2.016   3.810   7.269  0.2746 -0.5776  1.4833
  139OSM    C9S15167   2.079   3.987   7.363 -0.3328 -0.3648 -0.3793
  139OSM    H9S15168   1.986   4.048   7.360  0.0816  0.2542 -0.9643
  139OSM    H9T15169   2.161   4.062   7.360 -1.1541  0.5725 -0.1205
  139OSM   C10S15170   2.104   3.920   7.501  0.9922 -0.1687  0.1028
  139OSM   H10S15171   2.030   3.839   7.517  1.7110 -0.8976 -0.1376
  139OSM   H10T15172   2.080   3.980   7.591 -2.7222 -2.4770  0.8765
  139OSM   C11S15173   2.240   3.866   7.527 -0.3043 -0.0008  0.1185
  139OSM   H11S15174   2.307   3.955   7.522  0.1847 -0.4270 -1.8281
  139OSM   H11T15175   2.271   3.790   7.452  2.2023 -0.6438  1.6994
  139OSM   C12S15176   2.250   3.807   7.667 -0.1191  0.5668  0.3744
  139OSM   H12S15177   2.197   3.871   7.741  0.1321  0.3993  0.7027
  139OSM   H12T15178   2.357   3.806   7.697 -0.0527 -1.3497  0.1979
  139OSM   C13S15179   2.190   3.666   7.689 -0.1693  0.0145  0.4801
  139OSM   H13S15180   2.233   3.605   7.606  1.2083 -0.3683  1.4353
  139OSM   H13T15181   2.082   3.678   7.665  0.2511  0.3990 -1.3772
  139OSM   C14S15182   2.224   3.610   7.834 -0.0736  0.0620 -0.0076
  139OSM   H14S15183   2.333   3.600   7.854  0.2428  0.4281 -1.4183
  139OSM   H14T15184   2.177   3.509   7.841  0.2530 -0.1663 -0.8839
  139OSM   C15S15185   2.174   3.692   7.949  0.0994  0.6934 -0.3685
  139OSM   H15S15186   2.067   3.714   7.928  0.0591  1.1030  0.2647
  139OSM   H15T15187   2.220   3.791   7.966 -0.8916  1.2961 -1.0448
  139OSM   C16S15188   2.173   3.623   8.083 -1.0050  0.4387 -0.0435
  139OSM   H16S15189   2.152   3.514   8.073 -0.6890  0.2395  1.2640
  139OSM   H16T15190   2.091   3.666   8.144 -1.6393  0.7432 -1.0844
  139OSM   C17S15191   2.300   3.648   8.172  0.3508 -0.0584 -0.4873
  139OSM   H17S15192   2.386   3.627   8.105  1.0471  1.4935 -0.1180
  139OSM   H17T15193   2.300   3.571   8.252  0.3490 -1.3840 -1.7193
  139OSM   C18S15194   2.326   3.790   8.241 -0.6133  0.2345  0.5956
  139OSM   H18S15195   2.323   3.873   8.167  1.4310  1.0855  1.4014
  139OSM   H18T15196   2.420   3.799   8.299  0.2853 -1.8126 -0.4654
  139OSM   H18U15197   2.234   3.804   8.302 -0.3546 -1.6356  1.4695
  139OSM    C1F15198   1.778   4.074   6.723 -0.7623  0.2803  0.0649
  139OSM     OF15199   1.747   3.956   6.690  0.1176  0.6353 -0.3778
  139OSM    C2F15200   1.683   4.174   6.775  0.1634  0.8102 -0.0954
  139OSM    H2F15201   1.604   4.173   6.696 -1.1694  0.0457  1.1855
  139OSM    H2G15202   1.716   4.279   6.788  1.4898  0.3023  0.8483
  139OSM    C3F15203   1.614   4.130   6.907 -0.2936  0.0165 -0.4729
  139OSM    H3F15204   1.554   4.039   6.885  2.7082 -2.2826  0.0773
  139OSM    H3G15205   1.546   4.214   6.932 -1.0482 -0.7640  0.1442
  139OSM    C4F15206   1.707   4.091   7.018  0.1722  0.3764 -0.2312
  139OSM    H4F15207   1.796   4.157   7.019  2.2437 -2.2156 -0.8293
  139OSM    H4G15208   1.736   3.984   7.007 -1.6111 -0.2528  0.7859
  139OSM    C5F15209   1.630   4.114   7.153 -0.1123  0.3174  0.9846
  139OSM    H5F15210   1.528   4.071   7.143 -0.1303  0.5491  0.0418
  139OSM    H5G15211   1.611   4.223   7.166  0.2795  0.9332 -2.4928
  139OSM    C6F15212   1.694   4.054   7.282 -0.6673  0.6996 -0.8502
  139OSM    H6F15213   1.793   4.103   7.293  0.5371 -1.7115 -0.1492
  139OSM    H6G15214   1.721   3.948   7.260 -0.5153 -0.2708  3.2006
  139OSM    C7F15215   1.598   4.056   7.404  0.1052 -0.2925 -0.1479
  139OSM    H7F15216   1.497   4.024   7.371 -0.6099  0.6247  1.0737
  139OSM    H7G15217   1.578   4.157   7.444 -1.8153 -0.6819 -0.0270
  139OSM    C8F15218   1.652   3.983   7.523  0.3003  0.0987  0.3856
  139OSM    H8F15219   1.745   4.034   7.556  1.5027 -1.1581 -0.9648
  139OSM    H8G15220   1.693   3.885   7.492 -3.3645 -1.2476 -0.7362
  139OSM    C9F15221   1.546   3.966   7.624 -0.2320  0.7373  0.4659
  139OSM    H9F15222   1.459   3.919   7.575 -0.4156  0.8650  0.6656
  139OSM   C10F15223   1.546   3.965   7.758  0.4507 -0.1317 -0.2906
  139OSM   H10F15224   1.455   3.947   7.816 -1.1415 -1.3344 -2.9689
  139OSM   C11F15225   1.669   4.017   7.830 -0.0493 -0.1802 -0.4066
  139OSM   H11F15226   1.628   4.085   7.908 -3.0999 -1.3603 -0.8502
  139OSM   H11G15227   1.731   4.082   7.764 -1.2847  1.8056  0.2816
  139OSM   C12F15228   1.757   3.909   7.893 -0.0995  0.4117 -0.4004
  139OSM   H12F15229   1.786   3.840   7.811 -1.9929  0.5885 -1.2799
  139OSM   H12G15230   1.697   3.847   7.962  0.8006 -2.1235 -1.7739
  139OSM   C13F15231   1.881   3.973   7.960  0.6569 -0.6485  0.9432
  139OSM   H13F15232   1.941   4.042   7.897  0.6716  0.2754  1.9463
  139OSM   H13G15233   1.948   3.890   7.990  2.0615 -0.7760 -2.0962
  139OSM   C14F15234   1.839   4.051   8.081 -0.3579  0.1551 -0.8422
  139OSM   H14F15235   1.769   3.985   8.137  0.3471 -1.1392 -1.4431
  139OSM   H14G15236   1.789   4.147   8.055 -1.7399 -0.4611 -0.5596
  139OSM   C15F15237   1.955   4.092   8.165 -0.3499 -0.5062 -0.2081
  139OSM   H15F15238   1.928   4.157   8.251  1.5580 -0.1396  0.1714
  139OSM   H15G15239   2.029   4.155   8.111  0.2533 -0.0564  1.1062
  139OSM   C16F15240   2.033   3.976   8.231 -1.3082  0.0356  0.0822
  139OSM   H16F15241   2.118   4.012   8.293 -0.9987  0.1029 -0.3718
  139OSM   H16G15242   2.086   3.911   8.157  0.3369 -0.0340  1.2661
  139OSM   C17F15243   1.947   3.889   8.329  0.7928  0.8147 -0.0429
  139OSM   H17F15244   1.996   3.793   8.358  0.1982  0.6907  0.5881
  139OSM   H17G15245   1.857   3.850   8.276 -0.1271  0.0044  2.0049
  139OSM   C18F15246   1.903   3.953   8.460 -0.1767 -0.0088 -0.1630
  139OSM   H18F15247   1.993   3.943   8.524  0.3042  0.7774 -0.6877
  139OSM   H18G15248   1.829   3.890   8.514 -1.2020  0.5686 -0.8524
  139OSM   H18H15249   1.872   4.060   8.461  0.4273  0.1718 -0.0844
  140OSM      N15250   1.873   5.242   6.497 -0.6470  0.4838  0.2190
  140OSM    C1515251   1.812   5.154   6.394 -0.5287 -0.3573  0.1847
  140OSM   H15A15252   1.817   5.189   6.292 -1.3086 -2.3137 -0.5857
  140OSM   H15B15253   1.706   5.138   6.407 -0.6699 -0.2619 -0.7583
  140OSM   H15C15254   1.854   5.055   6.386 -1.7337 -0.7362 -3.2684
  140OSM    C1415255   1.813   5.374   6.499  0.1167 -0.2307 -0.2645
  140OSM   H14A15256   1.821   5.415   6.400  1.3785 -2.2001 -1.0368
  140OSM   H14B15257   1.870   5.437   6.565 -1.3189 -1.0168  1.8346
  140OSM   H14C15258   1.711   5.379   6.535  0.0125 -0.7533 -0.4801
  140OSM    C1315259   1.840   5.178   6.629 -0.5086  0.0427  0.0329
  140OSM   H13A15260   1.882   5.078   6.627  2.7531  1.2777 -0.4170
  140OSM   H13B15261   1.733   5.180   6.643 -0.4365  0.5563  0.5159
  140OSM   H13C15262   1.896   5.236   6.701 -0.7284 -0.6262  0.7549
  140OSM    C1215263   2.025   5.234   6.464  0.0629 -0.0525  0.3573
  140OSM   H12A15264   2.053   5.130   6.480  2.6659  0.3851 -0.8568
  140OSM   H12B15265   2.081   5.295   6.532  0.6505  0.3674 -0.4911
  140OSM    C1115266   2.083   5.292   6.327  0.4378  0.6222 -0.4316
  140OSM   H11A15267   2.034   5.234   6.246  0.1577  0.0722  0.1192
  140OSM   H11B15268   2.192   5.273   6.318  0.3494 -0.8178  1.1390
  140OSM      P15269   2.142   5.556   6.358 -0.1660  0.1664 -0.0496
  140OSM    O1315270   2.266   5.535   6.272  0.2086  0.2073  0.4497
  140OSM    O1415271   2.079   5.685   6.339  0.2664 -0.2446 -0.0848
  140OSM    O1115272   2.171   5.527   6.510  0.6124 -0.1122 -0.6854
  140OSM    O1215273   2.045   5.433   6.314 -0.6792 -0.0925 -0.4822
  140OSM    C1S15274   2.119   5.618   6.605  0.3055  0.4710 -0.0448
  140OSM    H1S15275   2.012   5.643   6.588  0.5654  0.4028 -2.0679
  140OSM    H1T15276   2.175   5.714   6.605  0.4825  0.3880  1.1829
  140OSM     NF15277   2.069   5.673   6.838 -0.4487 -0.3109  0.0324
  140OSM    HNF15278   2.132   5.748   6.854  0.8459 -0.9412 -1.8099
  140OSM    C2S15279   2.130   5.570   6.754  0.5695  0.0693 -0.2974
  140OSM    H2S15280   2.069   5.478   6.761  2.1266 -0.9094  1.1158
  140OSM    C3S15281   2.278   5.524   6.792  0.1337 -0.5903  0.1414
  140OSM    H3S15282   2.332   5.621   6.792  0.7139 -0.9048  0.4879
  140OSM     O315283   2.335   5.436   6.697  0.2100 -0.4394 -0.5356
  140OSM    HO315284   2.297   5.463   6.614 -1.4095  0.5659  0.4746
  140OSM    C4S15285   2.278   5.460   6.934 -0.6538  0.0029 -0.0080
  140OSM    H4S15286   2.255   5.352   6.944 -0.4903 -0.1399 -1.0575
  140OSM    C5S15287   2.319   5.519   7.051  0.3752  1.2654 -0.1553
  140OSM    H5S15288   2.361   5.620   7.046  1.5829  1.0698  3.3648
  140OSM    C6S15289   2.322   5.445   7.190 -0.1820 -0.6817  0.6080
  140OSM    H6S15290   2.261   5.510   7.255  0.4275 -1.1137  1.6320
  140OSM    H6T15291   2.421   5.461   7.238 -0.3496  0.4029  0.6144
  140OSM    C7S15292   2.278   5.295   7.191 -0.2300 -0.8266  0.5427
  140OSM    H7S15293   2.353   5.252   7.122 -1.0441  3.2877 -3.4122
  140OSM    H7T15294   2.177   5.288   7.144  0.1481 -3.0131 -0.0206
  140OSM    C8S15295   2.288   5.251   7.333  0.9466 -0.3357 -0.0596
  140OSM    H8S15296   2.392   5.279   7.360  0.5169  1.6779 -0.2808
  140OSM    H8T15297   2.289   5.140   7.328  2.1906 -0.3884  0.8864
  140OSM    C9S15298   2.183   5.309   7.423 -0.8107  0.0819 -0.0517
  140OSM    H9S15299   2.083   5.317   7.375 -0.2124 -2.0813 -1.8480
  140OSM    H9T15300   2.219   5.411   7.444  1.0029 -0.8457  1.6721
  140OSM   C10S15301   2.173   5.236   7.553 -1.3455 -0.7928  0.0683
  140OSM   H10S15302   2.113   5.303   7.619 -2.0211 -0.6919 -0.6333
  140OSM   H10T15303   2.272   5.238   7.603 -0.6653  1.0755 -1.2485
  140OSM   C11S15304   2.116   5.095   7.567  0.0786  1.3309  0.2054
  140OSM   H11S15305   2.177   5.018   7.514 -1.2070 -0.1812  0.8338
  140OSM   H11T15306   2.015   5.089   7.522  0.1860 -0.1934  0.0838
  140OSM   C12S15307   2.093   5.051   7.713  0.5355  0.3610 -0.0098
  140OSM   H12S15308   2.034   4.956   7.716  0.5573  0.3557  0.2851
  140OSM   H12T15309   2.024   5.127   7.755  1.6734  1.5523 -0.2637
  140OSM   C13S15310   2.211   5.032   7.808  0.5145 -0.2132  0.0955
  140OSM   H13S15311   2.256   5.133   7.800  0.1581 -0.1335 -1.2566
  140OSM   H13T15312   2.277   4.966   7.747  1.7403  1.0011  0.0672
  140OSM   C14S15313   2.174   4.995   7.950 -0.3259 -0.5323 -0.1957
  140OSM   H14S15314   2.124   4.896   7.956 -2.0836  0.3984  3.0606
  140OSM   H14T15315   2.099   5.073   7.976 -2.5498 -2.7713  0.4965
  140OSM   C15S15316   2.291   4.997   8.043  0.4650 -0.2143  0.2524
  140OSM   H15S15317   2.348   5.092   8.032 -1.4817  0.8983 -0.9649
  140OSM   H15T15318   2.363   4.920   8.008  0.3894  0.4287 -1.4074
  140OSM   C16S15319   2.263   4.954   8.185 -0.4111 -0.4705  0.5149
  140OSM   H16S15320   2.244   4.845   8.181  0.6468 -0.6349 -1.7101
  140OSM   H16T15321   2.178   5.016   8.220 -2.6421 -2.1882 -1.5335
  140OSM   C17S15322   2.388   4.990   8.276 -0.0464 -0.2147 -0.5357
  140OSM   H17S15323   2.395   5.100   8.287 -1.8235 -0.2682  1.9853
  140OSM   H17T15324   2.476   4.943   8.227  0.1264 -1.4118  0.8319
  140OSM   C18S15325   2.381   4.940   8.415 -0.4629 -0.3810  0.4532
  140OSM   H18S15326   2.464   4.985   8.473  0.3149 -1.7230  0.4216
  140OSM   H18T15327   2.393   4.830   8.429 -0.2196 -0.5833 -1.1085
  140OSM   H18U15328   2.287   4.974   8.463  0.1711  1.1791  0.6534
  140OSM    C1F15329   1.941   5.692   6.842 -0.5089  0.2742  0.1470
  140OSM     OF15330   1.870   5.619   6.779  0.3409 -0.0592 -0.2478
  140OSM    C2F15331   1.892   5.809   6.930 -0.0576  0.4707 -0.0044
  140OSM    H2F15332   1.802   5.850   6.878 -0.3925  0.8021  0.8112
  140OSM    H2G15333   1.969   5.887   6.942  1.3890 -0.3808 -2.8508
  140OSM    C3F15334   1.850   5.752   7.061 -0.7758 -0.3168 -0.2020
  140OSM    H3F15335   1.785   5.663   7.046 -0.0319 -0.7411 -1.0309
  140OSM    H3G15336   1.783   5.822   7.116 -1.8686 -1.5007  0.0216
  140OSM    C4F15337   1.960   5.729   7.169  0.7805 -0.0230 -0.6732
  140OSM    H4F15338   1.991   5.831   7.201 -1.7046  0.6386 -0.1861
  140OSM    H4G15339   2.054   5.693   7.121  0.3338  1.3879 -2.7797
  140OSM    C5F15340   1.907   5.639   7.283 -0.6131  0.5305 -0.4857
  140OSM    H5F15341   1.887   5.532   7.263 -1.3274  0.5979 -0.1492
  140OSM    H5G15342   1.813   5.681   7.325 -0.5132  0.4793 -0.2058
  140OSM    C6F15343   2.000   5.641   7.410 -0.1792  0.3056  0.1529
  140OSM    H6F15344   2.042   5.743   7.427  1.2424 -0.3567  0.8070
  140OSM    H6G15345   2.090   5.581   7.386  0.5562  1.4408  0.0086
  140OSM    C7F15346   1.935   5.587   7.536  0.1496 -0.2004  0.5157
  140OSM    H7F15347   1.958   5.480   7.551  1.5879  0.1918  1.2887
  140OSM    H7G15348   1.826   5.600   7.520  0.0280 -1.6501  0.0967
  140OSM    C8F15349   1.974   5.671   7.666  1.1353  0.7498  0.2264
  140OSM    H8F15350   1.945   5.777   7.651 -0.7455  0.4438  1.3643
  140OSM    H8G15351   2.083   5.656   7.677  1.0140 -0.9501 -0.5769
  140OSM    C9F15352   1.888   5.616   7.778 -0.3928  0.1223 -0.3000
  140OSM    H9F15353   1.782   5.643   7.769 -0.4335  0.6003  1.3225
  140OSM   C10F15354   1.934   5.566   7.890  0.4196 -0.3372  0.1560
  140OSM   H10F15355   1.859   5.532   7.963 -1.8649  0.1509 -1.8456
  140OSM   C11F15356   2.070   5.524   7.913 -0.3635 -0.4593  0.1835
  140OSM   H11F15357   2.108   5.597   7.988  0.8879  0.1493 -0.9877
  140OSM   H11G15358   2.132   5.531   7.821  0.3573 -1.4592  0.5695
  140OSM   C12F15359   2.103   5.388   7.956  0.0493  0.6486 -0.3102
  140OSM   H12F15360   2.211   5.372   7.940  0.2931  0.6716  1.2112
  140OSM   H12G15361   2.052   5.313   7.892 -3.3528  3.1121 -0.7600
  140OSM   C13F15362   2.074   5.349   8.102 -0.0278  0.2960 -0.0880
  140OSM   H13F15363   2.101   5.241   8.101  0.7196  0.4323  1.4053
  140OSM   H13G15364   1.967   5.361   8.128  0.0024  2.4723 -0.7816
  140OSM   C14F15365   2.166   5.410   8.205  0.2195 -0.6880 -0.2416
  140OSM   H14F15366   2.121   5.506   8.237  1.6855 -0.9954  3.1962
  140OSM   H14G15367   2.267   5.423   8.161  0.9878 -2.6457  0.8028
  140OSM   C15F15368   2.182   5.318   8.329  0.1204 -0.0239 -0.4668
  140OSM   H15F15369   2.204   5.213   8.301  2.2193  0.5080 -0.9740
  140OSM   H15G15370   2.085   5.317   8.383  0.2354 -2.9873 -0.1827
  140OSM   C16F15371   2.281   5.370   8.431 -0.0786 -0.1314 -0.0383
  140OSM   H16F15372   2.270   5.474   8.467  2.6723  0.1589  0.1792
  140OSM   H16G15373   2.386   5.376   8.394  0.9560  1.2360  2.8228
  140OSM   C17F15374   2.290   5.266   8.550  0.1549 -1.0915 -0.1826
  140OSM   H17F15375   2.342   5.176   8.511 -0.4709 -2.4069  1.8419
  140OSM   H17G15376   2.188   5.230   8.574  0.2870 -2.6180 -1.7772
  140OSM   C18F15377   2.366   5.330   8.668  1.2338 -0.4357  0.3791
  140OSM   H18F15378   2.359   5.269   8.761 -0.2070 -1.5670 -0.4289
  140OSM   H18G15379   2.332   5.430   8.700  0.3676 -1.6152  3.5726
  140OSM   H18H15380   2.475   5.342   8.649  1.7879 -1.0055  2.7698
  141OSM      N15381   2.056   0.712   5.974  0.0170 -0.4935  0.0695
  141OSM    C1515382   2.053   0.853   6.035 -1.3219 -0.0265  0.1034
  141OSM   H15A15383   1.957   0.899   6.052  0.4479  3.1405  2.4606
  141OSM   H15B15384   2.113   0.911   5.966 -0.5206 -0.1054  0.7164
  141OSM   H15C15385   2.102   0.857   6.131  0.4437 -0.0044 -0.7597
  141OSM    C1415386   1.971   0.726   5.849 -0.3032 -0.3989  0.3100
  141OSM   H14A15387   1.957   0.635   5.792  1.3535  0.5488 -1.7631
  141OSM   H14B15388   2.008   0.806   5.787 -1.7372  1.5873  1.9222
  141OSM   H14C15389   1.873   0.758   5.881 -0.6159 -1.8692  0.9111
  141OSM    C1315390   2.192   0.680   5.934 -0.6962  0.9269  0.2928
  141OSM   H13A15391   2.186   0.583   5.888 -2.4946  0.1476  2.0455
  141OSM   H13B15392   2.252   0.666   6.023 -1.6866  1.8191  1.1322
  141OSM   H13C15393   2.240   0.745   5.862 -1.1149  1.9944  0.9448
  141OSM    C1215394   2.010   0.603   6.066 -0.3406  0.3249 -0.0299
  141OSM   H12A15395   2.082   0.582   6.144  1.3201  1.2500 -1.2451
  141OSM   H12B15396   2.014   0.514   6.004  1.3434  1.1305 -1.1566
  141OSM    C1115397   1.863   0.617   6.126 -0.6589 -0.8584 -0.0726
  141OSM   H11A15398   1.821   0.515   6.139 -1.3341 -0.3909  1.7516
  141OSM   H11B15399   1.807   0.673   6.048 -0.6171  0.2802  0.6893
  141OSM      P15400   1.961   0.634   6.377  0.2749 -0.0986  0.5347
  141OSM    O1315401   1.994   0.500   6.335 -0.1596  0.4395 -0.6490
  141OSM    O1415402   2.074   0.726   6.405 -0.7000 -0.5254 -0.0697
  141OSM    O1115403   1.871   0.626   6.503 -0.0201  0.1622  0.4953
  141OSM    O1215404   1.871   0.692   6.250 -0.0410 -0.5479 -0.7972
  141OSM    C1S15405   1.805   0.735   6.554 -0.3446  0.1048  0.7326
  141OSM    H1S15406   1.716   0.750   6.488  0.6230 -1.5575 -1.0624
  141OSM    H1T15407   1.863   0.828   6.566 -1.0111  0.6031  0.1945
  141OSM     NF15408   1.634   0.794   6.724  0.1000 -0.3016 -0.1626
  141OSM    HNF15409   1.653   0.872   6.784 -1.8843 -1.1519  1.7235
  141OSM    C2S15410   1.743   0.699   6.690 -0.0398  0.0926 -0.0932
  141OSM    H2S15411   1.701   0.597   6.680  0.5723 -0.5906  3.1764
  141OSM    C3S15412   1.858   0.691   6.792 -0.6635  0.2337  0.3406
  141OSM    H3S15413   1.908   0.790   6.780 -0.6773  0.3912  1.4648
  141OSM     O315414   1.959   0.596   6.756  0.2718 -0.5485 -0.1258
  141OSM    HO315415   1.948   0.599   6.661  0.4851  1.2061 -0.1258
  141OSM    C4S15416   1.796   0.667   6.930 -0.1619 -0.0171  0.1172
  141OSM    H4S15417   1.757   0.566   6.950 -1.2593  0.6450  1.5128
  141OSM    C5S15418   1.798   0.754   7.029  0.6689 -0.2807 -0.4681
  141OSM    H5S15419   1.850   0.850   7.012 -0.1146  0.2762  0.1826
  141OSM    C6S15420   1.735   0.738   7.168 -0.6369  0.2312 -0.1632
  141OSM    H6S15421   1.690   0.636   7.176 -0.7034  0.3676  1.8365
  141OSM    H6T15422   1.648   0.805   7.188  0.8308  2.3418 -0.5499
  141OSM    C7S15423   1.834   0.764   7.288 -0.3282  0.6986  0.0933
  141OSM    H7S15424   1.877   0.866   7.286  0.1201  0.5475  1.4751
  141OSM    H7T15425   1.914   0.687   7.283 -0.0235  0.9981  0.3530
  141OSM    C8S15426   1.773   0.750   7.424 -0.4422  0.5263 -0.3072
  141OSM    H8S15427   1.713   0.656   7.433  0.4878 -0.0384  0.1000
  141OSM    H8T15428   1.694   0.828   7.432  0.4496  1.7370 -2.4537
  141OSM    C9S15429   1.867   0.748   7.548  0.8750 -0.7574  0.8232
  141OSM    H9S15430   1.927   0.841   7.547 -1.1627  0.6292  0.1718
  141OSM    H9T15431   1.931   0.659   7.532 -0.9576 -2.0210  0.2523
  141OSM   C10S15432   1.780   0.739   7.680 -0.0783  0.1489 -0.1837
  141OSM   H10S15433   1.696   0.669   7.660  0.3772 -0.7178  0.8655
  141OSM   H10T15434   1.732   0.838   7.686  2.4180  1.9468 -4.6908
  141OSM   C11S15435   1.856   0.688   7.801 -0.3321 -0.3131  0.0081
  141OSM   H11S15436   1.948   0.751   7.803  0.5083 -1.5444  1.3784
  141OSM   H11T15437   1.891   0.585   7.781  1.9106  0.6696 -1.6468
  141OSM   C12S15438   1.779   0.684   7.941 -0.0673  0.0387 -0.0827
  141OSM   H12S15439   1.828   0.603   7.999 -0.0539  0.8005  0.9951
  141OSM   H12T15440   1.676   0.648   7.924 -0.4075  0.2950  1.3507
  141OSM   C13S15441   1.796   0.820   8.010 -0.6335  0.0451  0.1513
  141OSM   H13S15442   1.734   0.893   7.955  0.0307  1.7483  1.5713
  141OSM   H13T15443   1.903   0.848   7.995 -0.1152 -0.0516  3.0901
  141OSM   C14S15444   1.792   0.838   8.159  0.2205  0.5265  0.0370
  141OSM   H14S15445   1.685   0.833   8.190  0.0914  1.0246 -0.3106
  141OSM   H14T15446   1.836   0.934   8.193 -0.0555 -0.4607  3.5835
  141OSM   C15S15447   1.879   0.734   8.227 -0.2141 -0.0290 -0.0424
  141OSM   H15S15448   1.985   0.744   8.194  0.4394  0.0214  1.9709
  141OSM   H15T15449   1.842   0.631   8.204  0.0734 -0.7440  2.4507
  141OSM   C16S15450   1.887   0.744   8.382  0.0783  0.2509 -0.1192
  141OSM   H16S15451   1.928   0.839   8.421  1.9981 -0.8142  0.6143
  141OSM   H16T15452   1.974   0.685   8.419  1.3559  1.8780 -0.4199
  141OSM   C17S15453   1.757   0.692   8.444 -1.0465  0.0685  0.0311
  141OSM   H17S15454   1.762   0.581   8.443  3.1304  0.0758 -1.8800
  141OSM   H17T15455   1.676   0.731   8.379  0.5089 -0.0302 -2.1002
  141OSM   C18S15456   1.742   0.746   8.586 -0.1573  0.0269  0.4567
  141OSM   H18S15457   1.650   0.716   8.640  0.0635 -1.1495  0.2063
  141OSM   H18T15458   1.745   0.857   8.579 -0.9633  0.2757  2.9517
  141OSM   H18U15459   1.834   0.712   8.636  0.6968 -1.8632 -2.1870
  141OSM    C1F15460   1.509   0.777   6.672 -0.1107 -0.6021 -0.2795
  141OSM     OF15461   1.478   0.692   6.594 -0.2014 -0.6822  0.4330
  141OSM    C2F15462   1.412   0.894   6.699 -0.4470  0.1732  0.1615
  141OSM    H2F15463   1.393   0.946   6.603 -0.7494  0.2902  0.2847
  141OSM    H2G15464   1.442   0.968   6.776  1.4756  0.8253 -1.1669
  141OSM    C3F15465   1.277   0.849   6.751  0.2276  0.0032  0.2732
  141OSM    H3F15466   1.222   0.786   6.678  0.1947  1.6149 -1.1462
  141OSM    H3G15467   1.212   0.938   6.764  0.6724  0.2403  0.9185
  141OSM    C4F15468   1.261   0.776   6.888  0.4212  0.0869  0.1440
  141OSM    H4F15469   1.314   0.679   6.894  0.1353 -0.0020  1.6601
  141OSM    H4G15470   1.151   0.758   6.895  0.1849  1.3876 -0.0038
  141OSM    C5F15471   1.305   0.860   7.006  0.2697  0.6864 -0.7276
  141OSM    H5F15472   1.261   0.963   7.003  3.4198  2.1813  0.2144
  141OSM    H5G15473   1.415   0.865   6.995  0.2803 -1.4403 -2.1828
  141OSM    C6F15474   1.290   0.793   7.145  0.1754 -0.4245 -0.0431
  141OSM    H6F15475   1.334   0.691   7.144 -0.7182 -0.8180 -0.8920
  141OSM    H6G15476   1.183   0.776   7.170 -0.5166  0.7810 -1.9554
  141OSM    C7F15477   1.344   0.874   7.260  0.0905 -0.5201  0.0769
  141OSM    H7F15478   1.284   0.967   7.261  0.7302 -0.0852 -0.8070
  141OSM    H7G15479   1.443   0.897   7.216 -0.0123  1.5822  0.8235
  141OSM    C8F15480   1.335   0.803   7.392  0.0772 -0.7256 -0.1787
  141OSM    H8F15481   1.382   0.702   7.398  0.1699 -0.8977 -2.6996
  141OSM    H8G15482   1.227   0.790   7.411 -0.1906  1.1514 -0.2384
  141OSM    C9F15483   1.409   0.885   7.497  0.1605  0.5674 -0.2026
  141OSM    H9F15484   1.513   0.914   7.476  0.7092  0.6758  2.2766
  141OSM   C10F15485   1.359   0.929   7.609  0.2172 -0.4472 -0.0537
  141OSM   H10F15486   1.429   0.990   7.668  0.9288  0.7028 -1.9864
  141OSM   C11F15487   1.228   0.912   7.687  0.3854  0.0188 -0.5144
  141OSM   H11F15488   1.156   0.846   7.634  0.3266 -2.4068  2.3923
  141OSM   H11G15489   1.178   1.008   7.713 -0.1780 -0.6777  1.0756
  141OSM   C12F15490   1.245   0.843   7.826  0.5084  0.2795  0.3317
  141OSM   H12F15491   1.296   0.747   7.805  0.9310  0.2660  1.3468
  141OSM   H12G15492   1.145   0.816   7.867  1.1108  0.2371  1.8509
  141OSM   C13F15493   1.314   0.919   7.934  0.2568  0.4320 -0.6642
  141OSM   H13F15494   1.268   1.020   7.932 -1.2250 -0.2331 -1.5565
  141OSM   H13G15495   1.425   0.922   7.926  0.7868  0.8470  3.8347
  141OSM   C14F15496   1.305   0.856   8.075 -0.4889 -0.6144  0.2190
  141OSM   H14F15497   1.359   0.760   8.089 -1.1432 -0.9084  0.7550
  141OSM   H14G15498   1.201   0.856   8.113 -0.2232 -1.4770  0.9630
  141OSM   C15F15499   1.368   0.969   8.167 -0.3473  0.2490 -0.1296
  141OSM   H15F15500   1.299   1.055   8.180 -2.4345 -1.2075 -1.0812
  141OSM   H15G15501   1.460   1.000   8.112 -0.8789 -0.7427 -1.6505
  141OSM   C16F15502   1.408   0.927   8.314 -0.2297  0.4811 -0.2043
  141OSM   H16F15503   1.447   1.019   8.363  1.1146 -0.1551 -0.0434
  141OSM   H16G15504   1.491   0.854   8.311  0.1912  0.9838 -1.9113
  141OSM   C17F15505   1.293   0.867   8.401  0.2095  0.1337 -0.4239
  141OSM   H17F15506   1.278   0.763   8.366  0.9769 -0.2249  0.2656
  141OSM   H17G15507   1.206   0.936   8.388  1.1354  1.6242  0.8416
  141OSM   C18F15508   1.339   0.863   8.545 -0.3652  0.5478 -0.1931
  141OSM   H18F15509   1.352   0.966   8.586 -0.4996  0.7085 -0.5453
  141OSM   H18G15510   1.437   0.812   8.558 -0.6888 -0.1659 -0.4810
  141OSM   H18H15511   1.264   0.817   8.613 -1.4018  1.7542 -0.4899
  142OSM      N15512   2.719   2.881   6.203 -0.0310  0.5202 -0.1466
  142OSM    C1515513   2.685   3.014   6.142 -0.1369  0.4664  0.3108
  142OSM   H15A15514   2.655   3.072   6.228  3.9298 -0.7208  2.8428
  142OSM   H15B15515   2.600   2.997   6.078  0.2707 -2.8035  0.4914
  142OSM   H15C15516   2.767   3.052   6.082  0.1225 -2.2371 -1.1916
  142OSM    C1415517   2.726   2.781   6.095  0.8243  0.3797  0.3998
  142OSM   H14A15518   2.751   2.684   6.135 -1.1372 -0.4266 -0.2091
  142OSM   H14B15519   2.800   2.819   6.027  0.2246  1.3519  0.2706
  142OSM   H14C15520   2.632   2.770   6.043  0.9368  0.8867  0.0892
  142OSM    C1315521   2.841   2.879   6.285  0.2577 -0.2701 -0.2324
  142OSM   H13A15522   2.930   2.878   6.225  2.4671  0.4484  2.7523
  142OSM   H13B15523   2.854   2.786   6.338  0.7206  1.0954  2.2219
  142OSM   H13C15524   2.836   2.961   6.355 -0.0296 -0.4794 -0.0029
  142OSM    C1215525   2.601   2.847   6.295  0.5883 -0.5732 -0.4364
  142OSM   H12A15526   2.513   2.879   6.241  1.7088  0.0602 -1.9814
  142OSM   H12B15527   2.610   2.912   6.381  0.6387 -1.2679  0.0910
  142OSM    C1115528   2.582   2.702   6.330 -1.2003  0.2127 -0.1382
  142OSM   H11A15529   2.563   2.637   6.243 -0.7823 -2.3297  1.5544
  142OSM   H11B15530   2.493   2.699   6.397 -1.1079  2.6372  0.1839
  142OSM      P15531   2.790   2.528   6.377 -0.5010 -0.3746 -0.5035
  142OSM    O1315532   2.774   2.491   6.235 -0.2088  0.0142 -0.8337
  142OSM    O1415533   2.926   2.564   6.416  0.2629 -0.2253 -0.2128
  142OSM    O1115534   2.731   2.414   6.457  0.0769  0.7298 -0.0153
  142OSM    O1215535   2.694   2.652   6.410 -0.1269  0.1130 -0.2978
  142OSM    C1S15536   2.761   2.398   6.598 -0.4330  0.2759  0.0952
  142OSM    H1S15537   2.870   2.414   6.612 -0.0615 -0.5589 -1.5803
  142OSM    H1T15538   2.746   2.292   6.628 -0.3259  0.1293 -0.3628
  142OSM     NF15539   2.728   2.466   6.828  0.2573  0.5374  0.3906
  142OSM    HNF15540   2.679   2.401   6.885  2.0778 -1.6358 -0.3737
  142OSM    C2S15541   2.684   2.493   6.691  1.1316 -0.0362 -0.0663
  142OSM    H2S15542   2.693   2.602   6.675 -2.7315  0.7873  2.0163
  142OSM    C3S15543   2.528   2.479   6.680  0.1188 -0.5271  0.3938
  142OSM    H3S15544   2.513   2.376   6.719  0.2977 -0.5539  0.3926
  142OSM     O315545   2.473   2.479   6.549  0.5112  0.2549 -0.6364
  142OSM    HO315546   2.549   2.483   6.490  1.3367  0.2628  0.3971
  142OSM    C4S15547   2.461   2.571   6.783  0.6151 -0.2878  0.0852
  142OSM    H4S15548   2.437   2.522   6.878 -1.4121  1.0753  0.3193
  142OSM    C5S15549   2.410   2.691   6.749 -0.6529  0.8788 -1.0291
  142OSM    H5S15550   2.420   2.725   6.645  0.0421  0.8409 -0.9808
  142OSM    C6S15551   2.323   2.777   6.837  0.0245  0.5700 -0.2184
  142OSM    H6S15552   2.219   2.787   6.797 -1.9817 -2.2944  3.5879
  142OSM    H6T15553   2.363   2.880   6.845  0.7824  0.2734 -0.1940
  142OSM    C7S15554   2.320   2.725   6.982  0.2665 -0.1491 -0.2458
  142OSM    H7S15555   2.424   2.729   7.020 -0.0496  2.0295  0.5061
  142OSM    H7T15556   2.288   2.619   6.986  0.4485 -0.4268 -3.2944
  142OSM    C8S15557   2.219   2.792   7.079  0.5631  0.1030 -0.3026
  142OSM    H8S15558   2.122   2.771   7.030  1.3963 -4.0662 -0.5580
  142OSM    H8T15559   2.242   2.901   7.082  0.6718  0.0568  1.7430
  142OSM    C9S15560   2.226   2.728   7.218  0.2143 -0.2808  0.0302
  142OSM    H9S15561   2.328   2.744   7.259  0.4230  3.1288 -1.5465
  142OSM    H9T15562   2.208   2.618   7.209  0.4837 -0.4465  1.3524
  142OSM   C10S15563   2.117   2.765   7.323 -0.3222  0.2127 -0.1090
  142OSM   H10S15564   2.019   2.748   7.273 -0.6446 -1.9999  1.1558
  142OSM   H10T15565   2.124   2.870   7.358  0.2498 -0.3141  1.4510
  142OSM   C11S15566   2.120   2.686   7.453 -0.4622 -0.8474 -0.1611
  142OSM   H11S15567   2.180   2.595   7.434 -0.6258 -0.6312 -1.8988
  142OSM   H11T15568   2.016   2.658   7.481 -0.7175  1.2923  1.3603
  142OSM   C12S15569   2.174   2.768   7.573  0.5137  0.0528  0.4356
  142OSM   H12S15570   2.113   2.860   7.583  0.6719  0.1674  0.3599
  142OSM   H12T15571   2.279   2.803   7.559  0.0678  0.5668 -2.1129
  142OSM   C13S15572   2.144   2.681   7.690 -0.3358  0.1953 -0.0189
  142OSM   H13S15573   2.202   2.586   7.686 -2.4501 -1.2940  1.8932
  142OSM   H13T15574   2.036   2.656   7.694 -0.4678  0.0989 -2.5588
  142OSM   C14S15575   2.180   2.746   7.822  0.1112  0.0092  0.4604
  142OSM   H14S15576   2.120   2.837   7.846  1.9249  2.2935 -2.8950
  142OSM   H14T15577   2.288   2.772   7.830  0.3891 -1.5890  3.2621
  142OSM   C15S15578   2.154   2.654   7.936 -0.6599  0.2257  0.3301
  142OSM   H15S15579   2.170   2.546   7.916  1.0996  0.6840 -0.8798
  142OSM   H15T15580   2.045   2.664   7.958 -1.1093  0.2573 -1.7019
  142OSM   C16S15581   2.238   2.688   8.056  0.4396 -0.6922  0.0421
  142OSM   H16S15582   2.214   2.791   8.090  1.7729 -0.2498 -0.3256
  142OSM   H16T15583   2.344   2.673   8.026  0.1681 -1.1191 -0.7456
  142OSM   C17S15584   2.205   2.600   8.179  0.3447 -0.0263  1.3869
  142OSM   H17S15585   2.240   2.497   8.158  1.2015  0.4319  0.4718
  142OSM   H17T15586   2.095   2.597   8.193 -0.1296 -0.5483 -1.8590
  142OSM   C18S15587   2.292   2.636   8.299  0.2630  0.4571  0.5407
  142OSM   H18S15588   2.397   2.644   8.264 -0.0890 -0.3614 -0.7364
  142OSM   H18T15589   2.273   2.553   8.371 -1.3026 -0.0042 -0.3476
  142OSM   H18U15590   2.268   2.728   8.358  1.5880 -0.7508  3.0907
  142OSM    C1F15591   2.846   2.498   6.870 -0.1193  0.1349 -0.4678
  142OSM     OF15592   2.925   2.563   6.801  0.4361  0.1142 -0.3012
  142OSM    C2F15593   2.901   2.442   7.001 -0.7560 -0.3966  0.5310
  142OSM    H2F15594   2.841   2.355   7.036 -0.3651 -2.2422 -2.8851
  142OSM    H2G15595   2.895   2.521   7.078  0.1381 -0.2153  0.4257
  142OSM    C3F15596   3.049   2.385   6.974 -0.4802  0.3374 -0.8881
  142OSM    H3F15597   3.124   2.462   6.945 -0.4926  1.7162  2.2670
  142OSM    H3G15598   3.038   2.301   6.902  2.3937 -2.1931  1.3595
  142OSM    C4F15599   3.102   2.312   7.102  0.2585 -0.1127 -0.4330
  142OSM    H4F15600   3.209   2.298   7.077  0.2170 -1.2356 -0.0338
  142OSM    H4G15601   3.053   2.212   7.108  0.6914 -0.3179 -0.2882
  142OSM    C5F15602   3.080   2.399   7.230  0.0775  0.6271  0.0006
  142OSM    H5F15603   2.970   2.399   7.244  0.1932 -2.1531  1.5907
  142OSM    H5G15604   3.124   2.500   7.211  1.2874  0.4194  1.5048
  142OSM    C6F15605   3.164   2.346   7.348  0.2871 -0.0168  0.4249
  142OSM    H6F15606   3.162   2.431   7.420 -1.5559 -1.6498  2.4404
  142OSM    H6G15607   3.267   2.322   7.315 -0.3868 -0.1325 -1.7453
  142OSM    C7F15608   3.101   2.219   7.409 -0.9672 -0.1432  0.2543
  142OSM    H7F15609   3.101   2.136   7.335  0.8250 -0.8570  0.9967
  142OSM    H7G15610   2.997   2.244   7.439 -0.5120  0.5735  1.2978
  142OSM    C8F15611   3.172   2.157   7.530  0.2991 -0.1790  0.8569
  142OSM    H8F15612   3.278   2.132   7.511 -0.1128 -1.4142  0.0603
  142OSM    H8G15613   3.122   2.060   7.549  1.5057 -0.4214  3.0816
  142OSM    C9F15614   3.173   2.258   7.647  0.0123  0.7390 -0.5737
  142OSM    H9F15615   3.143   2.356   7.606 -1.2988 -0.1375 -1.8247
  142OSM   C10F15616   3.194   2.234   7.777  0.6810 -0.3256  0.0843
  142OSM   H10F15617   3.186   2.318   7.849 -0.0604  1.2805 -1.7911
  142OSM   C11F15618   3.234   2.103   7.840 -0.3062  0.7396 -0.2119
  142OSM   H11F15619   3.247   2.020   7.768  0.9372 -1.0923  2.0030
  142OSM   H11G15620   3.154   2.071   7.911  0.1854  0.9145  0.4323
  142OSM   C12F15621   3.366   2.110   7.920 -0.1313 -0.3222 -0.0948
  142OSM   H12F15622   3.360   2.194   7.991 -0.3154 -0.8023  0.4634
  142OSM   H12G15623   3.439   2.135   7.840 -0.8343  3.0781  0.2041
  142OSM   C13F15624   3.407   1.976   7.985  0.6235 -1.3082 -0.2328
  142OSM   H13F15625   3.421   1.889   7.917  2.2009 -1.4545  0.2180
  142OSM   H13G15626   3.325   1.945   8.053 -0.0597  2.0663  0.6299
  142OSM   C14F15627   3.532   1.994   8.070  0.3574  0.5078 -0.5501
  142OSM   H14F15628   3.531   2.074   8.147 -1.0630 -1.0976  1.1879
  142OSM   H14G15629   3.606   2.023   7.992  0.7036  0.4632 -0.2404
  142OSM   C15F15630   3.561   1.852   8.132 -0.2881 -0.0036 -0.0564
  142OSM   H15F15631   3.548   1.779   8.049 -1.3214 -0.0968  0.1735
  142OSM   H15G15632   3.494   1.829   8.218 -0.1796 -0.0867  0.0064
  142OSM   C16F15633   3.707   1.835   8.167 -0.4321  0.0444 -1.0979
  142OSM   H16F15634   3.745   1.901   8.248  1.5629 -2.7602  0.4050
  142OSM   H16G15635   3.763   1.851   8.072  0.7418  0.9559 -0.2894
  142OSM   C17F15636   3.721   1.686   8.205  0.0228 -0.7919 -0.0686
  142OSM   H17F15637   3.822   1.654   8.171  0.0738 -2.2890  1.3532
  142OSM   H17G15638   3.657   1.619   8.144  0.4492 -0.3527 -1.0199
  142OSM   C18F15639   3.721   1.660   8.346  0.0006  1.3643 -0.0811
  142OSM   H18F15640   3.804   1.701   8.407 -1.2523  1.1546  1.8409
  142OSM   H18G15641   3.738   1.551   8.356  0.1854  1.4636  0.7490
  142OSM   H18H15642   3.622   1.687   8.389 -0.3207  0.5853 -0.3041
  143OSM      N15643   2.616   4.571   6.159 -0.5602 -0.3831 -0.1229
  143OSM    C1515644   2.563   4.717   6.168  0.2648 -0.7705  0.0310
  143OSM   H15A15645   2.501   4.733   6.081 -0.0972  0.0103  0.4276
  143OSM   H15B15646   2.638   4.794   6.174 -0.5681  0.0119  0.6953
  143OSM   H15C15647   2.500   4.737   6.253  1.3197  0.6961  0.5049
  143OSM    C1415648   2.495   4.486   6.155  0.2917  0.3815  0.1730
  143OSM   H14A15649   2.447   4.507   6.061  0.6305  1.6178  0.2554
  143OSM   H14B15650   2.424   4.497   6.236  0.9243 -1.0349  0.9560
  143OSM   H14C15651   2.523   4.382   6.159 -2.2664 -0.3276  2.4821
  143OSM    C1315652   2.697   4.556   6.042 -0.9880 -0.3275  0.1727
  143OSM   H13A15653   2.793   4.605   6.052 -0.0055 -2.4180  1.8363
  143OSM   H13B15654   2.648   4.599   5.956  0.8485 -1.2124 -1.3836
  143OSM   H13C15655   2.714   4.452   6.019  0.2019 -0.2107  0.4633
  143OSM    C1215656   2.694   4.537   6.284  0.8864 -0.2469  0.2496
  143OSM   H12A15657   2.638   4.567   6.372 -0.9948 -0.5147 -0.8161
  143OSM   H12B15658   2.777   4.607   6.288  1.6510 -0.9824 -1.6424
  143OSM    C1115659   2.756   4.400   6.302 -0.4532  0.5210  0.5176
  143OSM   H11A15660   2.680   4.319   6.301 -1.1154  1.1018 -1.7150
  143OSM   H11B15661   2.804   4.402   6.402 -0.9382  2.4453  0.7575
  143OSM      P15662   2.869   4.230   6.134 -0.5511 -0.0646  0.3829
  143OSM    O1315663   2.748   4.196   6.054  0.1877 -0.4491 -0.2397
  143OSM    O1415664   3.006   4.242   6.075  0.4042  0.0920  0.2953
  143OSM    O1115665   2.874   4.143   6.262 -0.0543  0.0179 -0.3374
  143OSM    O1215666   2.853   4.376   6.198  0.0154  0.4398  0.3080
  143OSM    C1S15667   2.978   4.168   6.354 -0.8008 -0.2152 -0.0495
  143OSM    H1S15668   3.016   4.272   6.352 -0.6173 -0.2756  0.1439
  143OSM    H1T15669   3.065   4.103   6.326  0.2037  0.6755  0.9089
  143OSM     NF15670   3.048   4.167   6.588 -0.0548 -0.2182  0.6451
  143OSM    HNF15671   3.111   4.091   6.603  3.0657  2.0083 -0.1532
  143OSM    C2S15672   2.941   4.127   6.498  0.9010 -0.4598  0.4464
  143OSM    H2S15673   2.852   4.188   6.525  0.2096 -1.6700  0.9468
  143OSM    C3S15674   2.902   3.975   6.511 -0.0128 -0.4597  0.4890
  143OSM    H3S15675   2.998   3.919   6.506 -0.6644 -1.4896 -1.9598
  143OSM     O315676   2.843   3.917   6.395  0.9904  0.2717 -0.0246
  143OSM    HO315677   2.839   3.991   6.334 -0.4360  0.0104 -0.2873
  143OSM    C4S15678   2.838   3.943   6.638 -0.2478  0.2770 -0.3191
  143OSM    H4S15679   2.916   3.927   6.715  0.6829  0.6502 -1.1676
  143OSM    C5S15680   2.703   3.931   6.655  0.3846 -0.1319  0.0902
  143OSM    H5S15681   2.645   3.943   6.562  2.6711 -0.3989 -1.4500
  143OSM    C6S15682   2.626   3.901   6.778 -0.2111 -0.2544 -0.2381
  143OSM    H6S15683   2.601   3.793   6.779 -2.1948  0.1648 -0.7582
  143OSM    H6T15684   2.530   3.957   6.784 -0.0277 -0.0245  0.9145
  143OSM    C7S15685   2.688   3.948   6.911 -0.4837  0.0662  0.3018
  143OSM    H7S15686   2.706   4.057   6.921  1.4292 -0.2126  0.3017
  143OSM    H7T15687   2.787   3.897   6.908 -0.0170  0.9451 -3.0977
  143OSM    C8S15688   2.604   3.896   7.029  0.4570 -0.3711  0.8981
  143OSM    H8S15689   2.575   3.792   7.004  0.8038 -0.1086 -0.7110
  143OSM    H8T15690   2.508   3.949   7.043  0.5108 -0.3568  1.2367
  143OSM    C9S15691   2.681   3.912   7.163  0.1781  0.0814 -0.5635
  143OSM    H9S15692   2.681   4.019   7.194  1.4419 -0.2535  0.7353
  143OSM    H9T15693   2.783   3.871   7.148 -0.3212 -0.5051 -2.7347
  143OSM   C10S15694   2.610   3.831   7.275  1.0834  0.1920 -0.4038
  143OSM   H10S15695   2.593   3.727   7.239 -2.6633  0.3110  0.6221
  143OSM   H10T15696   2.508   3.871   7.293  0.2617 -1.1446 -1.8908
  143OSM   C11S15697   2.676   3.836   7.413 -0.4195 -0.7834  0.0727
  143OSM   H11S15698   2.680   3.939   7.454  0.3707 -1.5865  2.1352
  143OSM   H11T15699   2.781   3.803   7.395  0.3316  2.4308 -2.4303
  143OSM   C12S15700   2.604   3.762   7.519  0.1628 -0.2835 -0.4542
  143OSM   H12S15701   2.597   3.655   7.492  0.6557 -1.0687  2.2129
  143OSM   H12T15702   2.499   3.788   7.542 -0.0090 -1.4708  0.2056
  143OSM   C13S15703   2.682   3.757   7.657  0.0839  0.1132  0.7204
  143OSM   H13S15704   2.701   3.860   7.694  0.7637  0.3927 -0.3659
  143OSM   H13T15705   2.784   3.724   7.631  1.2287  2.3426  2.0314
  143OSM   C14S15706   2.628   3.652   7.749 -0.4200  0.9189  0.2208
  143OSM   H14S15707   2.622   3.554   7.696 -0.5901  1.0471  0.0028
  143OSM   H14T15708   2.522   3.677   7.772 -0.2694  0.7283  1.1721
  143OSM   C15S15709   2.706   3.630   7.879 -0.4386 -0.0211 -0.1050
  143OSM   H15S15710   2.801   3.577   7.854 -1.1041 -0.6811 -1.3172
  143OSM   H15T15711   2.654   3.554   7.940 -1.7439  1.1021  0.2295
  143OSM   C16S15712   2.712   3.760   7.967  0.2425 -0.1104  0.1626
  143OSM   H16S15713   2.607   3.788   7.990 -0.3673 -0.5170 -1.9381
  143OSM   H16T15714   2.757   3.839   7.903  1.8092  0.1875  1.5669
  143OSM   C17S15715   2.795   3.740   8.098  0.4235  0.3873  0.3679
  143OSM   H17S15716   2.849   3.832   8.129  1.4869 -0.1428  0.1416
  143OSM   H17T15717   2.868   3.658   8.077  0.8205  0.8866 -0.2108
  143OSM   C18S15718   2.706   3.709   8.219 -0.6052 -0.7138 -0.3956
  143OSM   H18S15719   2.680   3.601   8.219 -0.1958 -0.8499  1.7793
  143OSM   H18T15720   2.618   3.776   8.213 -0.1835 -0.2260 -1.3928
  143OSM   H18U15721   2.759   3.727   8.314 -2.0011 -0.5350  0.3682
  143OSM    C1F15722   3.074   4.292   6.622 -0.3180 -0.4618  0.3590
  143OSM     OF15723   3.012   4.386   6.570  0.9591 -0.1612 -1.0483
  143OSM    C2F15724   3.192   4.319   6.713 -0.5206 -0.7311 -0.0804
  143OSM    H2F15725   3.281   4.270   6.668 -1.6328 -1.2478 -1.8208
  143OSM    H2G15726   3.165   4.272   6.810 -2.0441  1.1878  0.4981
  143OSM    C3F15727   3.219   4.471   6.739 -0.3150  0.0221  0.3247
  143OSM    H3F15728   3.140   4.499   6.811 -0.5329  1.5362 -0.4678
  143OSM    H3G15729   3.207   4.526   6.643 -2.1857  0.2923  0.6788
  143OSM    C4F15730   3.360   4.515   6.787  0.6649 -0.1712  0.3460
  143OSM    H4F15731   3.363   4.621   6.819 -1.8299  0.0090  0.1202
  143OSM    H4G15732   3.439   4.502   6.710  0.5486 -0.8651  0.3333
  143OSM    C5F15733   3.415   4.431   6.909 -0.4138  0.6980  0.3457
  143OSM    H5F15734   3.526   4.432   6.902 -0.3625 -1.7831  0.1210
  143OSM    H5G15735   3.374   4.328   6.901  0.0267  0.5768 -0.4448
  143OSM    C6F15736   3.382   4.491   7.051 -0.1090  0.2570  0.1612
  143OSM    H6F15737   3.273   4.478   7.065 -0.2918 -1.2655 -2.0594
  143OSM    H6G15738   3.412   4.598   7.052  1.0224 -0.0501  0.3951
  143OSM    C7F15739   3.465   4.427   7.161  0.8546  0.2162 -0.2069
  143OSM    H7F15740   3.452   4.478   7.259  1.6272 -1.0587  0.5855
  143OSM    H7G15741   3.572   4.431   7.129  0.4962 -0.9762 -1.6861
  143OSM    C8F15742   3.414   4.282   7.189 -0.5479 -0.0806 -0.4265
  143OSM    H8F15743   3.411   4.225   7.094 -2.9467  0.5392 -0.7968
  143OSM    H8G15744   3.312   4.299   7.231 -0.5895 -0.1134 -0.5147
  143OSM    C9F15745   3.494   4.231   7.306 -0.0360  0.1672 -0.2244
  143OSM    H9F15746   3.571   4.163   7.265  0.5566 -0.3165  1.6042
  143OSM   C10F15747   3.475   4.243   7.437  0.3908 -0.9718 -0.1219
  143OSM   H10F15748   3.547   4.205   7.511  1.8119  0.7818 -0.5264
  143OSM   C11F15749   3.366   4.327   7.497  0.0066 -0.4898 -0.5574
  143OSM   H11F15750   3.277   4.262   7.514  0.7027 -0.9198  1.9211
  143OSM   H11G15751   3.331   4.403   7.425 -0.1046 -0.3123 -0.3171
  143OSM   C12F15752   3.409   4.387   7.632  0.3696  0.2038 -0.0866
  143OSM   H12F15753   3.340   4.467   7.668 -0.0561 -0.3733  0.3994
  143OSM   H12G15754   3.506   4.441   7.628 -0.1469  1.0574 -2.2086
  143OSM   C13F15755   3.436   4.287   7.750 -0.0968  0.1808  0.1085
  143OSM   H13F15756   3.509   4.213   7.712  0.4243  0.4402  0.5930
  143OSM   H13G15757   3.340   4.241   7.784  0.0622  0.8871  1.6050
  143OSM   C14F15758   3.479   4.350   7.875  0.7607 -0.1081  0.0570
  143OSM   H14F15759   3.406   4.433   7.883  0.6639 -0.3296  1.7062
  143OSM   H14G15760   3.571   4.411   7.860  0.8356 -0.0218  0.8286
  143OSM   C15F15761   3.479   4.254   7.992 -0.5237  1.1589  0.7848
  143OSM   H15F15762   3.562   4.186   7.965  0.3324  2.3336  0.4190
  143OSM   H15G15763   3.387   4.190   7.998 -0.7384  1.4103  0.2485
  143OSM   C16F15764   3.501   4.304   8.132 -0.0184  0.0636 -0.6135
  143OSM   H16F15765   3.409   4.348   8.175 -1.2396 -2.7360 -0.0979
  143OSM   H16G15766   3.577   4.384   8.120 -0.0939  0.4635  1.2888
  143OSM   C17F15767   3.555   4.192   8.220  0.5890  0.4972 -0.1145
  143OSM   H17F15768   3.648   4.159   8.169 -0.1618 -2.3905  0.1932
  143OSM   H17G15769   3.488   4.103   8.217  1.4843 -0.1670 -1.7320
  143OSM   C18F15770   3.573   4.249   8.359 -0.4637  0.2264 -0.2164
  143OSM   H18F15771   3.624   4.185   8.434 -0.0477  0.9070  0.0880
  143OSM   H18G15772   3.476   4.269   8.408 -0.7850  0.8009 -1.0638
  143OSM   H18H15773   3.633   4.343   8.352 -0.6080  0.3232 -0.1432
  144OSM      N15774   1.672   4.211   6.085 -0.0670  0.4575  0.6376
  144OSM    C1515775   1.712   4.066   6.104 -0.7507  0.0489  0.4296
  144OSM   H15A15776   1.788   4.056   6.180 -1.1976 -0.8203  0.7754
  144OSM   H15B15777   1.742   4.027   6.008 -1.3263 -1.9240  0.9975
  144OSM   H15C15778   1.634   3.999   6.137 -0.4164 -0.8842 -0.6139
  144OSM    C1415779   1.766   4.261   5.983 -0.9273 -0.9220  0.0218
  144OSM   H14A15780   1.767   4.369   5.983 -0.7357 -0.9232 -0.0373
  144OSM   H14B15781   1.749   4.222   5.883 -2.7488  0.3134 -0.1918
  144OSM   H14C15782   1.864   4.227   6.015 -0.0426  1.6275  0.2301
  144OSM    C1315783   1.537   4.217   6.028  0.1659  0.0084 -0.1158
  144OSM   H13A15784   1.520   4.315   5.988 -1.8047 -0.7404 -1.2646
  144OSM   H13B15785   1.460   4.186   6.097  0.2434 -1.2723 -0.5711
  144OSM   H13C15786   1.540   4.152   5.942  0.3904  0.2018 -0.2530
  144OSM    C1215787   1.677   4.290   6.216  0.5202 -0.4871  0.1120
  144OSM   H12A15788   1.594   4.266   6.280  0.6091 -0.7957  0.1130
  144OSM   H12B15789   1.667   4.395   6.192  0.1428 -0.3216  0.9371
  144OSM    C1115790   1.803   4.285   6.292 -0.4404  0.1371  0.0704
  144OSM   H11A15791   1.836   4.182   6.319  0.5403  0.3051 -0.4511
  144OSM   H11B15792   1.794   4.332   6.392  0.1037 -0.4493  0.4049
  144OSM      P15793   1.910   4.526   6.253 -0.4029 -0.0355 -0.0389
  144OSM    O1315794   2.033   4.577   6.188  0.1652  0.0046 -0.4119
  144OSM    O1415795   1.782   4.583   6.206 -0.3794 -0.0890 -0.3071
  144OSM    O1115796   1.909   4.545   6.413 -0.1646  0.1044  0.1188
  144OSM    O1215797   1.908   4.364   6.229  0.4753  0.4041 -0.7285
  144OSM    C1S15798   2.027   4.585   6.485 -0.3352  0.0116  0.1853
  144OSM    H1S15799   2.002   4.660   6.563  0.5896  0.9277 -0.3887
  144OSM    H1T15800   2.078   4.661   6.422 -1.3819 -0.0694 -0.7843
  144OSM     NF15801   2.125   4.488   6.688 -0.5424  0.2036  0.1996
  144OSM    HNF15802   2.202   4.543   6.718  0.3033 -0.3238 -0.9147
  144OSM    C2S15803   2.114   4.465   6.548  0.7167  0.1233  0.3234
  144OSM    H2S15804   2.071   4.366   6.525 -0.4933  1.0161 -1.5095
  144OSM    C3S15805   2.258   4.463   6.484 -0.1713 -0.5178  0.7742
  144OSM    H3S15806   2.303   4.565   6.484 -1.7494  0.2339 -1.3516
  144OSM     O315807   2.254   4.428   6.345  0.1711 -0.5350  0.8824
  144OSM    HO315808   2.181   4.478   6.309  0.8075 -0.9602 -1.1183
  144OSM    C4S15809   2.359   4.373   6.548  0.2592 -0.1530 -0.3813
  144OSM    H4S15810   2.324   4.271   6.568  2.8497 -1.4419 -1.8393
  144OSM    C5S15811   2.487   4.410   6.568  0.5741 -0.0587  0.7381
  144OSM    H5S15812   2.521   4.511   6.539  2.4857 -0.5724  1.0329
  144OSM    C6S15813   2.595   4.337   6.633 -1.3937  0.0438 -0.0393
  144OSM    H6S15814   2.682   4.397   6.668  0.6940 -0.9334 -3.1412
  144OSM    H6T15815   2.647   4.276   6.556 -0.8272 -0.0025  0.3667
  144OSM    C7S15816   2.550   4.255   6.754 -0.5482 -0.3290 -0.4220
  144OSM    H7S15817   2.638   4.203   6.796  0.8428  2.0121 -0.2474
  144OSM    H7T15818   2.469   4.180   6.737 -2.0264  0.9041  0.8432
  144OSM    C8S15819   2.498   4.348   6.862  0.0309  0.5460  0.5664
  144OSM    H8S15820   2.395   4.382   6.839 -0.1932 -0.8573 -0.6862
  144OSM    H8T15821   2.563   4.438   6.860  0.2569  0.3710 -0.7176
  144OSM    C9S15822   2.504   4.290   7.006 -0.2232 -0.1460 -0.0609
  144OSM    H9S15823   2.611   4.288   7.036 -0.6000 -2.1912  1.4128
  144OSM    H9T15824   2.478   4.182   7.010  1.4756 -0.5611  1.0385
  144OSM   C10S15825   2.420   4.370   7.116  0.0914  0.9441  0.3577
  144OSM   H10S15826   2.321   4.367   7.067  0.8061  1.3711 -1.1883
  144OSM   H10T15827   2.458   4.474   7.122 -0.9160  1.4416 -1.2810
  144OSM   C11S15828   2.426   4.295   7.240 -0.0772  0.0118 -0.3567
  144OSM   H11S15829   2.436   4.188   7.212  0.5815  0.0666 -0.3399
  144OSM   H11T15830   2.339   4.310   7.308  0.3487 -1.7794  0.6729
  144OSM   C12S15831   2.556   4.327   7.331  0.4433  0.8241  0.2195
  144OSM   H12S15832   2.537   4.425   7.378  0.2410  1.5147 -1.2616
  144OSM   H12T15833   2.645   4.334   7.264 -0.3528 -0.7295 -1.0681
  144OSM   C13S15834   2.567   4.222   7.442  0.1005 -0.2815 -0.4276
  144OSM   H13S15835   2.655   4.255   7.501  0.8898 -0.0256 -1.7088
  144OSM   H13T15836   2.576   4.122   7.396  0.5272  0.3876 -1.8614
  144OSM   C14S15837   2.458   4.229   7.545  0.3844 -0.4491 -0.2779
  144OSM   H14S15838   2.353   4.212   7.511 -0.2595  0.6750  1.0555
  144OSM   H14T15839   2.467   4.326   7.597 -0.0262 -0.1724 -0.7164
  144OSM   C15S15840   2.477   4.139   7.668 -0.1215  0.0410  0.1290
  144OSM   H15S15841   2.574   4.166   7.714 -1.4421  0.2848  2.9633
  144OSM   H15T15842   2.479   4.032   7.637  1.3624 -0.1394  0.7479
  144OSM   C16S15843   2.374   4.163   7.779  0.0596 -0.7031  0.0668
  144OSM   H16S15844   2.280   4.118   7.739  0.1842  0.7481 -2.0096
  144OSM   H16T15845   2.341   4.267   7.799 -2.1110 -1.9018  3.7659
  144OSM   C17S15846   2.415   4.095   7.914  0.5537  0.5749  0.0133
  144OSM   H17S15847   2.509   4.136   7.957  0.4211 -0.7407  1.6887
  144OSM   H17T15848   2.417   3.984   7.901  0.8431  0.5206  0.4674
  144OSM   C18S15849   2.316   4.126   8.023 -0.0641 -0.0116 -0.1233
  144OSM   H18S15850   2.321   4.235   8.043 -0.5576 -0.2241  1.2947
  144OSM   H18T15851   2.331   4.071   8.118 -0.0948 -1.8264 -1.1182
  144OSM   H18U15852   2.213   4.102   7.988  0.6777 -2.8351 -0.5954
  144OSM    C1F15853   2.028   4.455   6.774  0.4632 -0.6760 -0.0962
  144OSM     OF15854   1.934   4.387   6.739 -0.0859 -0.3278  0.4025
  144OSM    C2F15855   2.046   4.506   6.916 -0.3165 -0.1571  0.2476
  144OSM    H2F15856   2.062   4.615   6.914 -2.7375  0.2547 -1.2805
  144OSM    H2G15857   2.138   4.463   6.961  1.1584  2.3609 -0.1930
  144OSM    C3F15858   1.934   4.459   7.017  0.2825 -0.3314  0.7391
  144OSM    H3F15859   1.951   4.355   7.054 -0.0986 -0.7404 -0.2226
  144OSM    H3G15860   1.835   4.459   6.968  0.8431  0.5814 -0.4368
  144OSM    C4F15861   1.932   4.535   7.153 -0.7242 -0.6241 -0.4134
  144OSM    H4F15862   1.922   4.643   7.132  1.2264 -0.3877 -0.2961
  144OSM    H4G15863   2.034   4.531   7.195  0.3169  1.8631 -2.4686
  144OSM    C5F15864   1.834   4.485   7.263 -0.0613 -0.6176 -0.2376
  144OSM    H5F15865   1.799   4.382   7.237 -0.8703  0.1007 -2.1711
  144OSM    H5G15866   1.743   4.548   7.258  0.9433  1.0224  1.0768
  144OSM    C6F15867   1.896   4.482   7.405  0.9153 -0.0994  0.7016
  144OSM    H6F15868   1.941   4.582   7.424  0.2525  0.4830 -0.6768
  144OSM    H6G15869   1.982   4.412   7.420 -0.4955 -1.5372  2.6605
  144OSM    C7F15870   1.794   4.426   7.498  0.0016  0.3852  0.3699
  144OSM    H7F15871   1.845   4.395   7.592  1.6655 -0.5869 -0.7806
  144OSM    H7G15872   1.739   4.338   7.458  0.2121  0.0125  0.8904
  144OSM    C8F15873   1.689   4.532   7.535 -0.8215 -0.4011  0.2387
  144OSM    H8F15874   1.662   4.588   7.443  4.1860  1.0668 -0.6661
  144OSM    H8G15875   1.750   4.595   7.603  1.9651 -2.5278 -0.1241
  144OSM    C9F15876   1.575   4.470   7.612  0.6068  1.0985 -0.1417
  144OSM    H9F15877   1.493   4.442   7.544  0.6200 -0.2479  0.3620
  144OSM   C10F15878   1.560   4.442   7.746  0.3160  0.8257  0.8653
  144OSM   H10F15879   1.463   4.404   7.783  1.3012 -2.3871  0.4677
  144OSM   C11F15880   1.663   4.474   7.853  0.1506 -0.5846  0.1085
  144OSM   H11F15881   1.762   4.481   7.803 -1.1146 -2.5063 -2.9839
  144OSM   H11G15882   1.665   4.391   7.927  2.2040  1.1916  2.1682
  144OSM   C12F15883   1.631   4.606   7.929  0.3169  0.8701  0.1630
  144OSM   H12F15884   1.609   4.684   7.854 -1.4565  1.5233  1.2977
  144OSM   H12G15885   1.718   4.643   7.988  0.2371  0.4261  0.5678
  144OSM   C13F15886   1.516   4.589   8.029 -0.7776  0.1444  0.3300
  144OSM   H13F15887   1.526   4.500   8.095  0.6549  0.1837  0.1889
  144OSM   H13G15888   1.416   4.581   7.980 -0.2735  3.3899 -1.4867
  144OSM   C14F15889   1.497   4.712   8.125  0.0249  0.8741 -0.4496
  144OSM   H14F15890   1.410   4.686   8.189  1.0577 -1.2039  0.1958
  144OSM   H14G15891   1.485   4.807   8.069  1.4601  1.0598 -0.4769
  144OSM   C15F15892   1.608   4.737   8.231 -0.4498 -0.2567 -0.2032
  144OSM   H15F15893   1.705   4.757   8.181  0.0536 -2.1218 -0.0390
  144OSM   H15G15894   1.626   4.641   8.284 -1.3051 -2.1283 -3.0524
  144OSM   C16F15895   1.577   4.849   8.337 -0.1477  0.8967  0.7062
  144OSM   H16F15896   1.485   4.837   8.397  0.4959  3.4113  2.3772
  144OSM   H16G15897   1.557   4.942   8.279  0.4293  0.4014 -0.3312
  144OSM   C17F15898   1.691   4.856   8.446 -0.2165  0.1266 -0.0570
  144OSM   H17F15899   1.697   4.752   8.483  3.3869  0.6269  1.1031
  144OSM   H17G15900   1.666   4.922   8.532  0.0788 -1.7034  1.4866
  144OSM   C18F15901   1.828   4.877   8.388 -0.4824  0.5065 -0.7227
  144OSM   H18F15902   1.863   4.779   8.349 -0.6859 -0.1552  0.7163
  144OSM   H18G15903   1.895   4.914   8.467 -2.0417 -0.4687  1.1451
  144OSM   H18H15904   1.833   4.946   8.301 -2.0178 -0.0665 -1.3132
  145SAPE     N15905   6.068   3.938  10.900  0.2063 -0.2063  0.1211
  145SAPE   HN115906   6.019   3.887  10.976 -2.0359 -2.6030 -2.6860
  145SAPE   HN215907   6.147   3.998  10.932 -0.1962  0.1094  0.5500
  145SAPE   HN315908   5.995   4.004  10.866 -1.3862 -1.4039  1.0715
  145SAPE   C1215909   6.107   3.839  10.792 -0.1336 -0.5845  0.4177
  145SAPE  H12A15910   6.122   3.896  10.698 -1.2140 -1.7864 -0.5201
  145SAPE  H12B15911   6.019   3.778  10.764 -0.5884  0.7078 -1.1206
  145SAPE   C1115912   6.235   3.766  10.836 -0.8061  0.2590  1.2406
  145SAPE  H11A15913   6.264   3.700  10.751 -1.7111  2.0593 -0.5785
  145SAPE  H11B15914   6.206   3.702  10.922 -0.0039  1.3615  2.3524
  145SAPE     P15915   6.465   3.878  10.773 -0.3108  0.1475  0.2893
  145SAPE   O1315916   6.568   3.971  10.830 -0.8629 -0.1754  0.5199
  145SAPE   O1415917   6.493   3.747  10.709 -0.0020 -0.0263 -0.1119
  145SAPE   O1215918   6.339   3.861  10.873 -0.5880 -0.3186 -0.4587
  145SAPE   O1115919   6.399   3.961  10.654  0.6675 -0.2796  0.2492
  145SAPE    C115920   6.351   4.095  10.665  0.5994  0.0192  0.1147
  145SAPE    HA15921   6.247   4.093  10.705  0.4638  2.0149 -0.0482
  145SAPE    HB15922   6.417   4.152  10.734  0.0242  0.4074  0.3509
  145SAPE    C215923   6.362   4.176  10.529  0.4093  0.6196  0.1065
  145SAPE    HS15924   6.361   4.287  10.540 -3.4405  0.6799  0.4275
  145SAPE   O2115925   6.255   4.136  10.441 -0.4812  0.7326  0.2884
  145SAPE   C2115926   6.145   4.211  10.440  0.5114 -0.4666 -0.4500
  145SAPE   O2215927   6.106   4.292  10.523  0.0762 -0.0623 -0.1196
  145SAPE   C2215928   6.065   4.184  10.316  0.3796 -0.2903  0.4670
  145SAPE   H2R15929   6.112   4.105  10.253  2.1966  0.0646  1.3176
  145SAPE   H2S15930   5.964   4.144  10.339 -0.7308  1.5705 -0.8096
  145SAPE    C315931   6.505   4.150  10.463  0.3763  0.1649 -0.2296
  145SAPE    HX15932   6.510   4.049  10.416  1.3776  0.4987 -0.8846
  145SAPE    HY15933   6.566   4.153  10.556 -0.1989  0.5094  0.1424
  145SAPE   O3115934   6.540   4.254  10.377 -0.0982  0.0361  0.1782
  145SAPE   C3115935   6.629   4.231  10.282  0.9865 -0.7229  0.4102
  145SAPE   O3215936   6.678   4.124  10.253  0.5976 -0.7973 -0.4017
  145SAPE   C3215937   6.635   4.357  10.188 -0.2344  0.2567 -0.2674
  145SAPE   H2X15938   6.711   4.429  10.226 -0.3665  0.0904  0.3192
  145SAPE   H2Y15939   6.533   4.401  10.189 -0.1867  0.5335 -2.6466
  145SAPE   C2315940   6.040   4.312  10.228 -0.6993  0.1524  0.5502
  145SAPE   H3R15941   6.005   4.393  10.295  1.5102  1.0142  0.7248
  145SAPE   H3S15942   5.954   4.287  10.162 -1.1236  2.2827  0.2323
  145SAPE   C2415943   6.163   4.345  10.143 -0.7421 -0.0470 -0.4914
  145SAPE   H4R15944   6.162   4.282  10.051  0.9548 -1.4475  0.3993
  145SAPE   H4S15945   6.259   4.317  10.191 -1.1699 -0.9922 -0.1441
  145SAPE   C2515946   6.175   4.494  10.115 -0.1876 -0.2052 -0.0910
  145SAPE   H5R15947   6.193   4.557  10.203  1.6499  3.4310 -2.7560
  145SAPE   C2615948   6.184   4.559   9.993  0.0155 -0.3468 -0.4952
  145SAPE   H6R15949   6.191   4.668   9.989 -1.5389 -0.2625 -1.5422
  145SAPE   C2715950   6.161   4.494   9.860 -0.3477  0.0426 -0.0051
  145SAPE   H7R15951   6.060   4.447   9.861 -1.5033  2.3265 -1.3038
  145SAPE   H7S15952   6.225   4.404   9.851  1.9992  1.6703 -0.6288
  145SAPE   C2815953   6.162   4.573   9.734 -0.4386 -0.5510 -0.2710
  145SAPE   H8R15954   6.070   4.631   9.718  0.3121  0.4375 -1.1414
  145SAPE   C2915955   6.275   4.583   9.654  0.4508  0.3176 -0.6626
  145SAPE   H9R15956   6.275   4.646   9.564 -0.7435  2.8121  1.0056
  145SAPE  C21015957   6.402   4.512   9.691  0.1209  0.3239 -0.0348
  145SAPE  H10R15958   6.392   4.418   9.633  0.5295 -0.7095  1.5131
  145SAPE  H10S15959   6.411   4.482   9.797 -0.7148 -1.4762 -0.4287
  145SAPE  C21115960   6.529   4.589   9.661  0.2325 -0.2110  0.1801
  145SAPE  H11R15961   6.598   4.585   9.747  0.8345  0.5994 -0.2523
  145SAPE  C21215962   6.588   4.629   9.549  0.6547 -0.2094  0.6216
  145SAPE  H12R15963   6.673   4.699   9.556 -0.1048  1.0400 -1.4847
  145SAPE  C21315964   6.522   4.626   9.410 -0.4874  0.4255  0.6969
  145SAPE  H13R15965   6.424   4.575   9.408  0.8357 -2.3181  0.8659
  145SAPE  H13S15966   6.575   4.551   9.347 -0.3126  1.0498  0.0861
  145SAPE  C21415967   6.524   4.749   9.322  0.2598 -0.0009 -1.0288
  145SAPE  H14R15968   6.446   4.821   9.349  0.2551  0.3648 -1.9648
  145SAPE  C21515969   6.618   4.792   9.243 -0.2631  0.2131  0.8231
  145SAPE  H15R15970   6.605   4.880   9.179 -0.6289 -1.1937 -1.1455
  145SAPE  C21615971   6.750   4.719   9.217 -0.4796  0.1866 -0.4327
  145SAPE  H16R15972   6.737   4.609   9.228 -2.0551  0.5166  1.7808
  145SAPE  H16S15973   6.819   4.753   9.297  0.6232 -1.1459 -0.7854
  145SAPE  C21715974   6.820   4.746   9.087 -0.3615  0.4331 -0.2272
  145SAPE  H17R15975   6.925   4.708   9.090 -0.1336  1.0632  2.6707
  145SAPE  H17S15976   6.828   4.857   9.089 -2.3428  0.6244  2.5256
  145SAPE  C21815977   6.747   4.698   8.962  0.0652  0.4154 -0.2105
  145SAPE  H18R15978   6.812   4.731   8.879  2.2500  1.3610  1.7796
  145SAPE  H18S15979   6.650   4.753   8.956 -0.0469  0.4750  1.6969
  145SAPE  C21915980   6.741   4.552   8.956 -0.5176  0.2314  0.0767
  145SAPE  H19R15981   6.669   4.515   9.032  1.1287  0.3755  1.7704
  145SAPE  H19S15982   6.840   4.508   8.983 -0.4310 -0.8254 -1.8227
  145SAPE  C22015983   6.725   4.489   8.822  0.1958 -0.2098  0.0135
  145SAPE  H20R15984   6.737   4.379   8.826 -0.4643 -0.3648 -1.4623
  145SAPE  H20S15985   6.809   4.530   8.762 -0.5773 -0.0905 -1.0250
  145SAPE  H20T15986   6.636   4.513   8.760  0.4095 -0.4167 -0.3776
  145SAPE   C3315987   6.667   4.309  10.038  0.5846  0.2917 -0.0123
  145SAPE   H3X15988   6.766   4.258  10.040  0.0809 -0.7146  0.8738
  145SAPE   H3Y15989   6.671   4.399   9.974 -1.3219 -1.2043 -2.4636
  145SAPE   C3415990   6.558   4.217   9.981 -0.6479  0.4458 -0.0322
  145SAPE   H4X15991   6.474   4.279   9.943  0.0520  2.5599  1.6266
  145SAPE   H4Y15992   6.524   4.141  10.055  0.7133  0.2328  0.4003
  145SAPE   C3515993   6.606   4.132   9.855 -0.4251 -0.0262  0.0908
  145SAPE   H5X15994   6.527   4.065   9.816 -0.6504  0.6877 -0.7132
  145SAPE   H5Y15995   6.686   4.057   9.875  0.2028  0.4858 -0.4485
  145SAPE   C3615996   6.652   4.237   9.744  0.1613  0.4404 -0.0229
  145SAPE   H6X15997   6.755   4.266   9.774  1.0092 -0.6871 -1.6873
  145SAPE   H6Y15998   6.585   4.326   9.751 -0.2333  0.3496 -2.0272
  145SAPE   C3715999   6.645   4.173   9.600  0.0777 -0.1064  0.5097
  145SAPE   H7X16000   6.541   4.176   9.561  0.9479  0.3815 -1.9270
  145SAPE   H7Y16001   6.682   4.069   9.613 -1.1337 -0.4526  1.4317
  145SAPE   C3816002   6.711   4.259   9.491 -0.0716  0.2689 -0.2577
  145SAPE   H8X16003   6.820   4.245   9.501 -0.3393 -1.7535  0.2426
  145SAPE   H8Y16004   6.680   4.365   9.506 -0.3765  0.0720  0.5465
  145SAPE   C3916005   6.676   4.199   9.355  0.7556  0.8059  0.2525
  145SAPE   H9X16006   6.575   4.237   9.327 -0.6655 -1.2558  2.1368
  145SAPE   H9Y16007   6.679   4.088   9.357  0.6188  0.6788 -2.7058
  145SAPE  C31016008   6.772   4.241   9.240 -0.2165  0.3962 -0.6109
  145SAPE  H10X16009   6.878   4.225   9.268  0.2387  2.1240 -1.2000
  145SAPE  H10Y16010   6.755   4.349   9.223  0.1121  0.5062 -0.2464
  145SAPE  C31116011   6.753   4.157   9.113 -0.5399  0.2641 -0.5249
  145SAPE  H11X16012   6.769   4.052   9.144 -3.1543 -0.0095  0.1011
  145SAPE  H11Y16013   6.836   4.192   9.048 -0.7963  0.4943 -0.7355
  145SAPE  C31216014   6.617   4.173   9.050 -0.4509 -0.2616 -0.2875
  145SAPE  H12X16015   6.584   4.277   9.033 -1.3422 -0.5830 -0.5595
  145SAPE  H12Y16016   6.545   4.120   9.115 -1.8805 -0.8502 -2.2297
  145SAPE  C31316017   6.608   4.113   8.912 -0.4654 -0.8286 -0.0531
  145SAPE  H13X16018   6.636   4.197   8.845 -3.9891  0.8340  0.3281
  145SAPE  H13Y16019   6.504   4.082   8.886 -0.6435 -0.2104 -0.0831
  145SAPE  C31416020   6.706   3.992   8.891 -0.4082  0.3759 -0.3924
  145SAPE  H14X16021   6.705   3.928   8.982  1.2422  1.5913  0.5229
  145SAPE  H14Y16022   6.812   4.021   8.875 -0.4989  1.6589  1.0798
  145SAPE  C31516023   6.652   3.914   8.774  0.1494 -0.2102 -0.2028
  145SAPE  H15X16024   6.692   3.953   8.678  2.2246 -0.1793  0.6233
  145SAPE  H15Y16025   6.542   3.915   8.760  0.2761  1.3394 -1.2800
  145SAPE  C31616026   6.691   3.766   8.780  0.3256  0.1413  0.2456
  145SAPE  H16X16027   6.680   3.714   8.877  0.6211 -0.3690  0.0092
  145SAPE  H16Y16028   6.798   3.769   8.750  0.0281  2.6603 -0.8635
  145SAPE  C31716029   6.623   3.671   8.678  0.4860  0.1822  0.3680
  145SAPE  H17X16030   6.694   3.593   8.641 -0.2742 -1.0420  1.4298
  145SAPE  H17Y16031   6.606   3.734   8.587  0.4834  2.2196  1.7060
  145SAPE  C31816032   6.489   3.619   8.734  0.2911  0.5275  0.9138
  145SAPE  H18X16033   6.503   3.577   8.837  0.2395 -0.4342  0.5420
  145SAPE  H18Y16034   6.465   3.533   8.668  2.6110  1.0195 -0.6403
  145SAPE  H18Z16035   6.403   3.689   8.736  0.0512  0.2467  0.5933
  146SAPE     N16036   6.226   5.928  10.886  0.4182 -0.4974  0.6241
  146SAPE   HN116037   6.237   5.903  10.986  2.3828 -0.7043  0.3964
  146SAPE   HN216038   6.125   5.918  10.867  0.3677  1.3826 -0.3653
  146SAPE   HN316039   6.281   5.857  10.833  1.0567  0.7669 -0.5058
  146SAPE   C1216040   6.287   6.059  10.848  0.7885  0.0934  0.4385
  146SAPE  H12A16041   6.395   6.073  10.870  1.0239  2.4819 -1.7349
  146SAPE  H12B16042   6.233   6.145  10.893  1.7561 -0.1277  2.0809
  146SAPE   C1116043   6.279   6.077  10.690 -0.6485 -0.2945  1.2204
  146SAPE  H11A16044   6.343   6.004  10.636  1.4802  1.8938  0.6114
  146SAPE  H11B16045   6.316   6.176  10.654 -0.8817 -1.0173 -1.1853
  146SAPE     P16046   6.024   6.162  10.657  0.3258  0.0409 -0.3386
  146SAPE   O1316047   5.937   6.160  10.536  0.0504 -0.0810  0.1720
  146SAPE   O1416048   5.959   6.146  10.791  0.3944 -0.0036 -0.7343
  146SAPE   O1216049   6.140   6.065  10.655 -0.4297  0.2164  0.3427
  146SAPE   O1116050   6.100   6.299  10.667 -0.0541 -0.8003  0.4687
  146SAPE    C116051   6.125   6.391  10.561 -0.3068 -0.1201 -0.1096
  146SAPE    HA16052   6.032   6.449  10.549 -0.3344  0.3533  2.0187
  146SAPE    HB16053   6.195   6.472  10.593 -1.0349  0.2934  0.4627
  146SAPE    C216054   6.176   6.330  10.427 -0.2388  0.4223 -0.2068
  146SAPE    HS16055   6.096   6.260  10.394 -1.5343 -0.1162  3.5960
  146SAPE   O2116056   6.307   6.273  10.443 -0.3499 -0.1751 -0.5677
  146SAPE   C2116057   6.327   6.179  10.353 -1.1167  0.3729  0.2963
  146SAPE   O2216058   6.241   6.121  10.288 -0.0479 -0.0306  0.9291
  146SAPE   C2216059   6.479   6.134  10.350 -0.5864  0.6802  0.7529
  146SAPE   H2R16060   6.523   6.125  10.451 -1.5657 -1.0581  1.0745
  146SAPE   H2S16061   6.478   6.031  10.307  1.0067 -0.3388  2.9272
  146SAPE    C316062   6.181   6.444  10.315 -0.8856 -0.1221  0.2908
  146SAPE    HX16063   6.264   6.512  10.346 -0.4215 -0.2494 -0.6192
  146SAPE    HY16064   6.087   6.494  10.344 -0.0186  0.2692  2.6625
  146SAPE   O3116065   6.197   6.404  10.181  0.0118 -0.1226 -0.0280
  146SAPE   C3116066   6.089   6.413  10.105 -0.0829  0.4712  0.8047
  146SAPE   O3216067   5.984   6.460  10.141 -0.1446  0.5458  0.5732
  146SAPE   C3216068   6.115   6.345   9.970 -0.4211  0.1233 -0.3621
  146SAPE   H2X16069   6.037   6.271   9.941 -1.8700  1.6183 -0.4869
  146SAPE   H2Y16070   6.218   6.304   9.972 -1.0522 -1.5217  0.3844
  146SAPE   C2316071   6.561   6.233  10.260 -0.1625  0.2324 -0.6275
  146SAPE   H3R16072   6.654   6.267  10.311  0.1754  0.0581 -1.1182
  146SAPE   H3S16073   6.502   6.325  10.240 -1.8049 -0.6434  0.0389
  146SAPE   C2416074   6.597   6.184  10.119  0.2938  0.3808 -0.4867
  146SAPE   H4R16075   6.623   6.076  10.120 -0.8883  0.0484  1.4884
  146SAPE   H4S16076   6.692   6.240  10.107  0.5442  1.1999  3.5923
  146SAPE   C2516077   6.492   6.202  10.014 -0.0433  0.2048 -0.0026
  146SAPE   H5R16078   6.392   6.192  10.059  0.3277  0.1570  0.8357
  146SAPE   C2616079   6.504   6.223   9.879  0.2224 -0.1338  0.6358
  146SAPE   H6R16080   6.416   6.232   9.815 -0.0856 -1.1156  0.9055
  146SAPE   C2716081   6.646   6.236   9.821 -0.2726  0.1376  0.5203
  146SAPE   H7R16082   6.717   6.293   9.884  1.5037 -3.2825  1.8659
  146SAPE   H7S16083   6.645   6.302   9.732 -2.0928  1.4831  1.4696
  146SAPE   C2816084   6.722   6.108   9.787  0.8339 -0.3849  0.4020
  146SAPE   H8R16085   6.791   6.077   9.867  1.6612 -0.2168 -0.2408
  146SAPE   C2916086   6.716   6.045   9.668  0.1620  0.3545 -0.2364
  146SAPE   H9R16087   6.765   5.948   9.648  1.1914  0.1778  2.5492
  146SAPE  C21016088   6.626   6.083   9.557 -0.4293  0.5533 -0.1741
  146SAPE  H10R16089   6.647   6.180   9.508  0.1496  0.1612 -0.7228
  146SAPE  H10S16090   6.525   6.088   9.604 -0.2812  0.1675  0.1834
  146SAPE  C21116091   6.613   5.982   9.448  0.4368 -0.4137  0.0073
  146SAPE  H11R16092   6.526   5.914   9.452 -0.1411  0.2791 -0.5185
  146SAPE  C21216093   6.705   5.945   9.360 -0.3888  0.2079  0.8942
  146SAPE  H12R16094   6.673   5.878   9.279 -1.2360 -1.2674  2.3958
  146SAPE  C21316095   6.842   6.018   9.340  0.3285  0.6387  0.3086
  146SAPE  H13R16096   6.876   6.065   9.435  0.5911  0.4379  0.3144
  146SAPE  H13S16097   6.826   6.094   9.261 -2.6678 -1.2377 -1.0896
  146SAPE  C21416098   6.940   5.912   9.297  0.4742  0.8075  0.7776
  146SAPE  H14R16099   6.960   5.840   9.378  1.8031  0.2316 -0.0337
  146SAPE  C21516100   7.012   5.900   9.178  0.1454 -0.1582 -0.8035
  146SAPE  H15R16101   7.070   5.807   9.170  0.5796  0.0082  0.2352
  146SAPE  C21616102   7.025   5.994   9.064  0.4401 -0.4230 -0.2906
  146SAPE  H16R16103   6.998   6.094   9.101  1.6366 -1.5184  4.0790
  146SAPE  H16S16104   6.953   5.974   8.981  0.0669 -0.0268 -0.0637
  146SAPE  C21716105   7.171   6.014   9.020 -0.0029  0.0775 -0.2542
  146SAPE  H17R16106   7.238   6.024   9.109  0.0747 -3.5340  0.2456
  146SAPE  H17S16107   7.186   6.098   8.949 -0.1883  0.6454  0.3584
  146SAPE  C21816108   7.233   5.883   8.964  0.1622 -0.3057  0.9199
  146SAPE  H18R16109   7.153   5.844   8.896  0.4075  1.2851 -0.3343
  146SAPE  H18S16110   7.253   5.817   9.051  2.0097 -0.5879  0.3137
  146SAPE  C21916111   7.363   5.898   8.874  0.1302 -0.4656 -0.1072
  146SAPE  H19R16112   7.437   5.959   8.930 -0.0179  1.4317 -1.8671
  146SAPE  H19S16113   7.333   5.964   8.790 -0.1605  1.2683  1.2859
  146SAPE  C22016114   7.447   5.777   8.827  0.7661  0.3260  0.1494
  146SAPE  H20R16115   7.546   5.801   8.781  1.2370 -0.3393  0.7886
  146SAPE  H20S16116   7.383   5.713   8.763 -0.0851  0.5680  0.7340
  146SAPE  H20T16117   7.466   5.711   8.914 -1.3106  0.2552  0.5983
  146SAPE   C3316118   6.109   6.436   9.845 -0.0953  0.3118 -0.6056
  146SAPE   H3X16119   6.165   6.385   9.763  0.0168 -1.1601  0.3399
  146SAPE   H3Y16120   6.157   6.536   9.847 -1.1870  0.8245  0.0822
  146SAPE   C3416121   5.969   6.459   9.799 -0.8455  0.2794 -0.1385
  146SAPE   H4X16122   5.902   6.474   9.887 -1.5885 -0.4218 -0.5636
  146SAPE   H4Y16123   5.933   6.367   9.748 -0.2064  0.4110 -0.8387
  146SAPE   C3516124   5.957   6.586   9.714 -0.4621 -0.2933  0.1758
  146SAPE   H5X16125   6.048   6.603   9.653  0.5190 -1.0299  1.3964
  146SAPE   H5Y16126   5.944   6.674   9.779  0.2444 -1.0015  1.2978
  146SAPE   C3616127   5.838   6.567   9.619 -0.0014 -0.0256  0.1076
  146SAPE   H6X16128   5.752   6.528   9.677  1.7719 -1.7404  1.7387
  146SAPE   H6Y16129   5.864   6.500   9.534 -2.8510  0.3876 -1.1831
  146SAPE   C3716130   5.787   6.699   9.559 -0.0722 -0.3183  0.6584
  146SAPE   H7X16131   5.803   6.779   9.634  0.5758 -1.1234  1.4120
  146SAPE   H7Y16132   5.678   6.709   9.537  0.2290  0.9932 -0.3741
  146SAPE   C3816133   5.868   6.724   9.431  0.2633  0.4797 -0.1324
  146SAPE   H8X16134   5.872   6.639   9.359  1.2734  1.0430 -0.7715
  146SAPE   H8Y16135   5.975   6.730   9.460  0.5082 -0.2574 -0.8546
  146SAPE   C3916136   5.842   6.861   9.366 -0.8032 -0.4682 -0.1773
  146SAPE   H9X16137   5.852   6.940   9.443  1.3222 -1.6254  0.8241
  146SAPE   H9Y16138   5.735   6.866   9.336 -1.2289 -0.1327  1.3390
  146SAPE  C31016139   5.920   6.889   9.243 -0.0232 -0.9201 -0.0360
  146SAPE  H10X16140   5.933   6.795   9.185  1.6551 -0.4870 -0.4310
  146SAPE  H10Y16141   6.026   6.909   9.269  0.1822 -0.5244 -1.0975
  146SAPE  C31116142   5.865   6.993   9.146 -0.3422 -0.1256 -0.0844
  146SAPE  H11X16143   5.816   7.080   9.194 -0.0326 -0.0382  0.0802
  146SAPE  H11Y16144   5.774   6.957   9.094 -0.6325  0.4156  0.0409
  146SAPE  C31216145   5.969   7.043   9.044  0.5032 -0.5754  0.3829
  146SAPE  H12X16146   6.046   7.104   9.097  1.1906  1.3885 -2.6006
  146SAPE  H12Y16147   5.931   7.125   8.980 -0.2469 -0.6986  0.6582
  146SAPE  C31316148   6.031   6.936   8.956  0.3989  0.0299 -0.4167
  146SAPE  H13X16149   5.957   6.869   8.906 -0.1548 -1.5025  2.2695
  146SAPE  H13Y16150   6.104   6.872   9.010  0.5542  2.3399  2.3285
  146SAPE  C31416151   6.120   7.005   8.853  0.3110 -0.1704 -0.3641
  146SAPE  H14X16152   6.160   7.102   8.892  1.9595  0.0951 -2.5306
  146SAPE  H14Y16153   6.047   7.037   8.776 -1.0132  0.8095  1.2153
  146SAPE  C31516154   6.246   6.931   8.789  0.0275 -0.7456  0.1194
  146SAPE  H15X16155   6.200   6.845   8.735 -0.3933 -0.6227  0.2765
  146SAPE  H15Y16156   6.324   6.910   8.866 -0.1206 -1.4253  0.0873
  146SAPE  C31616157   6.317   7.017   8.681  0.2783  0.4155 -0.4158
  146SAPE  H16X16158   6.354   7.106   8.736  0.5749 -0.6564  1.1814
  146SAPE  H16Y16159   6.228   7.049   8.621 -0.1679 -0.6913 -0.3610
  146SAPE  C31716160   6.425   6.939   8.605 -0.4785  0.3562 -0.5994
  146SAPE  H17X16161   6.515   6.950   8.669 -0.7148  0.6238 -0.3125
  146SAPE  H17Y16162   6.452   6.997   8.514 -0.7901  1.7224  0.1538
  146SAPE  C31816163   6.395   6.789   8.583  0.0598 -0.9579 -0.5656
  146SAPE  H18X16164   6.305   6.777   8.519 -1.7526  0.0718  1.6315
  146SAPE  H18Y16165   6.395   6.722   8.672  1.7946 -0.7401 -0.3624
  146SAPE  H18Z16166   6.474   6.744   8.519 -0.3052  0.2627 -1.9150
  147SAPE     N16167   0.980   0.828  11.233  0.3876 -0.1402  0.3671
  147SAPE   HN116168   0.947   0.926  11.247 -0.0641 -0.2563  0.1254
  147SAPE   HN216169   0.921   0.769  11.294 -1.5590  0.5207 -0.7811
  147SAPE   HN316170   1.080   0.831  11.261  0.0658  1.0318  1.5000
  147SAPE   C1216171   0.942   0.788  11.089 -0.6295  0.2097  0.8997
  147SAPE  H12A16172   1.014   0.706  11.069 -0.7153  0.1816  0.7028
  147SAPE  H12B16173   0.968   0.876  11.026 -0.3245  1.6099  2.8810
  147SAPE   C1116174   0.793   0.768  11.090 -0.5161  0.6560 -0.2461
  147SAPE  H11A16175   0.789   0.676  11.154  1.0374  0.9083  0.2581
  147SAPE  H11B16176   0.741   0.727  11.001 -2.6248  0.4933  0.9918
  147SAPE     P16177   0.648   0.988  11.060 -0.3259  0.2189 -0.1647
  147SAPE   O1316178   0.530   0.935  10.985 -0.0118  0.4569  0.0720
  147SAPE   O1416179   0.626   1.112  11.133  0.5576  0.5640 -0.0740
  147SAPE   O1216180   0.715   0.874  11.150 -0.1679  0.4196  0.9722
  147SAPE   O1116181   0.762   1.008  10.955  0.3003  0.4002  0.9171
  147SAPE    C116182   0.773   1.146  10.899 -0.2563  0.0216 -0.0310
  147SAPE    HA16183   0.784   1.223  10.979  0.8671  0.7786 -0.8916
  147SAPE    HB16184   0.865   1.159  10.838 -0.2262  0.7907  0.1674
  147SAPE    C216185   0.666   1.175  10.787  0.7277  0.9432 -0.9090
  147SAPE    HS16186   0.573   1.180  10.848  0.9059  0.4724 -0.5905
  147SAPE   O2116187   0.656   1.059  10.704 -0.0764  0.1133  0.2663
  147SAPE   C2116188   0.533   1.039  10.653  0.8366 -0.1351  0.4423
  147SAPE   O2216189   0.440   1.117  10.679  0.2180  0.6796 -0.0531
  147SAPE   C2216190   0.529   0.912  10.561  0.5939  0.2690  0.3660
  147SAPE   H2R16191   0.502   0.956  10.463 -1.8041  0.9920  1.2603
  147SAPE   H2S16192   0.622   0.853  10.573  1.0547  1.3170  2.3573
  147SAPE    C316193   0.689   1.303  10.706  0.0625 -0.5357 -0.4245
  147SAPE    HX16194   0.731   1.378  10.778  1.5757  0.4274 -2.2167
  147SAPE    HY16195   0.595   1.339  10.660  0.1369  1.5172  0.8639
  147SAPE   O3116196   0.801   1.293  10.617 -0.2108  0.1733  1.0167
  147SAPE   C3116197   0.775   1.262  10.492  0.1784 -0.5168  0.3720
  147SAPE   O3216198   0.664   1.223  10.453 -0.0996 -0.2213  0.2298
  147SAPE   C3216199   0.895   1.285  10.399 -0.4559 -0.0219 -0.1098
  147SAPE   H2X16200   0.971   1.211  10.431 -3.6569 -2.8604  1.6156
  147SAPE   H2Y16201   0.942   1.386  10.398 -0.6741  0.1399  1.9527
  147SAPE   C2316202   0.404   0.821  10.597 -0.3263  0.4106  0.2144
  147SAPE   H3R16203   0.309   0.879  10.598 -3.0548 -3.5699 -1.8414
  147SAPE   H3S16204   0.415   0.793  10.703 -0.5979 -1.3381 -0.1898
  147SAPE   C2416205   0.389   0.701  10.513 -0.8594  0.0959 -0.2332
  147SAPE   H4R16206   0.318   0.633  10.565  0.1665 -0.7371  0.1156
  147SAPE   H4S16207   0.486   0.647  10.508 -1.3631 -0.7331 -2.0377
  147SAPE   C2516208   0.338   0.722  10.372  0.5416  0.2926  0.6411
  147SAPE   H5R16209   0.230   0.733  10.358  0.6442 -0.3110 -0.8225
  147SAPE   C2616210   0.408   0.736  10.259  0.0587  0.0685 -0.1657
  147SAPE   H6R16211   0.354   0.743  10.164  1.3527  0.5107 -0.8814
  147SAPE   C2716212   0.557   0.740  10.244 -0.2224  0.1695  0.1071
  147SAPE   H7R16213   0.585   0.667  10.165  2.1586 -0.4263  1.4013
  147SAPE   H7S16214   0.606   0.702  10.336  0.1642  1.1281  0.3105
  147SAPE   C2816215   0.632   0.870  10.212  0.4891 -0.5965  0.2378
  147SAPE   H8R16216   0.669   0.924  10.300 -1.7513  1.1895  0.1770
  147SAPE   C2916217   0.656   0.921  10.093 -0.5347 -0.2252 -0.6565
  147SAPE   H9R16218   0.698   1.022  10.094  2.0641 -1.2340  0.3032
  147SAPE  C21016219   0.607   0.870   9.958  0.3820  0.3712 -0.9499
  147SAPE  H10R16220   0.560   0.770   9.970 -0.8155  1.1289  1.2030
  147SAPE  H10S16221   0.704   0.853   9.907 -0.1689 -0.5827 -1.6973
  147SAPE  C21116222   0.513   0.956   9.882 -0.0130  0.8179  0.0809
  147SAPE  H11R16223   0.422   0.994   9.930 -1.1791 -1.9426  0.2265
  147SAPE  C21216224   0.518   0.987   9.750 -0.4426 -0.2816 -0.0620
  147SAPE  H12R16225   0.433   1.033   9.699  1.4728 -0.9789 -4.3155
  147SAPE  C21316226   0.625   0.947   9.653 -0.4216 -0.1416  0.3022
  147SAPE  H13R16227   0.576   0.907   9.562 -0.0099 -2.4558  1.0348
  147SAPE  H13S16228   0.690   0.861   9.679  0.8644  0.6470 -0.1674
  147SAPE  C21416229   0.708   1.066   9.617  0.4473 -0.1977 -0.1348
  147SAPE  H14R16230   0.777   1.087   9.701 -0.1446  0.0209  0.3002
  147SAPE  C21516231   0.710   1.154   9.511  0.4146  0.2915 -0.4621
  147SAPE  H15R16232   0.789   1.229   9.496  0.6640  0.0827 -0.2035
  147SAPE  C21616233   0.624   1.119   9.388  0.1379 -0.3982 -0.3382
  147SAPE  H16R16234   0.579   1.215   9.356 -2.0418 -1.5437 -0.8761
  147SAPE  H16S16235   0.544   1.046   9.411 -0.6045 -0.3125 -2.4309
  147SAPE  C21716236   0.725   1.071   9.282  0.4876 -0.6482  0.2476
  147SAPE  H17R16237   0.744   0.964   9.303 -1.0329 -0.4807  2.8618
  147SAPE  H17S16238   0.819   1.130   9.288  2.8084 -3.9609 -0.7406
  147SAPE  C21816239   0.660   1.092   9.138  0.1800  0.3210  0.0961
  147SAPE  H18R16240   0.738   1.051   9.071 -0.3169 -0.7111  0.1265
  147SAPE  H18S16241   0.649   1.202   9.126  2.5595  0.5545 -0.3524
  147SAPE  C21916242   0.530   1.006   9.120 -0.0790 -0.6065 -0.2158
  147SAPE  H19R16243   0.460   1.033   9.202  0.4422  0.4541 -0.0924
  147SAPE  H19S16244   0.570   0.903   9.130 -0.0762 -0.6249 -0.4106
  147SAPE  C22016245   0.466   1.029   8.982  0.0409  0.1046 -0.5662
  147SAPE  H20R16246   0.534   0.997   8.900 -2.7387 -0.0922 -2.9648
  147SAPE  H20S16247   0.442   1.138   8.975  4.2726  1.1333 -2.4838
  147SAPE  H20T16248   0.375   0.969   8.963 -0.8995  0.9111  1.1191
  147SAPE   C3316249   0.855   1.252  10.253  0.4745 -0.1165 -0.9824
  147SAPE   H3X16250   0.782   1.331  10.226  1.2565  0.3705 -1.7261
  147SAPE   H3Y16251   0.808   1.151  10.246 -0.3060  0.1557  0.0182
  147SAPE   C3416252   0.966   1.278  10.146  0.0527  0.2642 -0.4196
  147SAPE   H4X16253   1.056   1.220  10.174  0.4802  0.7033 -0.8662
  147SAPE   H4Y16254   0.993   1.384  10.161  0.7289 -0.1666  1.7214
  147SAPE   C3516255   0.928   1.258   9.993  0.2502 -0.0046 -1.0070
  147SAPE   H5X16256   0.834   1.315   9.977  1.2152  1.6183 -1.0800
  147SAPE   H5Y16257   0.899   1.152   9.974  1.1654 -0.6282  0.8518
  147SAPE   C3616258   1.027   1.305   9.888 -1.4663  0.6068  1.1279
  147SAPE   H6X16259   1.130   1.276   9.920 -1.9911  1.0172  3.3756
  147SAPE   H6Y16260   1.032   1.415   9.878  0.9694  0.8728  3.9140
  147SAPE   C3716261   1.003   1.246   9.750 -0.0358 -0.2742 -0.0241
  147SAPE   H7X16262   0.915   1.294   9.702 -0.9001 -0.4511  1.3132
  147SAPE   H7Y16263   0.997   1.135   9.759  3.4956 -0.4899  1.1614
  147SAPE   C3816264   1.127   1.282   9.664 -0.1520 -0.5844  0.6636
  147SAPE   H8X16265   1.213   1.228   9.710 -0.1227  0.2046  1.5573
  147SAPE   H8Y16266   1.149   1.388   9.639  1.0970 -0.5281  1.8736
  147SAPE   C3916267   1.104   1.223   9.523 -0.1799 -0.1468  0.0325
  147SAPE   H9X16268   1.020   1.279   9.476 -1.6058 -2.4947 -0.3691
  147SAPE   H9Y16269   1.071   1.117   9.526 -0.3225 -0.0917  0.9174
  147SAPE  C31016270   1.226   1.225   9.434 -0.3688 -0.3133 -0.4481
  147SAPE  H10X16271   1.304   1.165   9.484  0.9372  1.0031 -0.8316
  147SAPE  H10Y16272   1.266   1.329   9.430  0.3561 -0.5965 -0.7038
  147SAPE  C31116273   1.205   1.181   9.293 -0.3068  0.3913 -0.5175
  147SAPE  H11X16274   1.195   1.071   9.283  3.8477 -0.0543 -1.4768
  147SAPE  H11Y16275   1.298   1.191   9.233 -1.4963 -0.3879 -2.6081
  147SAPE  C31216276   1.104   1.267   9.212  0.0514 -0.0571 -0.3176
  147SAPE  H12X16277   1.143   1.369   9.228  1.7819 -0.4483 -1.7006
  147SAPE  H12Y16278   1.001   1.270   9.253 -0.0951  1.6922 -0.7583
  147SAPE  C31316279   1.095   1.223   9.072  0.2540 -0.2792 -0.1995
  147SAPE  H13X16280   1.071   1.115   9.083  0.9642 -0.4701 -0.4113
  147SAPE  H13Y16281   1.193   1.227   9.020  0.2406 -2.4558 -0.4974
  147SAPE  C31416282   0.988   1.293   8.988  0.4279  0.1631  0.1905
  147SAPE  H14X16283   1.038   1.391   8.973 -1.0958  1.1517  1.2070
  147SAPE  H14Y16284   0.889   1.303   9.037 -0.0209  0.0301 -0.6704
  147SAPE  C31516285   0.958   1.208   8.858 -0.3798 -0.1407 -0.4517
  147SAPE  H15X16286   0.910   1.112   8.888 -1.4276  0.1223 -1.2752
  147SAPE  H15Y16287   1.053   1.199   8.801  0.8293 -1.0158  1.5579
  147SAPE  C31616288   0.850   1.264   8.765  0.2104  1.1169 -0.0773
  147SAPE  H16X16289   0.847   1.375   8.761 -1.1501  1.0941 -0.2409
  147SAPE  H16Y16290   0.744   1.237   8.785 -0.0582  1.2037 -1.2892
  147SAPE  C31716291   0.883   1.206   8.621  0.5845  0.0888 -0.6693
  147SAPE  H17X16292   0.894   1.097   8.639 -0.8285  0.4268  3.0606
  147SAPE  H17Y16293   0.974   1.255   8.580  1.0952  1.1388  1.5592
  147SAPE  C31816294   0.773   1.224   8.520 -0.3807 -0.3390  0.1428
  147SAPE  H18X16295   0.786   1.325   8.477  2.7317  0.1455  1.9062
  147SAPE  H18Y16296   0.669   1.216   8.559 -0.4989  0.5755  0.0226
  147SAPE  H18Z16297   0.779   1.150   8.437  2.3067 -1.0299  0.8679
  148SAPE     N16298   2.540   4.149  10.945 -0.5969  0.2753  0.0812
  148SAPE   HN116299   2.615   4.111  10.883  0.4590  2.6257 -0.2235
  148SAPE   HN216300   2.569   4.242  10.983  0.0997 -0.7848  2.2616
  148SAPE   HN316301   2.531   4.091  11.030  0.2619 -0.8211 -0.5514
  148SAPE   C1216302   2.418   4.165  10.866  0.1661 -0.5135  1.0053
  148SAPE  H12A16303   2.326   4.189  10.924  0.0104 -1.4492  1.1536
  148SAPE  H12B16304   2.392   4.064  10.826  2.0266 -0.4677 -0.4806
  148SAPE   C1116305   2.437   4.248  10.730  0.0636  0.1978  0.2161
  148SAPE  H11A16306   2.355   4.215  10.662  0.1438  1.4592 -0.5090
  148SAPE  H11B16307   2.531   4.206  10.687 -1.0828 -1.8819 -0.4151
  148SAPE     P16308   2.504   4.485  10.657  0.2548 -0.0756 -0.1416
  148SAPE   O1316309   2.423   4.610  10.652 -0.2087  0.0394 -0.0003
  148SAPE   O1416310   2.650   4.490  10.683  0.0526 -0.7235 -0.0022
  148SAPE   O1216311   2.433   4.391  10.758  0.0081  0.2040 -0.4243
  148SAPE   O1116312   2.485   4.411  10.521  0.2233 -0.2406 -0.0042
  148SAPE    C116313   2.482   4.484  10.398  0.1460 -0.4494 -0.0459
  148SAPE    HA16314   2.396   4.554  10.401 -0.7353 -1.5222  2.1474
  148SAPE    HB16315   2.567   4.556  10.388 -1.4021  1.5927  0.8291
  148SAPE    C216316   2.481   4.406  10.264  0.6921 -0.7141  0.3630
  148SAPE    HS16317   2.404   4.448  10.196 -1.9567 -2.1223  2.3155
  148SAPE   O2116318   2.447   4.267  10.285  0.2608 -0.5688 -1.2412
  148SAPE   C2116319   2.336   4.240  10.345 -0.1281  0.2174  0.4687
  148SAPE   O2216320   2.247   4.322  10.360  0.4633 -0.0066 -0.0193
  148SAPE   C2216321   2.333   4.094  10.381 -0.8536 -0.3540 -0.4018
  148SAPE   H2R16322   2.351   4.035  10.288 -0.2260 -2.3239  0.9080
  148SAPE   H2S16323   2.412   4.082  10.459 -0.2303  2.6241 -0.4554
  148SAPE    C316324   2.621   4.416  10.200  0.0589 -0.0776  0.6542
  148SAPE    HX16325   2.692   4.377  10.276  3.4939  0.8535 -1.8584
  148SAPE    HY16326   2.644   4.525  10.198 -1.4713  0.2653  0.5893
  148SAPE   O3116327   2.634   4.340  10.077 -0.1835  0.2391  0.0209
  148SAPE   C3116328   2.607   4.407   9.967  0.2684 -0.7683 -0.2403
  148SAPE   O3216329   2.567   4.524   9.969 -0.3885 -0.3970 -0.1973
  148SAPE   C3216330   2.644   4.322   9.847  0.6945 -0.1070  0.8437
  148SAPE   H2X16331   2.598   4.225   9.875  0.6246 -0.4092 -0.2924
  148SAPE   H2Y16332   2.753   4.302   9.847  0.6958 -0.1444 -0.2331
  148SAPE   C2316333   2.203   4.051  10.436  0.1012  0.3232  0.0903
  148SAPE   H3R16334   2.164   4.121  10.512  0.6377  1.7480 -0.9111
  148SAPE   H3S16335   2.211   3.956  10.492 -0.4815  1.3362  1.9616
  148SAPE   C2416336   2.085   4.044  10.342 -0.2591 -0.3516  0.2064
  148SAPE   H4R16337   2.057   4.141  10.296  0.1023  0.2339  1.1884
  148SAPE   H4S16338   1.993   4.018  10.398 -1.6531  1.1046 -1.3152
  148SAPE   C2516339   2.108   3.941  10.235 -0.2347  0.0539 -0.1993
  148SAPE   H5R16340   2.116   3.835  10.263  0.7114 -0.3788 -2.0078
  148SAPE   C2616341   2.131   3.964  10.102 -0.6293 -0.5094  0.1529
  148SAPE   H6R16342   2.134   3.870  10.045 -1.5427  0.1408 -0.9970
  148SAPE   C2716343   2.122   4.099  10.030 -0.0733  0.8356  0.0538
  148SAPE   H7R16344   2.109   4.180  10.104  0.1774 -0.8702  2.0639
  148SAPE   H7S16345   2.020   4.091   9.987 -0.0548 -2.4905  0.4060
  148SAPE   C2816346   2.232   4.125   9.935 -0.3662  0.5863  0.3238
  148SAPE   H8R16347   2.333   4.137   9.978  0.1861 -1.8432 -0.1736
  148SAPE   C2916348   2.215   4.160   9.803 -0.1739 -0.0224 -0.1326
  148SAPE   H9R16349   2.300   4.184   9.738  0.3379 -0.0727  0.5112
  148SAPE  C21016350   2.087   4.155   9.721  0.1506 -0.3615  0.0233
  148SAPE  H10R16351   2.096   4.211   9.625  0.0963 -0.5045 -0.0656
  148SAPE  H10S16352   2.009   4.197   9.787  0.6692 -0.6966  0.8717
  148SAPE  C21116353   2.043   4.012   9.699  0.4953  0.2683  0.1043
  148SAPE  H11R16354   1.987   3.966   9.782  0.1476 -1.9559 -1.2743
  148SAPE  C21216355   2.068   3.937   9.588  0.0053 -0.3180  0.1961
  148SAPE  H12R16356   2.027   3.835   9.577  1.8320 -1.2816  1.7280
  148SAPE  C21316357   2.165   3.985   9.475 -0.2328 -0.4055 -0.2162
  148SAPE  H13R16358   2.264   3.995   9.524  1.0409  0.1114 -2.7398
  148SAPE  H13S16359   2.141   4.088   9.440 -0.0380 -0.5255 -0.7125
  148SAPE  C21416360   2.177   3.893   9.355 -0.0825 -0.1807 -0.6489
  148SAPE  H14R16361   2.232   3.803   9.385 -1.5166  0.1103  3.5618
  148SAPE  C21516362   2.121   3.907   9.239 -0.1511 -0.3063  0.5253
  148SAPE  H15R16363   2.139   3.827   9.165  0.0802 -0.4715  0.7558
  148SAPE  C21616364   2.032   4.020   9.198 -0.3190 -0.4544 -0.2661
  148SAPE  H16R16365   2.098   4.092   9.146 -0.9979 -0.0578 -0.5889
  148SAPE  H16S16366   1.973   4.071   9.277  0.0539  1.9020 -1.4461
  148SAPE  C21716367   1.927   3.987   9.096 -0.2251 -0.2774 -0.6789
  148SAPE  H17R16368   1.849   3.921   9.140 -0.2767 -0.3930 -0.9429
  148SAPE  H17S16369   1.960   3.934   9.004  1.0509  1.1608 -1.0789
  148SAPE  C21816370   1.850   4.117   9.041 -0.0107 -0.0646  0.0644
  148SAPE  H18R16371   1.929   4.173   8.985  0.4441  0.8933  1.6226
  148SAPE  H18S16372   1.800   4.181   9.116 -0.2910 -0.0797 -0.1066
  148SAPE  C21916373   1.730   4.070   8.958  1.1032 -0.2517 -0.1462
  148SAPE  H19R16374   1.654   4.022   9.023  0.2927  0.5626 -0.4806
  148SAPE  H19S16375   1.773   3.987   8.897 -2.4588 -2.1301 -0.3866
  148SAPE  C22016376   1.680   4.181   8.865 -0.3404  0.4160  0.6664
  148SAPE  H20R16377   1.609   4.148   8.786  0.8268 -3.2508  0.9681
  148SAPE  H20S16378   1.769   4.239   8.832 -0.7013  1.5271  1.5745
  148SAPE  H20T16379   1.627   4.260   8.923 -0.3256  2.5856 -2.0461
  148SAPE   C3316380   2.601   4.371   9.710 -0.4139  0.0646  0.2239
  148SAPE   H3X16381   2.647   4.470   9.690  3.0955 -1.9979 -3.4498
  148SAPE   H3Y16382   2.491   4.376   9.695 -0.3629  0.3321 -0.0683
  148SAPE   C3416383   2.656   4.270   9.612  0.4007  0.5147  0.1945
  148SAPE   H4X16384   2.625   4.167   9.636 -2.8112  0.5058 -3.0641
  148SAPE   H4Y16385   2.767   4.264   9.615  0.4379  0.9229 -0.1767
  148SAPE   C3516386   2.612   4.283   9.464 -0.3188 -0.0768 -0.6630
  148SAPE   H5X16387   2.648   4.192   9.412  1.0709 -0.2099  0.4672
  148SAPE   H5Y16388   2.648   4.380   9.422 -3.4703  0.9511 -1.2503
  148SAPE   C3616389   2.457   4.267   9.449 -0.7290 -0.0091 -0.2594
  148SAPE   H6X16390   2.408   4.343   9.513  2.4228  0.5366  1.7285
  148SAPE   H6Y16391   2.439   4.164   9.488  1.0547 -0.3254 -0.1668
  148SAPE   C3716392   2.408   4.274   9.304  0.3869  1.0377 -0.2612
  148SAPE   H7X16393   2.297   4.267   9.305  0.4382 -1.2213 -1.7962
  148SAPE   H7Y16394   2.461   4.189   9.254 -0.8784  0.2498 -0.2993
  148SAPE   C3816395   2.459   4.407   9.236  0.2244 -0.3114 -0.0581
  148SAPE   H8X16396   2.570   4.400   9.230  0.1782 -0.0724 -1.5644
  148SAPE   H8Y16397   2.441   4.492   9.306 -1.7901  0.5996 -1.5752
  148SAPE   C3916398   2.390   4.448   9.106 -0.4032  0.4261 -0.2465
  148SAPE   H9X16399   2.450   4.536   9.074 -0.7225  0.0326 -1.9911
  148SAPE   H9Y16400   2.285   4.476   9.130 -0.2253 -1.2041  3.0407
  148SAPE  C31016401   2.393   4.332   8.995  0.0726  0.0491 -0.2648
  148SAPE  H10X16402   2.311   4.259   9.007  0.2382 -0.4634 -2.0556
  148SAPE  H10Y16403   2.492   4.282   8.987 -0.9699 -2.2146  0.2874
  148SAPE  C31116404   2.361   4.396   8.861  0.5263 -0.6093  0.5949
  148SAPE  H11X16405   2.346   4.326   8.775 -2.3632  0.3604  0.2139
  148SAPE  H11Y16406   2.454   4.449   8.833  0.6635 -0.7471  0.7850
  148SAPE  C31216407   2.222   4.469   8.845  0.3103 -0.0724 -0.0226
  148SAPE  H12X16408   2.215   4.557   8.914 -0.4465 -1.7497  2.1525
  148SAPE  H12Y16409   2.136   4.401   8.864 -1.0172  1.1649 -1.3357
  148SAPE  C31316410   2.215   4.526   8.702 -0.8593 -0.0303 -0.9657
  148SAPE  H13X16411   2.318   4.558   8.674 -0.5718 -1.1645 -1.2598
  148SAPE  H13Y16412   2.152   4.618   8.703 -2.9695 -1.3359  2.1866
  148SAPE  C31416413   2.152   4.424   8.600  0.1679  0.8910 -0.0849
  148SAPE  H14X16414   2.056   4.381   8.634 -1.0092  1.8368 -2.0281
  148SAPE  H14Y16415   2.224   4.340   8.611 -0.1791  0.7687  1.3635
  148SAPE  C31516416   2.120   4.482   8.465  0.3353  1.0596 -0.0988
  148SAPE  H15X16417   2.197   4.558   8.437  1.4103 -0.0332 -0.1959
  148SAPE  H15Y16418   2.020   4.531   8.471  0.4882  1.5416 -1.2240
  148SAPE  C31616419   2.110   4.366   8.364  1.0097  0.3613  0.1359
  148SAPE  H16X16420   2.023   4.300   8.384  0.0957  0.6202 -2.4857
  148SAPE  H16Y16421   2.196   4.295   8.359  0.5032 -0.3320  1.1021
  148SAPE  C31716422   2.078   4.424   8.220 -0.6987 -0.7291  0.1318
  148SAPE  H17X16423   2.100   4.353   8.137  0.5196 -1.7592  1.2938
  148SAPE  H17Y16424   2.144   4.510   8.200 -2.0479  0.4008  0.3735
  148SAPE  C31816425   1.940   4.483   8.195 -0.3880  0.9182  0.1065
  148SAPE  H18X16426   1.856   4.417   8.224 -0.9069  1.6030  0.1931
  148SAPE  H18Y16427   1.927   4.511   8.088 -2.1930  1.7602  0.5115
  148SAPE  H18Z16428   1.927   4.573   8.259  2.8963  0.4951  1.6268
  149SAPE     N16429   1.729   6.604  10.939 -0.4189  0.0679 -0.4401
  149SAPE   HN116430   1.753   6.558  10.849  0.4547 -0.2564 -0.0581
  149SAPE   HN216431   1.670   6.539  10.995  0.1632 -0.7533 -0.7542
  149SAPE   HN316432   1.686   6.695  10.914  1.8826  1.6627  0.9852
  149SAPE   C1216433   1.854   6.642  11.003 -0.1200  0.5837  0.1308
  149SAPE  H12A16434   1.823   6.694  11.096  0.4835 -0.3934  0.9010
  149SAPE  H12B16435   1.906   6.721  10.944  4.2864 -1.1896  1.1887
  149SAPE   C1116436   1.939   6.522  11.034 -0.3607  0.2309  0.2274
  149SAPE  H11A16437   1.962   6.468  10.940 -0.4493  0.1759  0.2365
  149SAPE  H11B16438   1.897   6.446  11.103  1.3085 -2.8237 -1.9259
  149SAPE     P16439   2.170   6.469  11.151  0.1450  0.2672  0.2293
  149SAPE   O1316440   2.135   6.434  11.289 -0.1160 -0.2270 -0.4348
  149SAPE   O1416441   2.181   6.349  11.061  0.2055 -0.3223 -0.3027
  149SAPE   O1216442   2.064   6.575  11.090 -1.1692  0.1946  0.7087
  149SAPE   O1116443   2.310   6.530  11.164  0.3187  0.6366  0.1716
  149SAPE    C116444   2.342   6.662  11.139  0.5201  0.2149  0.6232
  149SAPE    HA16445   2.259   6.735  11.142 -0.1096 -0.3011 -1.7722
  149SAPE    HB16446   2.411   6.693  11.221  1.0796  0.4057  0.0905
  149SAPE    C216447   2.421   6.678  11.001 -0.0628  0.0787 -0.7429
  149SAPE    HS16448   2.485   6.768  11.013  0.7053 -0.7379  1.9270
  149SAPE   O2116449   2.329   6.685  10.893  0.7584  0.2833 -0.6792
  149SAPE   C2116450   2.273   6.814  10.887  0.3991 -0.3722  0.4048
  149SAPE   O2216451   2.316   6.908  10.950  0.4902 -0.6671 -0.5605
  149SAPE   C2216452   2.165   6.826  10.783  0.6304  0.1513 -0.5031
  149SAPE   H2R16453   2.159   6.741  10.711 -2.1418  0.1638 -0.4037
  149SAPE   H2S16454   2.065   6.814  10.831  1.6978  2.8714  2.7230
  149SAPE    C316455   2.529   6.566  10.980  0.3873 -0.2599  0.6612
  149SAPE    HX16456   2.486   6.463  10.983 -0.8167  0.2325  1.0784
  149SAPE    HY16457   2.597   6.574  11.067 -0.2425  1.0927  1.0496
  149SAPE   O3116458   2.601   6.597  10.855  0.5183 -0.1620 -0.7049
  149SAPE   C3116459   2.565   6.556  10.739  0.1295 -0.1945 -0.2959
  149SAPE   O3216460   2.483   6.465  10.724  0.2591  0.1531 -0.0799
  149SAPE   C3216461   2.655   6.606  10.630 -0.5613  1.0183  0.0301
  149SAPE   H2X16462   2.758   6.567  10.639 -0.5157  1.0455 -0.3429
  149SAPE   H2Y16463   2.661   6.717  10.631  1.9466  0.9406  0.3293
  149SAPE   C2316464   2.166   6.963  10.717  0.1328 -0.3470 -0.2533
  149SAPE   H3R16465   2.156   7.040  10.796  0.2875 -1.5129  0.9215
  149SAPE   H3S16466   2.069   6.976  10.664 -0.3447 -1.6993  0.2328
  149SAPE   C2416467   2.290   6.996  10.642  0.6276 -0.1375  0.1665
  149SAPE   H4R16468   2.383   7.022  10.696  0.8707  0.5239 -0.5551
  149SAPE   H4S16469   2.264   7.087  10.584  0.1395 -0.6306 -0.4106
  149SAPE   C2516470   2.324   6.882  10.542  0.0463 -0.2205 -0.4816
  149SAPE   H5R16471   2.283   6.783  10.566 -3.3885  0.2305 -3.6355
  149SAPE   C2616472   2.393   6.907  10.427  0.0667 -0.2294 -0.1954
  149SAPE   H6R16473   2.435   6.821  10.372  0.0450 -0.2330 -0.2060
  149SAPE   C2716474   2.433   7.039  10.370  0.1134 -0.7067  0.0033
  149SAPE   H7R16475   2.495   7.087  10.448 -0.4991  0.4807 -0.2306
  149SAPE   H7S16476   2.340   7.098  10.367  0.3423 -0.2193  1.6409
  149SAPE   C2816477   2.505   7.014  10.239  0.1054 -0.7538 -0.1004
  149SAPE   H8R16478   2.441   6.991  10.153  0.7547 -0.1493 -0.7553
  149SAPE   C2916479   2.636   7.001  10.225 -0.3718 -0.1103  0.2782
  149SAPE   H9R16480   2.677   6.995  10.123 -2.4269 -1.3940 -0.5373
  149SAPE  C21016481   2.738   7.025  10.340  0.0779  0.0117  0.8426
  149SAPE  H10R16482   2.712   6.948  10.416  0.1272  0.1083  0.9585
  149SAPE  H10S16483   2.722   7.122  10.391 -0.2710  2.0382 -2.8053
  149SAPE  C21116484   2.884   7.027  10.301  0.6961 -0.0804  0.5622
  149SAPE  H11R16485   2.907   7.026  10.194 -0.2773  0.8923  0.3257
  149SAPE  C21216486   2.976   7.068  10.390 -1.3080 -0.0230  0.4423
  149SAPE  H12R16487   3.080   7.084  10.357 -1.7086 -1.6254 -1.7496
  149SAPE  C21316488   2.970   7.086  10.539  1.3675  0.5231  0.6058
  149SAPE  H13R16489   2.906   7.175  10.559  1.0912  0.1034  1.6808
  149SAPE  H13S16490   3.065   7.117  10.586  2.3136 -1.2997 -0.0216
  149SAPE  C21416491   2.918   6.964  10.609  0.8739  0.1846 -0.5249
  149SAPE  H14R16492   2.809   6.961  10.625  0.5789  0.3368 -2.2864
  149SAPE  C21516493   2.997   6.872  10.666  0.8067  0.0346  0.3472
  149SAPE  H15R16494   2.953   6.782  10.711  0.2042  0.1147 -0.0751
  149SAPE  C21616495   3.148   6.878  10.664  0.2521 -0.8264 -0.2412
  149SAPE  H16R16496   3.188   6.904  10.765  1.0332  1.4793 -1.0662
  149SAPE  H16S16497   3.186   6.950  10.588 -1.0527 -2.1432 -2.2529
  149SAPE  C21716498   3.212   6.737  10.625  0.4362  0.3593 -0.1731
  149SAPE  H17R16499   3.159   6.699  10.535 -0.3429 -0.4115  0.5843
  149SAPE  H17S16500   3.195   6.661  10.705 -1.6411  0.6955 -0.2340
  149SAPE  C21816501   3.362   6.743  10.603 -0.1416  0.0220 -0.0922
  149SAPE  H18R16502   3.366   6.814  10.518 -1.6860 -0.4416 -0.5945
  149SAPE  H18S16503   3.398   6.641  10.579  0.0063 -0.1440  0.7848
  149SAPE  C21916504   3.445   6.781  10.728 -0.0895  0.2797 -0.6447
  149SAPE  H19R16505   3.391   6.760  10.823  0.8426 -0.8280 -0.3335
  149SAPE  H19S16506   3.468   6.890  10.727  2.6455 -0.1826  1.1525
  149SAPE  C22016507   3.579   6.709  10.736 -0.2406  0.1293 -0.6469
  149SAPE  H20R16508   3.643   6.753  10.656  0.7745 -0.0667  0.0360
  149SAPE  H20S16509   3.568   6.602  10.710 -1.4257 -0.4604  1.9672
  149SAPE  H20T16510   3.631   6.716  10.834 -0.3850 -3.2111 -0.2355
  149SAPE   C3316511   2.597   6.571  10.491  0.2519  0.7370 -0.2920
  149SAPE   H3X16512   2.490   6.593  10.472  0.3302 -0.0078 -1.7254
  149SAPE   H3Y16513   2.603   6.461  10.477  1.2930  0.8654 -0.9678
  149SAPE   C3416514   2.688   6.627  10.379 -0.2143  0.2895 -0.4665
  149SAPE   H4X16515   2.790   6.596  10.410 -0.8622 -0.4404  1.0437
  149SAPE   H4Y16516   2.683   6.738  10.386 -1.1200  0.2138  0.3602
  149SAPE   C3516517   2.649   6.577  10.237  0.0813  0.8979 -0.0855
  149SAPE   H5X16518   2.550   6.625  10.218 -0.9071 -0.6941  0.8044
  149SAPE   H5Y16519   2.629   6.469  10.224 -1.0276  1.3181 -2.4988
  149SAPE   C3616520   2.739   6.635  10.129 -0.1712  0.5485  0.2709
  149SAPE   H6X16521   2.845   6.612  10.154 -0.7117 -1.5651  0.8443
  149SAPE   H6Y16522   2.732   6.745  10.134  0.5087  0.5621  1.0734
  149SAPE   C3716523   2.704   6.590   9.986  0.7316 -0.5851  0.4561
  149SAPE   H7X16524   2.775   6.637   9.915  2.5523 -4.7737 -0.8477
  149SAPE   H7Y16525   2.599   6.616   9.958  1.4934  1.6091 -0.5158
  149SAPE   C3816526   2.726   6.441   9.948 -0.7219 -0.8784 -0.7530
  149SAPE   H8X16527   2.668   6.380  10.020 -2.1643 -0.8639 -1.8546
  149SAPE   H8Y16528   2.833   6.415   9.964 -0.3403  0.8029 -0.4583
  149SAPE   C3916529   2.668   6.407   9.810 -0.3085  0.5543 -0.4000
  149SAPE   H9X16530   2.563   6.441   9.797  0.1719  1.0083 -4.1728
  149SAPE   H9Y16531   2.668   6.297   9.823 -0.8134  0.8557  3.3806
  149SAPE  C31016532   2.751   6.456   9.694  0.0595  0.2535 -0.0325
  149SAPE  H10X16533   2.851   6.409   9.694 -0.6224 -1.3742 -2.4044
  149SAPE  H10Y16534   2.763   6.566   9.708  1.3143  0.0379  0.7378
  149SAPE  C31116535   2.692   6.433   9.548 -0.0391  0.4526 -0.1510
  149SAPE  H11X16536   2.677   6.324   9.533 -1.4744  0.6454 -0.3367
  149SAPE  H11Y16537   2.763   6.473   9.473  0.8669  1.0751  1.0010
  149SAPE  C31216538   2.567   6.510   9.524 -0.1772  0.0644 -0.0252
  149SAPE  H12X16539   2.481   6.492   9.591 -0.1256  1.1795  0.3664
  149SAPE  H12Y16540   2.534   6.482   9.421  0.1143  0.0956 -0.1275
  149SAPE  C31316541   2.584   6.665   9.521 -0.1895 -0.2990 -0.0888
  149SAPE  H13X16542   2.683   6.681   9.473 -0.0195 -3.2205 -0.9413
  149SAPE  H13Y16543   2.593   6.706   9.623 -1.1928 -2.6421  1.0170
  149SAPE  C31416544   2.472   6.751   9.450 -0.2337 -0.9089  0.3163
  149SAPE  H14X16545   2.518   6.852   9.445  2.1732 -1.8621  1.4048
  149SAPE  H14Y16546   2.374   6.754   9.502 -0.3668  1.5754  0.0039
  149SAPE  C31516547   2.437   6.713   9.304 -0.0486  0.7700  0.6923
  149SAPE  H15X16548   2.351   6.644   9.310  0.5253 -0.0586 -0.2740
  149SAPE  H15Y16549   2.530   6.667   9.262 -1.4078 -0.9688 -0.5419
  149SAPE  C31616550   2.398   6.835   9.216  0.4551  0.4235 -0.7549
  149SAPE  H16X16551   2.453   6.925   9.251 -2.1962  1.7969  0.1374
  149SAPE  H16Y16552   2.293   6.864   9.238  0.4231 -0.3476  0.1657
  149SAPE  C31716553   2.419   6.814   9.062 -0.1601 -0.3797  0.2893
  149SAPE  H17X16554   2.362   6.897   9.015  0.5854  0.3435  0.6536
  149SAPE  H17Y16555   2.377   6.714   9.037  0.4331 -0.4319 -0.5518
  149SAPE  C31816556   2.563   6.813   9.004  0.8410 -0.2897 -0.8323
  149SAPE  H18X16557   2.574   6.808   8.894  1.7023  2.8089 -0.9944
  149SAPE  H18Y16558   2.608   6.716   9.035 -1.3951 -0.8155  1.0113
  149SAPE  H18Z16559   2.618   6.905   9.033 -0.4795  0.8060 -1.6726
  150SAPE     N16560   0.224   5.722  10.856 -0.1849 -0.1826 -0.1516
  150SAPE   HN116561   0.278   5.634  10.865  0.7064  0.1615 -1.8887
  150SAPE   HN216562   0.291   5.801  10.865 -1.3025  0.7109  0.5616
  150SAPE   HN316563   0.170   5.733  10.944  2.1060  1.6132  1.1506
  150SAPE   C1216564   0.137   5.736  10.739 -0.6711 -0.8756 -0.1325
  150SAPE  H12A16565   0.201   5.760  10.651 -0.8425  0.5855  0.1057
  150SAPE  H12B16566   0.067   5.822  10.745  1.0515  0.5518  0.4195
  150SAPE   C1116567   0.062   5.602  10.736 -0.2282  0.4955  0.7839
  150SAPE  H11A16568   0.143   5.527  10.749  0.2764  1.1287  1.4056
  150SAPE  H11B16569   0.010   5.590  10.639 -0.5333  1.7619  0.7717
  150SAPE     P16570  -0.072   5.473  10.911 -0.1868 -0.0865 -0.2472
  150SAPE   O1316571   0.053   5.418  10.970 -0.2312 -0.3047 -0.4799
  150SAPE   O1416572  -0.184   5.493  11.008 -0.1916 -0.7905 -0.5831
  150SAPE   O1216573  -0.034   5.606  10.835  0.2446 -0.5127 -0.4244
  150SAPE   O1116574  -0.111   5.374  10.793  0.4385 -0.0493  0.1049
  150SAPE    C116575  -0.025   5.280  10.736  0.0424  0.6320  0.0665
  150SAPE    HA16576   0.075   5.289  10.784  0.4643  0.1267 -0.7034
  150SAPE    HB16577  -0.062   5.180  10.765  1.7921 -0.0768 -0.0238
  150SAPE    C216578  -0.009   5.297  10.579 -0.1994 -0.0303 -0.1158
  150SAPE    HS16579   0.032   5.397  10.556  0.2390 -0.3702 -0.8631
  150SAPE   O2116580  -0.134   5.273  10.517  0.1998 -0.1142  0.1297
  150SAPE   C2116581  -0.209   5.380  10.498 -0.1282  0.4274 -0.0189
  150SAPE   O2216582  -0.184   5.496  10.514 -0.3945 -0.0889 -0.5633
  150SAPE   C2216583  -0.322   5.324  10.412  0.1391  0.3303 -0.0747
  150SAPE   H2R16584  -0.288   5.231  10.362  2.3726  1.0233  0.0493
  150SAPE   H2S16585  -0.408   5.305  10.479  0.1986  1.0276  0.2081
  150SAPE    C316586   0.108   5.196  10.524  0.0999  0.3305 -0.8230
  150SAPE    HX16587   0.063   5.094  10.525 -0.1600  0.3871 -2.5146
  150SAPE    HY16588   0.195   5.198  10.593  1.9236  0.9308 -2.9995
  150SAPE   O3116589   0.153   5.236  10.398  0.3163 -0.2710  0.3414
  150SAPE   C3116590   0.180   5.145  10.315  0.2430  0.1117  0.1008
  150SAPE   O3216591   0.171   5.025  10.336 -0.0689 -0.2220  0.3515
  150SAPE   C3216592   0.234   5.201  10.179 -0.2271 -0.5581 -0.6272
  150SAPE   H2X16593   0.325   5.260  10.203 -0.6325  0.3422 -1.2313
  150SAPE   H2Y16594   0.153   5.274  10.157 -0.0127  0.1749  0.8729
  150SAPE   C2316595  -0.361   5.423  10.306  0.3619  0.0972 -1.0576
  150SAPE   H3R16596  -0.394   5.524  10.340  0.3694  0.3078 -1.6647
  150SAPE   H3S16597  -0.455   5.389  10.259 -1.4870  0.0273  2.4119
  150SAPE   C2416598  -0.260   5.439  10.193  0.1894 -0.0889  0.3166
  150SAPE   H4R16599  -0.171   5.476  10.249 -1.5169 -1.3640  4.2592
  150SAPE   H4S16600  -0.297   5.527  10.136 -2.1291 -0.7288  0.7199
  150SAPE   C2516601  -0.221   5.320  10.102  0.3592 -0.2166 -0.1829
  150SAPE   H5R16602  -0.138   5.263  10.146  0.2012 -0.0820  0.2956
  150SAPE   C2616603  -0.254   5.310   9.971 -0.1196  0.9201  0.6482
  150SAPE   H6R16604  -0.240   5.219   9.911  0.1487  1.0508  0.5115
  150SAPE   C2716605  -0.359   5.400   9.900 -0.7310  0.3007  0.0177
  150SAPE   H7R16606  -0.379   5.500   9.943 -0.9072 -0.0519  0.7806
  150SAPE   H7S16607  -0.451   5.337   9.904 -0.3463 -0.2245  1.7797
  150SAPE   C2816608  -0.319   5.420   9.753  0.4748 -0.2668 -0.3843
  150SAPE   H8R16609  -0.211   5.435   9.740  0.1131  1.4717 -1.7867
  150SAPE   C2916610  -0.396   5.385   9.647 -0.5866  0.3425 -0.1413
  150SAPE   H9R16611  -0.362   5.409   9.545 -1.9582  0.2502 -0.6455
  150SAPE  C21016612  -0.545   5.335   9.653 -0.4744  0.1845 -0.3393
  150SAPE  H10R16613  -0.547   5.256   9.731 -0.0562 -1.1534 -1.6230
  150SAPE  H10S16614  -0.556   5.272   9.562 -0.0686 -0.6937  0.2078
  150SAPE  C21116615  -0.643   5.450   9.674  0.5571  0.3927  0.1360
  150SAPE  H11R16616  -0.681   5.461   9.776  0.2299 -3.2108  0.5342
  150SAPE  C21216617  -0.677   5.530   9.573  0.4669  0.1958 -0.0965
  150SAPE  H12R16618  -0.737   5.619   9.595 -0.4071 -0.4379  0.1266
  150SAPE  C21316619  -0.628   5.530   9.427 -0.0674  0.7561 -0.0897
  150SAPE  H13R16620  -0.721   5.534   9.367 -1.5193 -1.3392  1.8636
  150SAPE  H13S16621  -0.572   5.437   9.407  1.5888  1.7014 -0.0310
  150SAPE  C21416622  -0.555   5.662   9.400 -0.3618 -0.1726  0.0038
  150SAPE  H14R16623  -0.609   5.750   9.439 -1.5180  0.0182 -1.9065
  150SAPE  C21516624  -0.442   5.683   9.325  0.1500  0.6876  0.1949
  150SAPE  H15R16625  -0.397   5.782   9.311  0.9465  0.4778  1.1194
  150SAPE  C21616626  -0.363   5.577   9.243 -0.3048 -0.2920 -0.0576
  150SAPE  H16R16627  -0.369   5.476   9.289  4.7419 -0.6544  0.3295
  150SAPE  H16S16628  -0.254   5.596   9.244  0.1723 -2.1551 -3.1282
  150SAPE  C21716629  -0.405   5.552   9.098 -0.2760  0.2456  0.3854
  150SAPE  H17R16630  -0.339   5.483   9.040 -1.0840 -3.0803  3.0965
  150SAPE  H17S16631  -0.393   5.650   9.047  2.2126 -1.2006 -2.1270
  150SAPE  C21816632  -0.544   5.494   9.059  0.0016 -0.3749  0.0204
  150SAPE  H18R16633  -0.627   5.534   9.121 -0.0718  0.6208 -0.7014
  150SAPE  H18S16634  -0.540   5.385   9.079 -0.3221 -0.6551 -1.3650
  150SAPE  C21916635  -0.569   5.505   8.906  0.0621  0.3273 -1.0281
  150SAPE  H19R16636  -0.646   5.427   8.890  0.4236 -0.3472  0.3714
  150SAPE  H19S16637  -0.480   5.467   8.852  0.3108 -1.2141  0.4006
  150SAPE  C22016638  -0.610   5.649   8.859  0.6826  0.8368 -0.1438
  150SAPE  H20R16639  -0.704   5.676   8.911 -1.2684 -2.1429 -1.8240
  150SAPE  H20S16640  -0.622   5.649   8.748  0.8927 -0.0352 -0.1753
  150SAPE  H20T16641  -0.529   5.720   8.886  0.8673  0.8698 -0.7555
  150SAPE   C3316642   0.259   5.095  10.072 -0.1001  0.9561 -0.3546
  150SAPE   H3X16643   0.176   5.021  10.067 -0.9140  1.9159 -1.5104
  150SAPE   H3Y16644   0.354   5.043  10.097 -0.6005  0.6527  1.0101
  150SAPE   C3416645   0.259   5.141   9.930 -0.0663 -0.9047  0.0209
  150SAPE   H4X16646   0.317   5.235   9.921 -0.7108 -0.2536  2.0570
  150SAPE   H4Y16647   0.160   5.176   9.894 -0.7205 -1.2551  1.4166
  150SAPE   C3516648   0.322   5.047   9.827  0.7550 -0.3010 -0.4384
  150SAPE   H5X16649   0.249   4.963   9.815 -2.4440  2.3447 -0.9071
  150SAPE   H5Y16650   0.424   5.020   9.862  0.0633 -1.1947  0.9485
  150SAPE   C3616651   0.347   5.118   9.688 -0.2773  0.6083 -0.2277
  150SAPE   H6X16652   0.411   5.208   9.703  2.5854 -1.2626 -0.4767
  150SAPE   H6Y16653   0.251   5.134   9.636 -0.6094 -1.3645 -0.3092
  150SAPE   C3716654   0.423   5.031   9.586 -0.3119 -0.3527 -0.9121
  150SAPE   H7X16655   0.368   4.935   9.596  0.5329 -0.6229  2.0420
  150SAPE   H7Y16656   0.527   5.023   9.625 -0.0414  1.9273 -1.0273
  150SAPE   C3816657   0.422   5.089   9.447 -0.5335 -0.0120  0.7336
  150SAPE   H8X16658   0.492   5.172   9.422 -1.3679  1.1101  2.0025
  150SAPE   H8Y16659   0.316   5.118   9.430 -0.4233 -0.2662 -0.5313
  150SAPE   C3916660   0.462   4.992   9.331 -0.6540  0.0203  0.4311
  150SAPE   H9X16661   0.399   4.900   9.331  2.4213 -2.2662  0.2459
  150SAPE   H9Y16662   0.553   4.929   9.340 -2.5875 -2.6074  4.6375
  150SAPE  C31016663   0.438   5.053   9.188 -0.7279  0.1343  0.2312
  150SAPE  H10X16664   0.534   5.068   9.133 -0.2815  1.6919  1.3798
  150SAPE  H10Y16665   0.399   5.156   9.177 -0.5674  0.2112  0.3678
  150SAPE  C31116666   0.357   4.966   9.091  0.4818  0.2486 -0.2928
  150SAPE  H11X16667   0.256   4.959   9.137  0.6329  2.4341  0.5039
  150SAPE  H11Y16668   0.393   4.864   9.067  2.2219  0.6651  0.4418
  150SAPE  C31216669   0.342   5.039   8.962 -0.1029  0.2447 -0.0376
  150SAPE  H12X16670   0.442   5.046   8.914  0.7099  2.3608  1.7785
  150SAPE  H12Y16671   0.311   5.143   8.987  1.4277  0.5866  0.5772
  150SAPE  C31316672   0.236   4.965   8.870  0.0912 -0.6570  0.5300
  150SAPE  H13X16673   0.141   4.937   8.921 -0.7321  2.0759  0.6715
  150SAPE  H13Y16674   0.280   4.870   8.833 -1.2700 -1.1100 -0.0055
  150SAPE  C31416675   0.211   5.061   8.750  0.3403 -0.2071  0.0695
  150SAPE  H14X16676   0.303   5.106   8.705  0.4942 -1.1840 -0.6216
  150SAPE  H14Y16677   0.150   5.145   8.789 -1.5066 -0.7350 -1.5394
  150SAPE  C31516678   0.135   4.998   8.634 -0.2829 -0.2364  0.1638
  150SAPE  H15X16679   0.187   4.908   8.596 -0.5407  0.0780 -0.9913
  150SAPE  H15Y16680   0.142   5.060   8.542  1.4819  0.2957  0.6195
  150SAPE  C31616681  -0.006   4.966   8.663 -0.0767 -0.4703  0.5241
  150SAPE  H16X16682  -0.060   5.061   8.644  1.0408 -0.3727 -2.9659
  150SAPE  H16Y16683  -0.016   4.934   8.769 -0.6839  0.5526  0.7922
  150SAPE  C31716684  -0.066   4.847   8.569  0.5089 -0.3634  0.4329
  150SAPE  H17X16685  -0.176   4.839   8.584  0.2792  0.2743 -0.7820
  150SAPE  H17Y16686  -0.030   4.750   8.608 -3.0662 -1.1066  2.3721
  150SAPE  C31816687  -0.031   4.866   8.422  0.8878 -0.0947 -0.2794
  150SAPE  H18X16688  -0.092   4.951   8.388 -1.2935 -1.1083  0.9234
  150SAPE  H18Y16689  -0.058   4.780   8.356  0.8626 -1.8890  1.9528
  150SAPE  H18Z16690   0.076   4.896   8.411  0.1501  1.9399 -2.8055
  151SAPE     N16691   3.091   2.167  11.129  0.4551  0.2100 -0.2499
  151SAPE   HN116692   3.126   2.093  11.193  0.8839  1.8996  1.5483
  151SAPE   HN216693   3.125   2.153  11.031 -2.6961  1.1038 -1.6065
  151SAPE   HN316694   3.134   2.256  11.161 -0.0644  0.8341 -1.2051
  151SAPE   C1216695   2.940   2.180  11.141  0.0876 -1.0867 -0.1712
  151SAPE  H12A16696   2.896   2.078  11.139  1.7059 -1.9821  2.9746
  151SAPE  H12B16697   2.911   2.250  11.059 -1.5359 -4.2518 -2.4892
  151SAPE   C1116698   2.905   2.237  11.285 -0.9313  0.0287 -0.3432
  151SAPE  H11A16699   2.911   2.157  11.362 -0.0932  1.9928  1.7752
  151SAPE  H11B16700   2.798   2.269  11.292 -0.7453  0.5068  0.4347
  151SAPE     P16701   2.971   2.489  11.246  0.1590  0.8690 -0.3593
  151SAPE   O1316702   2.828   2.520  11.226  0.1953 -0.0181  0.5923
  151SAPE   O1416703   3.055   2.590  11.313 -0.5623  0.2007  0.9125
  151SAPE   O1216704   2.991   2.348  11.317 -0.0443 -0.4143  0.4958
  151SAPE   O1116705   3.034   2.460  11.108 -0.0199 -0.7948  0.1776
  151SAPE    C116706   3.117   2.539  11.028 -0.1106  0.1595 -0.2896
  151SAPE    HA16707   3.176   2.603  11.098 -1.6912  0.2202  1.0688
  151SAPE    HB16708   3.179   2.478  10.959  0.7887  2.7907 -1.9612
  151SAPE    C216709   3.044   2.624  10.919 -0.5951  0.0904  0.8211
  151SAPE    HS16710   2.967   2.672  10.984 -2.4080 -0.8595 -0.5178
  151SAPE   O2116711   2.990   2.540  10.813 -0.0978 -0.5270  0.5334
  151SAPE   C2116712   2.863   2.513  10.818  0.1623  0.0466  0.2298
  151SAPE   O2216713   2.785   2.553  10.900 -0.8437 -0.2040  0.0062
  151SAPE   C2216714   2.820   2.436  10.690 -0.2156 -0.2201  0.3383
  151SAPE   H2R16715   2.860   2.493  10.603 -1.1152  2.7596  1.7687
  151SAPE   H2S16716   2.854   2.330  10.701  2.0054  0.3069 -0.7552
  151SAPE    C316717   3.128   2.735  10.848 -0.4395 -0.3763  0.6554
  151SAPE    HX16718   3.227   2.704  10.807 -0.0615 -0.5113  1.6304
  151SAPE    HY16719   3.153   2.818  10.917 -1.5508  0.9518 -0.4786
  151SAPE   O3116720   3.046   2.781  10.728  0.2208 -0.3441  0.2045
  151SAPE   C3116721   3.113   2.879  10.659  1.0394 -0.4829 -0.7422
  151SAPE   O3216722   3.216   2.930  10.694 -0.9025  0.4392 -0.6819
  151SAPE   C3216723   3.031   2.931  10.539 -0.0965 -0.1230 -0.1120
  151SAPE   H2X16724   3.010   3.039  10.557  0.8028  0.4135 -2.0122
  151SAPE   H2Y16725   2.936   2.874  10.543 -0.2780  0.1174 -0.8665
  151SAPE   C2316726   2.672   2.448  10.653  0.1689  0.0450 -0.5778
  151SAPE   H3R16727   2.645   2.555  10.645  0.4088  0.3881  2.2407
  151SAPE   H3S16728   2.619   2.413  10.745  1.3847 -2.0439 -0.5938
  151SAPE   C2416729   2.625   2.375  10.516  0.7854 -0.4588 -0.4158
  151SAPE   H4R16730   2.665   2.275  10.543 -0.6623 -1.2139 -0.9426
  151SAPE   H4S16731   2.688   2.414  10.433 -0.1649  1.1033 -0.4493
  151SAPE   C2516732   2.472   2.383  10.495 -1.1510 -0.0787 -0.2514
  151SAPE   H5R16733   2.423   2.366  10.592 -1.1853 -2.3931 -0.6124
  151SAPE   C2616734   2.403   2.403  10.382  0.8290  0.3274 -0.6623
  151SAPE   H6R16735   2.294   2.412  10.390  0.8270  0.5208 -0.8814
  151SAPE   C2716736   2.461   2.428  10.249  0.0287  0.6246  0.1041
  151SAPE   H7R16737   2.559   2.480  10.254  0.8056 -0.5821 -1.5533
  151SAPE   H7S16738   2.392   2.497  10.195  2.2199  1.9786 -1.1018
  151SAPE   C2816739   2.481   2.301  10.177 -0.2885 -0.0250  0.1782
  151SAPE   H8R16740   2.537   2.223  10.231 -1.2900 -1.7286 -1.1309
  151SAPE   C2916741   2.456   2.276  10.047  0.7284 -0.2712 -0.1512
  151SAPE   H9R16742   2.474   2.172  10.017 -2.5431 -0.6479 -1.1655
  151SAPE  C21016743   2.396   2.374   9.946  0.3195  0.0307 -0.4122
  151SAPE  H10R16744   2.471   2.405   9.870  0.3126 -0.8776 -0.8092
  151SAPE  H10S16745   2.360   2.467   9.994 -0.6570 -1.0237  0.9826
  151SAPE  C21116746   2.270   2.334   9.883 -0.3832  0.0110  1.1906
  151SAPE  H11R16747   2.201   2.279   9.949 -0.1551 -1.2425  0.4299
  151SAPE  C21216748   2.242   2.343   9.746 -1.0337 -0.6393 -0.2179
  151SAPE  H12R16749   2.141   2.315   9.710 -0.1162 -2.8848 -1.2463
  151SAPE  C21316750   2.323   2.413   9.641  0.2706  0.1221 -0.0136
  151SAPE  H13R16751   2.416   2.356   9.620 -1.1567 -1.8777 -1.3589
  151SAPE  H13S16752   2.362   2.511   9.676  0.1276 -0.2501  1.2286
  151SAPE  C21416753   2.248   2.418   9.508  0.0267  0.0073 -0.4070
  151SAPE  H14R16754   2.175   2.500   9.512 -0.1287 -0.1765  1.1987
  151SAPE  C21516755   2.289   2.351   9.394  0.1742  0.1002  0.5486
  151SAPE  H15R16756   2.222   2.357   9.307 -0.6865  0.1762  1.1927
  151SAPE  C21616757   2.398   2.242   9.391 -0.3275  0.1187  0.4228
  151SAPE  H16R16758   2.353   2.141   9.379 -1.5281  0.7358 -0.5701
  151SAPE  H16S16759   2.458   2.229   9.484  1.0932 -3.3726 -0.8454
  151SAPE  C21716760   2.496   2.266   9.275 -1.1630 -0.3461 -0.1525
  151SAPE  H17R16761   2.553   2.172   9.260 -1.5569 -0.7236  0.6506
  151SAPE  H17S16762   2.558   2.352   9.305 -3.2578  0.6552  1.5868
  151SAPE  C21816763   2.439   2.291   9.137 -0.4796 -0.7338  0.6773
  151SAPE  H18R16764   2.389   2.390   9.135  2.0975  0.6366  0.0873
  151SAPE  H18S16765   2.364   2.214   9.110 -1.0835  0.1009 -0.0483
  151SAPE  C21916766   2.554   2.291   9.032 -0.0048 -0.4416 -0.2252
  151SAPE  H19R16767   2.590   2.186   9.031  1.7451  0.1344 -1.6455
  151SAPE  H19S16768   2.634   2.359   9.069  1.1531 -1.7390 -0.2907
  151SAPE  C22016769   2.509   2.315   8.886  0.1116  0.4678 -0.7900
  151SAPE  H20R16770   2.470   2.418   8.870 -0.9846 -0.1510 -2.2298
  151SAPE  H20S16771   2.420   2.258   8.854  0.6255 -0.8872  0.1242
  151SAPE  H20T16772   2.601   2.298   8.826 -0.0212 -1.0501 -0.6000
  151SAPE   C3316773   3.110   2.906  10.411 -0.0739  0.1829  0.4284
  151SAPE   H3X16774   3.170   2.813  10.400  0.5654  0.7412 -1.0854
  151SAPE   H3Y16775   3.185   2.987  10.404 -0.0335  0.0646 -0.7558
  151SAPE   C3416776   3.016   2.914  10.285  0.7644 -0.2480 -0.2736
  151SAPE   H4X16777   2.957   3.008  10.284 -1.2117 -1.4051 -1.7319
  151SAPE   H4Y16778   2.957   2.820  10.285  1.2306 -0.6261 -2.9587
  151SAPE   C3516779   3.095   2.899  10.153 -0.5792 -0.4527  0.5464
  151SAPE   H5X16780   3.148   2.801  10.148 -1.2625 -0.7982 -0.0869
  151SAPE   H5Y16781   3.174   2.977  10.141 -0.8738 -0.1761  0.3993
  151SAPE   C3616782   3.003   2.925  10.035 -0.5350 -0.4095  0.3067
  151SAPE   H6X16783   3.008   3.033  10.013 -1.0961 -0.5536 -0.6075
  151SAPE   H6Y16784   2.899   2.889  10.053 -1.4551  1.4530 -1.0207
  151SAPE   C3716785   3.057   2.840   9.912 -0.4389 -1.4561  0.2406
  151SAPE   H7X16786   3.050   2.733   9.944 -0.3611 -1.3960  0.4613
  151SAPE   H7Y16787   3.163   2.872   9.900 -1.0100 -0.1889 -1.8473
  151SAPE   C3816788   2.985   2.873   9.778 -0.4789 -0.1039 -0.0429
  151SAPE   H8X16789   2.979   2.983   9.763  0.9140  0.1381  0.9523
  151SAPE   H8Y16790   2.884   2.833   9.797 -0.5420  0.1454  0.1527
  151SAPE   C3916791   3.042   2.806   9.652  0.0922  0.2279  0.5538
  151SAPE   H9X16792   3.063   2.697   9.659 -0.6567  0.0383 -0.0414
  151SAPE   H9Y16793   3.144   2.849   9.642 -0.6416  1.4132 -3.8234
  151SAPE  C31016794   2.942   2.825   9.532  0.4608 -0.0279  0.3359
  151SAPE  H10X16795   2.896   2.926   9.529 -0.7013 -0.5716 -0.5581
  151SAPE  H10Y16796   2.860   2.751   9.540  0.2363  0.1046 -0.6276
  151SAPE  C31116797   3.013   2.817   9.395 -0.1594 -0.1101  0.0943
  151SAPE  H11X16798   3.048   2.713   9.378 -1.7493 -0.4373 -1.4175
  151SAPE  H11Y16799   3.101   2.883   9.385 -1.5198  1.8567  0.6352
  151SAPE  C31216800   2.924   2.853   9.280  0.0779 -0.5352 -0.2165
  151SAPE  H12X16801   2.905   2.963   9.280  1.1259 -0.3518  0.4107
  151SAPE  H12Y16802   2.825   2.803   9.273 -0.4738  0.6741 -1.9214
  151SAPE  C31316803   2.989   2.835   9.143  0.0502 -0.0721  0.4503
  151SAPE  H13X16804   3.014   2.730   9.117  0.7926  0.2031  0.0517
  151SAPE  H13Y16805   3.086   2.888   9.140  1.5281 -2.6067  1.0267
  151SAPE  C31416806   2.897   2.894   9.033 -0.3872 -0.0792 -0.3427
  151SAPE  H14X16807   2.902   3.005   9.044  2.2829 -0.2025  0.4003
  151SAPE  H14Y16808   2.795   2.851   9.039 -0.6370  0.5816  0.3166
  151SAPE  C31516809   2.939   2.864   8.884  0.2489  0.0183 -0.1342
  151SAPE  H15X16810   3.038   2.901   8.850  0.8932 -1.7872 -0.3554
  151SAPE  H15Y16811   2.862   2.905   8.815  0.6640 -0.6582 -1.0305
  151SAPE  C31616812   2.938   2.709   8.855  1.0365  0.3491 -0.3158
  151SAPE  H16X16813   2.847   2.663   8.898  1.7277 -0.2483  0.5588
  151SAPE  H16Y16814   3.022   2.659   8.907  0.7330  0.5895  0.4201
  151SAPE  C31716815   2.926   2.676   8.703  0.0974  0.2921 -1.3307
  151SAPE  H17X16816   3.019   2.702   8.647  0.8499  0.4714 -0.0225
  151SAPE  H17Y16817   2.840   2.734   8.662 -0.4096  0.6537  0.2047
  151SAPE  C31816818   2.905   2.525   8.677 -0.0575  0.0648  0.1111
  151SAPE  H18X16819   2.865   2.507   8.574 -3.1445 -2.7389  1.6083
  151SAPE  H18Y16820   2.828   2.483   8.744  0.6245  0.4548  1.1643
  151SAPE  H18Z16821   2.998   2.466   8.692 -0.1056  0.0547  0.3605
  152SAPE     N16822   5.166   2.776  10.783  0.6622 -0.0243 -0.3430
  152SAPE   HN116823   5.129   2.680  10.796  0.9001 -0.0981 -0.2080
  152SAPE   HN216824   5.214   2.818  10.865 -2.2872  2.2215  0.3894
  152SAPE   HN316825   5.084   2.839  10.783 -0.9211 -1.9912 -0.4561
  152SAPE   C1216826   5.241   2.788  10.653  0.0409  0.3074  0.3106
  152SAPE  H12A16827   5.188   2.736  10.570  0.1641 -0.0774  0.4690
  152SAPE  H12B16828   5.342   2.745  10.669 -0.4644 -1.1067 -0.1625
  152SAPE   C1116829   5.248   2.933  10.615 -0.0120 -0.5448  0.4762
  152SAPE  H11A16830   5.143   2.970  10.606 -0.0712 -0.4961  1.2707
  152SAPE  H11B16831   5.299   2.930  10.517  2.6090 -1.4709  1.7885
  152SAPE     P16832   5.307   3.160  10.740  0.0694 -0.4040 -0.3004
  152SAPE   O1316833   5.166   3.185  10.774  0.1724  0.0941 -0.3470
  152SAPE   O1416834   5.405   3.215  10.841 -0.5270 -0.1610  0.5664
  152SAPE   O1216835   5.326   3.002  10.717  1.0053 -0.4455 -0.1659
  152SAPE   O1116836   5.337   3.220  10.604  0.2574 -0.1021  0.1936
  152SAPE    C116837   5.472   3.199  10.554 -0.0392 -0.0216 -0.3313
  152SAPE    HA16838   5.540   3.281  10.586 -1.2734  0.1541  2.1136
  152SAPE    HB16839   5.522   3.103  10.577  2.0285  1.0311 -0.1471
  152SAPE    C216840   5.473   3.199  10.396 -0.4121  0.3233 -0.4281
  152SAPE    HS16841   5.429   3.297  10.369 -1.1604 -0.7000 -3.3343
  152SAPE   O2116842   5.390   3.091  10.342  0.3759  0.1644  0.7274
  152SAPE   C2116843   5.340   3.121  10.221  0.4038  0.3225 -0.9744
  152SAPE   O2216844   5.354   3.231  10.164  0.5771  0.1202 -0.4144
  152SAPE   C2216845   5.274   2.995  10.170  0.4496 -0.1294  0.1570
  152SAPE   H2R16846   5.313   2.903  10.217 -1.2630 -1.5022 -1.0019
  152SAPE   H2S16847   5.167   3.019  10.190  0.4288 -1.4899  1.8859
  152SAPE    C316848   5.619   3.183  10.348  0.4947 -1.0719 -0.4760
  152SAPE    HX16849   5.659   3.080  10.362  3.7355  0.1339 -0.0130
  152SAPE    HY16850   5.685   3.249  10.409 -0.9989 -0.6227  0.7234
  152SAPE   O3116851   5.637   3.220  10.213  0.0378 -0.1780 -0.1847
  152SAPE   C3116852   5.667   3.344  10.163 -0.4952  0.2708 -0.2045
  152SAPE   O3216853   5.655   3.446  10.234  0.2085 -0.1738  0.1970
  152SAPE   C3216854   5.697   3.345  10.014 -0.3561 -0.0406 -0.0471
  152SAPE   H2X16855   5.624   3.281   9.960  1.3909  0.1012 -2.8063
  152SAPE   H2Y16856   5.800   3.306   9.997  0.2894  1.5165  0.1202
  152SAPE   C2316857   5.287   2.988  10.015 -0.4812 -0.4257 -0.5702
  152SAPE   H3R16858   5.272   3.088   9.970  2.0873  1.0525  1.5375
  152SAPE   H3S16859   5.200   2.930   9.979 -0.8348 -0.7697  0.7827
  152SAPE   C2416860   5.410   2.904   9.964  0.4328 -0.8642  0.0986
  152SAPE   H4R16861   5.397   2.891   9.854  0.2419  1.0211 -0.1367
  152SAPE   H4S16862   5.402   2.812  10.025 -2.4083 -1.1810 -0.6430
  152SAPE   C2516863   5.536   2.971   9.998  0.2967 -0.2107  0.8324
  152SAPE   H5R16864   5.584   2.954  10.096  1.4605 -1.8376  0.0293
  152SAPE   C2616865   5.611   3.023   9.902  0.2256 -0.0000 -0.5702
  152SAPE   H6R16866   5.709   3.066   9.927  1.4242 -1.6196 -2.1350
  152SAPE   C2716867   5.568   3.050   9.762  0.5178  0.1992  1.2870
  152SAPE   H7R16868   5.557   3.161   9.762 -0.9734  0.0834  0.6852
  152SAPE   H7S16869   5.463   3.027   9.732  1.0274 -0.2100 -0.2771
  152SAPE   C2816870   5.679   3.021   9.667  0.4029 -0.1651 -0.3786
  152SAPE   H8R16871   5.777   2.989   9.708  1.3155  0.6854 -1.8004
  152SAPE   C2916872   5.658   3.006   9.539 -0.3501 -0.2538 -0.2179
  152SAPE   H9R16873   5.749   2.999   9.476  0.5418  1.9993  0.7069
  152SAPE  C21016874   5.533   3.023   9.459  0.6553 -0.1160 -0.2542
  152SAPE  H10R16875   5.558   3.077   9.365 -1.4740  2.5045  0.5353
  152SAPE  H10S16876   5.460   3.085   9.515 -0.9742 -1.4310 -0.8477
  152SAPE  C21116877   5.483   2.882   9.443 -0.1050  0.6224  0.2197
  152SAPE  H11R16878   5.422   2.841   9.526 -3.2855  1.9046 -1.3041
  152SAPE  C21216879   5.491   2.806   9.329  0.2623 -1.1311 -0.3251
  152SAPE  H12R16880   5.452   2.703   9.333 -2.1132 -0.3715 -1.6157
  152SAPE  C21316881   5.557   2.848   9.197 -0.2862  0.0856  0.4274
  152SAPE  H13R16882   5.541   2.957   9.187 -1.5982 -0.2178 -1.2448
  152SAPE  H13S16883   5.507   2.804   9.108  0.9197  2.0583 -1.3027
  152SAPE  C21416884   5.700   2.812   9.202  0.1049 -0.6424  0.3895
  152SAPE  H14R16885   5.757   2.881   9.266 -1.8802  1.9560 -0.4185
  152SAPE  C21516886   5.747   2.708   9.145 -0.4185  0.4662  0.2649
  152SAPE  H15R16887   5.852   2.677   9.153 -1.4821 -4.1438 -0.5245
  152SAPE  C21616888   5.690   2.607   9.054 -0.3140  0.4802  0.3772
  152SAPE  H16R16889   5.586   2.637   9.029 -0.2969  0.7441  0.6309
  152SAPE  H16S16890   5.691   2.508   9.106 -1.7588 -0.9247 -2.0479
  152SAPE  C21716891   5.776   2.607   8.925  0.4688 -0.2703  0.2908
  152SAPE  H17R16892   5.763   2.507   8.877 -1.5980  0.2162 -0.2505
  152SAPE  H17S16893   5.884   2.622   8.946  0.6444  1.8113 -1.7346
  152SAPE  C21816894   5.722   2.710   8.824 -0.3471  0.3096 -0.1310
  152SAPE  H18R16895   5.717   2.811   8.869 -0.9931 -0.0572  0.6532
  152SAPE  H18S16896   5.617   2.683   8.798  0.2000 -0.8224 -1.2671
  152SAPE  C21916897   5.793   2.704   8.686  0.2456 -0.0023 -0.2555
  152SAPE  H19R16898   5.745   2.769   8.609 -0.5688 -1.6034 -1.1547
  152SAPE  H19S16899   5.790   2.599   8.650  0.6475 -0.0931 -0.0194
  152SAPE  C22016900   5.937   2.724   8.688  0.2303 -0.0437  0.2066
  152SAPE  H20R16901   5.978   2.713   8.585 -0.2935  0.9047 -0.1101
  152SAPE  H20S16902   5.984   2.649   8.757 -0.7629  0.2532  1.2273
  152SAPE  H20T16903   5.953   2.824   8.733 -2.5398 -0.3377  2.1402
  152SAPE   C3316904   5.705   3.488   9.947  0.6365  0.1652 -0.4313
  152SAPE   H3X16905   5.782   3.560   9.981  0.6752 -0.4969  0.9475
  152SAPE   H3Y16906   5.607   3.537   9.965  1.0252  0.6018  0.5201
  152SAPE   C3416907   5.728   3.476   9.793 -0.4587  0.1035  0.2334
  152SAPE   H4X16908   5.686   3.380   9.757 -1.8600 -0.4083  2.9823
  152SAPE   H4Y16909   5.835   3.487   9.763 -0.2966 -0.6322  0.5070
  152SAPE   C3516910   5.659   3.589   9.720  0.2777  0.4790  0.3255
  152SAPE   H5X16911   5.679   3.684   9.774  2.2975  1.6193 -2.2047
  152SAPE   H5Y16912   5.549   3.574   9.729  0.1609  0.7243 -0.5619
  152SAPE   C3616913   5.694   3.621   9.574 -0.5181  0.2895  0.0707
  152SAPE   H6X16914   5.805   3.617   9.575 -0.4096 -0.6380 -3.4193
  152SAPE   H6Y16915   5.654   3.724   9.564  1.2422  0.8032 -2.3915
  152SAPE   C3716916   5.648   3.508   9.476  0.8472  0.8086  0.6401
  152SAPE   H7X16917   5.686   3.406   9.498 -2.4128 -1.3722 -2.7247
  152SAPE   H7Y16918   5.669   3.542   9.372 -1.3125 -0.9337 -0.4617
  152SAPE   C3816919   5.496   3.485   9.479  0.5801  0.1951 -0.0156
  152SAPE   H8X16920   5.437   3.577   9.463 -1.1773 -1.1334 -1.6008
  152SAPE   H8Y16921   5.474   3.444   9.581 -0.1319  0.9747  0.1563
  152SAPE   C3916922   5.450   3.376   9.377 -0.2397  0.1779 -0.5612
  152SAPE   H9X16923   5.363   3.318   9.414 -0.3481  0.9134  0.3631
  152SAPE   H9Y16924   5.540   3.312   9.359  0.2771  1.1762 -1.6272
  152SAPE  C31016925   5.408   3.439   9.241  0.1000  0.0648 -0.1450
  152SAPE  H10X16926   5.486   3.509   9.203  0.5336  0.7010  1.7902
  152SAPE  H10Y16927   5.319   3.502   9.262  0.6786  1.1253 -0.7756
  152SAPE  C31116928   5.386   3.331   9.140  0.1491 -0.3340  1.0825
  152SAPE  H11X16929   5.322   3.249   9.178 -1.1650 -0.3942 -1.0962
  152SAPE  H11Y16930   5.489   3.296   9.118  0.1073  0.5937 -0.7986
  152SAPE  C31216931   5.335   3.387   9.000 -0.3206 -0.3585 -1.1327
  152SAPE  H12X16932   5.399   3.473   8.970  0.0766  0.6025  2.1000
  152SAPE  H12Y16933   5.230   3.423   9.013  0.4068  1.9037 -1.0651
  152SAPE  C31316934   5.347   3.275   8.898  0.5104  0.8025  0.5510
  152SAPE  H13X16935   5.278   3.189   8.915  0.4089  1.1818  2.2654
  152SAPE  H13Y16936   5.448   3.230   8.891  0.8621  1.6673 -0.0293
  152SAPE  C31416937   5.339   3.322   8.756  0.3211 -0.3153  0.5301
  152SAPE  H14X16938   5.366   3.231   8.698  2.2782 -0.5192  1.6559
  152SAPE  H14Y16939   5.425   3.391   8.742 -0.4327  0.7002  0.7947
  152SAPE  C31516940   5.218   3.382   8.707 -0.0235  0.6122  0.4265
  152SAPE  H15X16941   5.247   3.432   8.612 -0.1872  1.9274  1.0397
  152SAPE  H15Y16942   5.183   3.461   8.777 -0.7552  0.6966 -0.0280
  152SAPE  C31616943   5.104   3.283   8.678  0.1852 -0.0037  0.1534
  152SAPE  H16X16944   5.016   3.330   8.630 -0.4951 -0.0846  1.2917
  152SAPE  H16Y16945   5.071   3.243   8.776 -1.9547  0.9181 -0.1523
  152SAPE  C31716946   5.141   3.167   8.586 -0.1063  0.1354  0.7064
  152SAPE  H17X16947   5.045   3.111   8.578  0.0825 -0.1855  0.6668
  152SAPE  H17Y16948   5.220   3.101   8.628  0.3233 -1.3002 -2.1380
  152SAPE  C31816949   5.168   3.219   8.444 -0.2241 -0.3481  0.1218
  152SAPE  H18X16950   5.265   3.272   8.455 -0.0386 -0.6207 -0.1910
  152SAPE  H18Y16951   5.088   3.291   8.417  1.0866  1.9897  2.0930
  152SAPE  H18Z16952   5.170   3.135   8.371 -1.6089 -0.3647  0.0800
  153SAPE     N16953   5.011   3.387  10.679 -0.4674  0.2956  0.9869
  153SAPE   HN116954   5.016   3.472  10.740  1.7049  1.6819 -0.9849
  153SAPE   HN216955   4.912   3.357  10.690 -0.4053 -0.4522 -0.3412
  153SAPE   HN316956   5.057   3.304  10.722  4.4466  1.3399 -1.5913
  153SAPE   C1216957   5.045   3.383  10.533 -0.1466 -0.3191 -0.7939
  153SAPE  H12A16958   5.156   3.389  10.526  0.0706 -2.6802 -0.1006
  153SAPE  H12B16959   5.006   3.478  10.490 -2.7779 -1.1121 -0.3244
  153SAPE   C1116960   5.000   3.256  10.466 -0.1082  0.1275  0.3599
  153SAPE  H11A16961   5.053   3.167  10.507  0.9429 -0.0603 -1.3039
  153SAPE  H11B16962   5.032   3.261  10.359 -1.1786 -0.5316 -0.0133
  153SAPE     P16963   4.782   3.151  10.576 -0.0317 -0.4668 -0.4557
  153SAPE   O1316964   4.833   3.183  10.713  0.1105 -0.2122  0.2842
  153SAPE   O1416965   4.634   3.154  10.558 -0.1179  0.2821 -0.0222
  153SAPE   O1216966   4.858   3.237  10.464  0.5011 -0.3765  0.2949
  153SAPE   O1116967   4.830   3.004  10.533 -0.2707 -0.1788  0.5592
  153SAPE    C116968   4.818   2.971  10.398  0.0341 -0.2706  0.1843
  153SAPE    HA16969   4.862   3.043  10.325 -2.4155 -1.4675 -2.6355
  153SAPE    HB16970   4.877   2.880  10.371  0.2962 -0.0885  0.1327
  153SAPE    C216971   4.679   2.922  10.347  0.1545 -0.0906 -0.6129
  153SAPE    HS16972   4.708   2.852  10.265  1.3425 -1.7024  1.0879
  153SAPE   O2116973   4.593   3.027  10.293  0.0257  0.4835 -0.0124
  153SAPE   C2116974   4.637   3.076  10.178 -0.0154 -0.4813  0.2532
  153SAPE   O2216975   4.738   3.042  10.126  0.3473  0.1921 -0.4160
  153SAPE   C2216976   4.534   3.165  10.108  0.0970 -0.0058 -0.0589
  153SAPE   H2R16977   4.430   3.128  10.106 -0.0485  0.3871 -2.7279
  153SAPE   H2S16978   4.533   3.266  10.154  0.2405 -1.0391  2.3992
  153SAPE    C316979   4.609   2.852  10.466  0.3778 -0.0572  0.1575
  153SAPE    HX16980   4.595   2.925  10.548  3.3148  0.8328 -0.0370
  153SAPE    HY16981   4.670   2.766  10.502  2.4677  2.0970  2.0548
  153SAPE   O3116982   4.481   2.804  10.419  0.1579  0.4575 -0.1471
  153SAPE   C3116983   4.381   2.821  10.495  0.1528  0.5622  0.5744
  153SAPE   O3216984   4.374   2.877  10.601 -0.1017 -0.2789 -0.0329
  153SAPE   C3216985   4.259   2.777  10.413  0.1529  0.6183 -0.3698
  153SAPE   H2X16986   4.164   2.785  10.470  0.2584 -0.9491  0.0624
  153SAPE   H2Y16987   4.272   2.671  10.383  2.0303  1.7131 -4.0470
  153SAPE   C2316988   4.568   3.191   9.963  0.5041 -0.2992 -0.4967
  153SAPE   H3R16989   4.672   3.228   9.948  0.5904  0.0467  0.7743
  153SAPE   H3S16990   4.511   3.280   9.927  2.0254  0.9295 -0.0028
  153SAPE   C2416991   4.533   3.082   9.870  0.0771  0.1310  0.0427
  153SAPE   H4R16992   4.430   3.049   9.896  0.7004 -1.6277  0.4193
  153SAPE   H4S16993   4.597   2.993   9.889 -0.4970  0.2300  2.6999
  153SAPE   C2516994   4.526   3.123   9.727  0.3211  0.3613  0.3060
  153SAPE   H5R16995   4.579   3.217   9.702  2.6572 -0.3183  2.3808
  153SAPE   C2616996   4.478   3.051   9.626  0.4011  0.0636 -0.2048
  153SAPE   H6R16997   4.480   3.108   9.532  1.6644  1.7698  0.7954
  153SAPE   C2716998   4.408   2.914   9.636 -0.5792  0.0819  0.5556
  153SAPE   H7R16999   4.321   2.904   9.568 -0.0520  0.5273 -0.1876
  153SAPE   H7S17000   4.362   2.891   9.735 -1.7833  2.0843  0.5186
  153SAPE   C2817001   4.506   2.808   9.606  0.4003 -0.2836 -0.3332
  153SAPE   H8R17002   4.535   2.747   9.692  0.0924 -0.8028 -0.5878
  153SAPE   C2917003   4.552   2.776   9.488 -0.3410  0.6955  0.4900
  153SAPE   H9R17004   4.622   2.691   9.484 -0.7937  0.3612 -0.6689
  153SAPE  C21017005   4.532   2.849   9.355  0.2257  0.2957 -0.8263
  153SAPE  H10R17006   4.631   2.846   9.305  0.6224  0.9384 -0.1041
  153SAPE  H10S17007   4.491   2.951   9.366 -1.2002 -0.4837  2.4384
  153SAPE  C21117008   4.432   2.771   9.270 -0.1986  0.1229  0.2171
  153SAPE  H11R17009   4.364   2.701   9.320 -2.2719  1.0993 -1.1142
  153SAPE  C21217010   4.411   2.786   9.140 -0.0582  0.1413  0.2855
  153SAPE  H12R17011   4.321   2.739   9.099 -3.1687  3.6387  2.4326
  153SAPE  C21317012   4.495   2.868   9.047 -0.0635  0.0011  0.5263
  153SAPE  H13R17013   4.544   2.806   8.969  1.1846  1.4877  0.0716
  153SAPE  H13S17014   4.583   2.910   9.101  0.5208  0.9381 -1.0961
  153SAPE  C21417015   4.431   2.980   8.970  0.6403 -0.5000 -0.3401
  153SAPE  H14R17016   4.325   2.993   8.995  0.9929 -0.6429  1.3101
  153SAPE  C21517017   4.489   3.074   8.887  0.3515  0.6652 -0.0982
  153SAPE  H15R17018   4.424   3.133   8.820 -0.9635  0.5757  1.0418
  153SAPE  C21617019   4.631   3.075   8.851 -0.5681  0.1142 -0.4984
  153SAPE  H16R17020   4.693   2.993   8.892 -0.3746  0.4362 -0.1388
  153SAPE  H16S17021   4.679   3.172   8.875  0.7921 -0.0083 -2.4647
  153SAPE  C21717022   4.663   3.067   8.699  0.4093 -0.3606  0.8255
  153SAPE  H17R17023   4.628   2.967   8.666  1.1008 -0.3232 -0.0331
  153SAPE  H17S17024   4.771   3.066   8.675  0.2431  1.2671 -0.1686
  153SAPE  C21817025   4.593   3.167   8.610 -0.2068 -0.3386 -0.4001
  153SAPE  H18R17026   4.582   3.256   8.676  3.1899 -0.8357  1.0692
  153SAPE  H18S17027   4.491   3.127   8.595 -0.3061  0.1465 -1.0479
  153SAPE  C21917028   4.669   3.204   8.487 -0.1111  0.3126 -0.2489
  153SAPE  H19R17029   4.769   3.234   8.527  1.0277 -1.0314 -1.9548
  153SAPE  H19S17030   4.619   3.288   8.435  0.5719  0.9011  0.0183
  153SAPE  C22017031   4.697   3.081   8.397 -0.7553 -0.5707 -0.3100
  153SAPE  H20R17032   4.774   3.012   8.440 -1.1255 -0.6772  0.1922
  153SAPE  H20S17033   4.737   3.119   8.301  0.4159 -0.8671  0.0415
  153SAPE  H20T17034   4.605   3.023   8.376 -0.0745 -1.6020 -0.4976
  153SAPE   C3317035   4.246   2.855  10.279  0.4375 -0.1813 -0.4394
  153SAPE   H3X17036   4.339   2.844  10.220 -0.0892  1.4803 -1.6582
  153SAPE   H3Y17037   4.240   2.965  10.296 -1.5449 -0.3890  0.5376
  153SAPE   C3417038   4.116   2.807  10.203 -0.3777  0.0253 -0.1230
  153SAPE   H4X17039   4.023   2.861  10.230 -0.1764  1.2736 -1.7613
  153SAPE   H4Y17040   4.108   2.698  10.221 -0.0029  0.0854  0.4297
  153SAPE   C3517041   4.143   2.807  10.048 -0.5975  0.1382 -0.1495
  153SAPE   H5X17042   4.236   2.750  10.027 -0.7188 -0.4443  0.8545
  153SAPE   H5Y17043   4.158   2.912  10.014 -1.9788  0.0955 -0.9470
  153SAPE   C3617044   4.029   2.757   9.955  0.1018 -0.0231 -0.4668
  153SAPE   H6X17045   3.948   2.833   9.964  0.0864 -0.1642  0.6758
  153SAPE   H6Y17046   3.997   2.658   9.996  2.1619 -0.8756 -0.8023
  153SAPE   C3717047   4.073   2.738   9.809  0.1278  0.1218  0.3720
  153SAPE   H7X17048   4.137   2.649   9.789  2.2488  1.0567  2.4657
  153SAPE   H7Y17049   4.136   2.820   9.767  0.1964 -0.2159 -0.1985
  153SAPE   C3817050   3.944   2.729   9.726  0.3441  0.3311  0.0065
  153SAPE   H8X17051   3.899   2.831   9.729  2.0597  1.2351 -2.2259
  153SAPE   H8Y17052   3.891   2.649   9.782  1.1644  0.9936  1.7839
  153SAPE   C3917053   3.958   2.694   9.577  0.3491 -0.0547 -0.6072
  153SAPE   H9X17054   3.858   2.670   9.536  0.1588 -1.0276  0.3916
  153SAPE   H9Y17055   4.008   2.597   9.553 -1.2264 -0.4503 -2.5773
  153SAPE  C31017056   4.009   2.811   9.494 -0.1646 -0.2391 -0.3517
  153SAPE  H10X17057   4.097   2.864   9.537  0.4201 -0.3902 -1.3252
  153SAPE  H10Y17058   3.937   2.894   9.479  3.5967  2.7434 -4.0961
  153SAPE  C31117059   4.056   2.764   9.358 -0.2190 -0.2453 -0.2174
  153SAPE  H11X17060   4.148   2.702   9.364  0.4785  0.6180 -1.4296
  153SAPE  H11Y17061   4.089   2.854   9.302 -4.2279  1.2137 -0.5410
  153SAPE  C31217062   3.946   2.709   9.263  0.7391  0.0238 -0.8660
  153SAPE  H12X17063   3.848   2.761   9.272  0.9826  0.4961 -0.9030
  153SAPE  H12Y17064   3.923   2.601   9.277 -0.5579  0.2819 -0.9047
  153SAPE  C31317065   3.996   2.714   9.113  0.1440  0.2882 -0.1091
  153SAPE  H13X17066   4.086   2.648   9.117  0.3160  0.5711  1.0658
  153SAPE  H13Y17067   4.013   2.819   9.083 -3.4672  0.6710 -1.3148
  153SAPE  C31417068   3.897   2.665   9.006  0.3418  0.5140  0.4286
  153SAPE  H14X17069   3.812   2.737   9.003 -0.0338  0.0546 -0.0247
  153SAPE  H14Y17070   3.864   2.562   9.031  0.6613  0.1687 -0.5223
  153SAPE  C31517071   3.966   2.661   8.869  0.2281  0.2746  0.3561
  153SAPE  H15X17072   4.025   2.568   8.862  0.6749  0.5131  0.8838
  153SAPE  H15Y17073   4.028   2.753   8.863  0.7700 -0.0919  0.3184
  153SAPE  C31617074   3.856   2.653   8.762 -0.8600  0.2513 -0.1659
  153SAPE  H16X17075   3.798   2.747   8.772 -0.7439  0.6046 -2.3496
  153SAPE  H16Y17076   3.790   2.565   8.780 -0.1719  0.2944  3.1248
  153SAPE  C31717077   3.898   2.654   8.617 -0.1346 -0.2137 -0.1001
  153SAPE  H17X17078   3.958   2.565   8.587  1.0795  0.8811 -0.9794
  153SAPE  H17Y17079   3.973   2.735   8.617 -0.2525 -0.1052 -0.1334
  153SAPE  C31817080   3.780   2.667   8.519  0.0607  0.5725  0.8021
  153SAPE  H18X17081   3.822   2.683   8.417 -1.7535  1.3500  0.1328
  153SAPE  H18Y17082   3.719   2.758   8.536  0.2065  1.0367 -0.9317
  153SAPE  H18Z17083   3.715   2.577   8.512  0.4945  0.2916  0.3057
  154SAPE     N17084   5.176   3.756  10.372  0.2191 -0.2502  1.0840
  154SAPE   HN117085   5.236   3.804  10.442  1.1569  0.5941 -0.2354
  154SAPE   HN217086   5.083   3.738  10.415  0.7254 -0.4882  2.1176
  154SAPE   HN317087   5.225   3.666  10.355  0.5976  0.0843  0.3397
  154SAPE   C1217088   5.173   3.843  10.253 -0.6857 -0.0827 -0.5061
  154SAPE  H12A17089   5.144   3.785  10.162  0.4825  0.6816 -1.4031
  154SAPE  H12B17090   5.278   3.876  10.234 -0.9864  0.2067 -1.7792
  154SAPE   C1117091   5.086   3.970  10.277  0.1691 -0.4787 -0.5541
  154SAPE  H11A17092   4.981   3.942  10.300  0.5461 -0.4037  1.3913
  154SAPE  H11B17093   5.092   4.020  10.177 -2.1436 -1.8183 -1.4393
  154SAPE     P17094   5.065   4.126  10.499 -0.3011  0.2549 -0.5472
  154SAPE   O1317095   4.995   4.019  10.572  0.0571 -0.0864 -0.0526
  154SAPE   O1417096   5.167   4.208  10.570 -0.1822  0.1644 -0.1888
  154SAPE   O1217097   5.138   4.062  10.381  0.5949  0.4315  0.9533
  154SAPE   O1117098   4.956   4.216  10.432 -0.0828  0.1843 -0.1602
  154SAPE    C117099   4.969   4.268  10.303 -0.3514  0.5397  0.4162
  154SAPE    HA17100   5.068   4.317  10.291  1.2353 -2.2351  1.2509
  154SAPE    HB17101   4.969   4.190  10.224 -1.3843  0.3866  0.5573
  154SAPE    C217102   4.846   4.355  10.266 -0.3813 -0.4730 -0.4449
  154SAPE    HS17103   4.854   4.449  10.325  0.8577 -0.6411 -0.3188
  154SAPE   O2117104   4.720   4.288  10.299  0.3664 -0.6917  0.0222
  154SAPE   C2117105   4.617   4.370  10.300 -0.2466  0.6877 -0.5666
  154SAPE   O2217106   4.620   4.489  10.298  0.6082  0.1747  0.0501
  154SAPE   C2217107   4.487   4.296  10.295  0.0207 -0.2288 -0.0363
  154SAPE   H2R17108   4.493   4.209  10.225 -0.8924 -1.0927  0.9135
  154SAPE   H2S17109   4.458   4.252  10.393 -1.4593  0.2984 -0.2135
  154SAPE    C317110   4.844   4.403  10.115  0.3187  0.9513 -0.0664
  154SAPE    HX17111   4.927   4.477  10.113  0.3704  1.1193  2.8430
  154SAPE    HY17112   4.748   4.448  10.083  0.2440  0.4771 -0.5196
  154SAPE   O3117113   4.882   4.298  10.024 -0.4466 -0.1788  0.0235
  154SAPE   C3117114   4.797   4.206   9.976  0.7536  0.1203 -0.3649
  154SAPE   O3217115   4.673   4.219   9.972  0.3102 -0.1685 -0.2276
  154SAPE   C3217116   4.877   4.089   9.921  0.6685 -0.4119  0.2344
  154SAPE   H2X17117   4.849   4.007   9.991 -3.8288  0.1572 -0.6284
  154SAPE   H2Y17118   4.985   4.115   9.924  0.8301 -0.4512 -2.4909
  154SAPE   C2317119   4.381   4.387  10.243  0.2048 -0.2148  0.5823
  154SAPE   H3R17120   4.406   4.438  10.147  1.0329  0.4237  1.1129
  154SAPE   H3S17121   4.356   4.470  10.313  0.6780 -0.3942  0.9709
  154SAPE   C2417122   4.252   4.305  10.233 -0.0535 -1.6905 -1.0659
  154SAPE   H4R17123   4.221   4.285  10.338  0.1885  0.9444 -0.4176
  154SAPE   H4S17124   4.268   4.208  10.182  0.4603 -1.2457 -1.7707
  154SAPE   C2517125   4.144   4.399  10.162  0.1557  0.6140 -0.1503
  154SAPE   H5R17126   4.074   4.452  10.227 -3.2497 -0.3304 -2.7560
  154SAPE   C2617127   4.131   4.415  10.030  0.7086  0.4312  0.0899
  154SAPE   H6R17128   4.062   4.490   9.988  2.2364  1.4248 -0.7752
  154SAPE   C2717129   4.215   4.350   9.921  0.4785  0.5367  0.4445
  154SAPE   H7R17130   4.321   4.360   9.952  0.5295  2.6675 -0.2329
  154SAPE   H7S17131   4.215   4.398   9.821  0.2708 -0.4685 -0.0537
  154SAPE   C2817132   4.185   4.208   9.896  0.2390 -0.4726 -0.0415
  154SAPE   H8R17133   4.117   4.167   9.972  0.3900 -0.0076  0.3487
  154SAPE   C2917134   4.227   4.128   9.798  0.1406 -0.6555  0.7554
  154SAPE   H9R17135   4.200   4.022   9.786  2.3130 -1.3555  1.5100
  154SAPE  C21017136   4.322   4.181   9.689  1.0458 -0.0534 -0.6305
  154SAPE  H10R17137   4.350   4.288   9.698 -0.4849  0.4721 -1.6815
  154SAPE  H10S17138   4.273   4.175   9.589 -0.7615 -1.9112  0.2836
  154SAPE  C21117139   4.449   4.098   9.705 -0.5485  0.1919  0.0858
  154SAPE  H11R17140   4.489   4.094   9.807 -1.4998 -0.9998  0.4328
  154SAPE  C21217141   4.491   4.008   9.613 -0.9049 -0.9442  0.5528
  154SAPE  H12R17142   4.585   3.957   9.639 -1.2653 -0.3258  3.4107
  154SAPE  C21317143   4.436   3.986   9.476  0.0036 -0.1605  0.0176
  154SAPE  H13R17144   4.511   3.930   9.416  0.7822 -1.6285  2.2331
  154SAPE  H13S17145   4.425   4.075   9.410  0.5932 -0.4133 -0.4295
  154SAPE  C21417146   4.309   3.913   9.471  1.1382 -0.7975 -0.0935
  154SAPE  H14R17147   4.252   3.934   9.563 -0.0182 -3.7145 -0.0119
  154SAPE  C21517148   4.265   3.805   9.399  0.0829 -0.5026  0.5860
  154SAPE  H15R17149   4.163   3.774   9.426 -0.3313 -0.1405 -0.5040
  154SAPE  C21617150   4.326   3.724   9.282 -0.1039 -0.3254 -0.0277
  154SAPE  H16R17151   4.248   3.729   9.203 -0.0381 -0.7219 -0.1168
  154SAPE  H16S17152   4.325   3.617   9.310 -3.2144 -0.3966 -0.0063
  154SAPE  C21717153   4.460   3.768   9.211  0.2033  0.3892  0.3902
  154SAPE  H17R17154   4.489   3.680   9.149  0.8569  0.1386  1.0310
  154SAPE  H17S17155   4.535   3.780   9.293  0.2331 -1.3935  0.6653
  154SAPE  C21817156   4.442   3.893   9.126 -0.1671  0.3802  0.7795
  154SAPE  H18R17157   4.401   3.973   9.190  1.0212  2.1606 -0.5888
  154SAPE  H18S17158   4.371   3.875   9.042  1.9664  0.6800 -1.1917
  154SAPE  C21917159   4.573   3.945   9.070 -0.2538  0.2782 -0.2674
  154SAPE  H19R17160   4.635   3.856   9.044  2.3118  1.6573  0.7785
  154SAPE  H19S17161   4.620   3.999   9.155  0.4982  2.8170 -2.1837
  154SAPE  C22017162   4.553   4.033   8.946  0.2867 -0.1992 -0.6115
  154SAPE  H20R17163   4.643   4.076   8.897  0.8784 -3.0412 -2.2616
  154SAPE  H20S17164   4.484   4.119   8.951  2.3070  1.5261 -1.0936
  154SAPE  H20T17165   4.512   3.972   8.862 -1.3921  1.6319 -1.1822
  154SAPE   C3317166   4.842   4.053   9.772 -0.0702  0.4746  0.6811
  154SAPE   H3X17167   4.735   4.024   9.765  0.3209 -1.2278  1.0808
  154SAPE   H3Y17168   4.889   3.964   9.726 -1.1934 -0.3686  1.1027
  154SAPE   C3417169   4.873   4.175   9.679  0.0205  0.1452 -0.2790
  154SAPE   H4X17170   4.977   4.203   9.707  0.2108  0.1392 -0.9524
  154SAPE   H4Y17171   4.800   4.255   9.703 -0.9760 -1.1831  1.2975
  154SAPE   C3517172   4.859   4.135   9.533  0.4114  0.0624  0.2034
  154SAPE   H5X17173   4.753   4.128   9.500 -0.0347  2.4641  0.9131
  154SAPE   H5Y17174   4.915   4.040   9.519  0.8186  0.4858 -1.1894
  154SAPE   C3617175   4.927   4.224   9.429  0.2866 -0.5610 -0.0721
  154SAPE   H6X17176   5.033   4.239   9.458  0.0375  0.0396  0.5537
  154SAPE   H6Y17177   4.877   4.323   9.435  0.2165 -0.5451 -0.7555
  154SAPE   C3717178   4.925   4.172   9.281  0.8488 -0.3380  0.8125
  154SAPE   H7X17179   4.819   4.160   9.250  1.0103  1.2435 -0.5040
  154SAPE   H7Y17180   4.987   4.080   9.289  0.9910 -0.3769 -0.5506
  154SAPE   C3817181   4.985   4.283   9.189  0.1279 -0.1069  0.0541
  154SAPE   H8X17182   5.085   4.309   9.230  0.1937  0.9417 -0.7161
  154SAPE   H8Y17183   4.911   4.365   9.206 -2.4187 -2.2353 -0.0708
  154SAPE   C3917184   4.997   4.246   9.043  0.5781  0.8819  0.0530
  154SAPE   H9X17185   4.925   4.162   9.035  1.2583  0.2255  0.6624
  154SAPE   H9Y17186   5.101   4.209   9.029  0.3786 -0.3522  1.5705
  154SAPE  C31017187   4.951   4.362   8.958 -0.4721 -0.2317  0.2074
  154SAPE  H10X17188   5.005   4.457   8.980 -1.6025  0.6195 -0.5369
  154SAPE  H10Y17189   4.842   4.382   8.968 -1.2147 -1.1237 -4.0221
  154SAPE  C31117190   4.972   4.325   8.807 -0.2809 -0.3098  0.8462
  154SAPE  H11X17191   4.920   4.399   8.743  1.1611  0.1417  0.1585
  154SAPE  H11Y17192   4.922   4.228   8.782 -1.7112  0.2621  1.3681
  154SAPE  C31217193   5.119   4.327   8.768 -0.6312 -0.0639 -0.0296
  154SAPE  H12X17194   5.181   4.241   8.801 -1.6184 -0.9295 -0.3726
  154SAPE  H12Y17195   5.162   4.423   8.805 -2.5530  0.5862  0.6862
  154SAPE  C31317196   5.135   4.328   8.614  0.2915 -0.2554 -1.0597
  154SAPE  H13X17197   5.056   4.400   8.582 -2.5736 -2.9064 -0.4285
  154SAPE  H13Y17198   5.111   4.225   8.582  0.1740 -1.5041  2.5954
  154SAPE  C31417199   5.273   4.369   8.561  0.3787 -0.0676 -0.6826
  154SAPE  H14X17200   5.341   4.418   8.634  1.2647 -2.1342 -0.0510
  154SAPE  H14Y17201   5.253   4.430   8.471  3.3250  0.0412 -1.3626
  154SAPE  C31517202   5.347   4.256   8.503  0.1053  0.4117  0.6898
  154SAPE  H15X17203   5.291   4.243   8.408 -0.2438 -0.9766  1.0526
  154SAPE  H15Y17204   5.330   4.164   8.565 -0.9452  0.9085  1.1567
  154SAPE  C31617205   5.497   4.299   8.485  0.1236 -0.1083  0.1379
  154SAPE  H16X17206   5.534   4.313   8.589  1.2051  0.3973 -0.2926
  154SAPE  H16Y17207   5.511   4.398   8.436  3.6698 -0.8310 -0.6283
  154SAPE  C31717208   5.570   4.196   8.407  0.3906 -0.2874  0.1723
  154SAPE  H17X17209   5.515   4.180   8.311 -0.8403  1.5988  0.5165
  154SAPE  H17Y17210   5.574   4.099   8.461  1.3821 -0.2861  0.1234
  154SAPE  C31817211   5.723   4.225   8.388 -0.1319 -0.4906 -0.7033
  154SAPE  H18X17212   5.727   4.327   8.346 -0.7581  0.5090  1.5151
  154SAPE  H18Y17213   5.781   4.152   8.327  0.9965  1.1361 -1.6422
  154SAPE  H18Z17214   5.757   4.231   8.494 -0.3644 -3.8484 -0.3101
  155SAPE     N17215   6.175   3.160  10.864  0.2969 -0.4903  0.1072
  155SAPE   HN117216   6.084   3.115  10.885  0.7296 -1.0268  0.8533
  155SAPE   HN217217   6.188   3.157  10.760 -1.3832  2.3056 -0.2836
  155SAPE   HN317218   6.256   3.123  10.918  0.0006  0.3779  1.1706
  155SAPE   C1217219   6.174   3.308  10.905 -0.5493  0.3725  0.0387
  155SAPE  H12A17220   6.261   3.359  10.858  0.2579  0.8649  1.9708
  155SAPE  H12B17221   6.204   3.319  11.011  0.1068 -0.3889 -0.0603
  155SAPE   C1117222   6.053   3.384  10.858  0.0038 -0.5262 -0.2356
  155SAPE  H11A17223   6.066   3.492  10.881  2.3214 -0.5369 -1.2183
  155SAPE  H11B17224   5.966   3.345  10.915 -1.4544  0.4881 -1.6517
  155SAPE     P17225   5.901   3.318  10.652 -0.5189 -0.2298 -0.4469
  155SAPE   O1317226   5.937   3.180  10.624 -0.1465 -0.1620 -0.1260
  155SAPE   O1417227   5.787   3.343  10.741  0.0530 -0.0659 -0.0179
  155SAPE   O1217228   6.037   3.377  10.717 -0.1235 -0.3087 -0.1000
  155SAPE   O1117229   5.895   3.401  10.517  0.0893  0.4298  0.3874
  155SAPE    C117230   6.001   3.382  10.425  0.2715 -0.3003  0.8587
  155SAPE    HA17231   6.084   3.318  10.461 -0.0039 -0.2567  1.5767
  155SAPE    HB17232   5.957   3.324  10.341  1.5063 -1.6378  1.1038
  155SAPE    C217233   6.072   3.518  10.384  0.1093 -0.0837  0.2275
  155SAPE    HS17234   5.988   3.584  10.356  0.2219  0.1698  0.4828
  155SAPE   O2117235   6.147   3.503  10.265  0.0570  0.5680 -0.3309
  155SAPE   C2117236   6.078   3.473  10.154  0.3966 -0.1101 -0.4405
  155SAPE   O2217237   5.960   3.464  10.146 -0.2912 -0.2971  0.3164
  155SAPE   C2217238   6.184   3.464  10.039  0.1914  0.4403  0.1016
  155SAPE   H2R17239   6.276   3.518  10.071  0.0657 -0.7154  2.6551
  155SAPE   H2S17240   6.202   3.356  10.023 -1.6504  0.2277 -0.8183
  155SAPE    C317241   6.148   3.594  10.495 -0.8155 -0.7993 -0.3571
  155SAPE    HX17242   6.229   3.527  10.530 -0.6548 -0.3850  0.0807
  155SAPE    HY17243   6.086   3.612  10.586 -1.0719  1.5789 -0.9292
  155SAPE   O3117244   6.200   3.725  10.452 -0.0950 -0.2573 -0.1011
  155SAPE   C3117245   6.318   3.716  10.387 -0.4146  0.1331  0.2946
  155SAPE   O3217246   6.397   3.628  10.398 -0.2319 -0.1763  0.3862
  155SAPE   C3217247   6.346   3.845  10.304  0.1016  0.8515 -0.0995
  155SAPE   H2X17248   6.452   3.875  10.316  0.8101 -0.3943 -2.6712
  155SAPE   H2Y17249   6.283   3.927  10.346  1.2904  0.5477  2.4473
  155SAPE   C2317250   6.126   3.534   9.917 -0.4958 -0.2914  0.1710
  155SAPE   H3R17251   6.098   3.637   9.945  2.7451  1.1900 -1.4717
  155SAPE   H3S17252   6.033   3.484   9.882 -0.4969  1.5614 -2.7321
  155SAPE   C2417253   6.210   3.546   9.788 -0.5755  0.6981  0.1199
  155SAPE   H4R17254   6.247   3.447   9.757 -1.2792 -0.0634  1.5849
  155SAPE   H4S17255   6.297   3.614   9.799 -0.0846  0.2305 -0.7498
  155SAPE   C2517256   6.122   3.604   9.682  0.5929  0.2316  0.0536
  155SAPE   H5R17257   6.121   3.714   9.694  0.9790  0.3189 -0.6367
  155SAPE   C2617258   6.063   3.548   9.570 -0.8245 -0.8798 -0.0697
  155SAPE   H6R17259   5.997   3.611   9.508 -0.7421  0.9548  1.6089
  155SAPE   C2717260   6.068   3.407   9.529  0.4696 -0.3795  0.3182
  155SAPE   H7R17261   5.965   3.368   9.544  0.3617  0.4467  1.9014
  155SAPE   H7S17262   6.130   3.340   9.592 -0.3746  1.4990  3.3643
  155SAPE   C2817263   6.115   3.410   9.386  0.8016  0.3221 -0.3687
  155SAPE   H8R17264   6.218   3.443   9.368  0.3852  1.9930  0.1309
  155SAPE   C2917265   6.034   3.399   9.272 -0.3224  0.2295 -0.6926
  155SAPE   H9R17266   6.084   3.401   9.174  0.1968 -0.1681 -0.4434
  155SAPE  C21017267   5.894   3.361   9.274  0.1652 -0.5840 -0.1382
  155SAPE  H10R17268   5.845   3.428   9.199 -0.3637 -2.0184 -1.1130
  155SAPE  H10S17269   5.854   3.383   9.376 -0.0212 -1.7500  0.0458
  155SAPE  C21117270   5.861   3.216   9.243  0.2428  0.0761  0.1909
  155SAPE  H11R17271   5.884   3.152   9.329  1.3206 -0.5959 -0.5689
  155SAPE  C21217272   5.813   3.159   9.129  0.0425  0.0109 -0.6186
  155SAPE  H12R17273   5.824   3.050   9.116  1.0264 -0.0049  0.1745
  155SAPE  C21317274   5.763   3.228   9.003 -0.4904  0.6677 -0.5627
  155SAPE  H13R17275   5.745   3.337   9.017  1.1193  1.1560 -1.9338
  155SAPE  H13S17276   5.665   3.184   8.974 -0.3641 -1.4745  1.9421
  155SAPE  C21417277   5.866   3.219   8.893 -0.5563 -0.1181 -0.0901
  155SAPE  H14R17278   5.967   3.237   8.932  0.2264 -1.0864 -1.5765
  155SAPE  C21517279   5.848   3.217   8.758  0.0651 -0.4879  0.2022
  155SAPE  H15R17280   5.935   3.222   8.691  0.0106  0.9448  0.2034
  155SAPE  C21617281   5.722   3.201   8.683 -0.4973  0.7552  0.7586
  155SAPE  H16R17282   5.634   3.238   8.740 -2.8563 -1.8368 -0.9426
  155SAPE  H16S17283   5.704   3.091   8.685  0.5831  0.5781  1.6277
  155SAPE  C21717284   5.718   3.270   8.544  0.0330  0.2145  0.1392
  155SAPE  H17R17285   5.812   3.260   8.486  1.2547 -0.7072  2.1372
  155SAPE  H17S17286   5.715   3.380   8.559  1.3385  0.5800 -1.8663
  155SAPE  C21817287   5.612   3.215   8.449  0.4510  0.5131 -0.6986
  155SAPE  H18R17288   5.509   3.222   8.490  0.4233 -1.0269 -0.4404
  155SAPE  H18S17289   5.611   3.105   8.433 -2.1010  0.3540  0.1723
  155SAPE  C21917290   5.613   3.286   8.308  0.0852  0.3599  0.4941
  155SAPE  H19R17291   5.706   3.247   8.261 -0.8181 -0.4686 -0.6867
  155SAPE  H19S17292   5.639   3.393   8.323 -0.6586  1.0786 -2.6765
  155SAPE  C22017293   5.490   3.251   8.224 -0.1779  0.4642 -0.7462
  155SAPE  H20R17294   5.399   3.270   8.284  0.0974 -3.6570  1.3409
  155SAPE  H20S17295   5.500   3.142   8.204  4.5954  0.5178  0.2125
  155SAPE  H20T17296   5.481   3.306   8.128 -1.8047 -0.2373 -1.0325
  155SAPE   C3317297   6.301   3.804  10.161 -0.0659  0.1417  0.2712
  155SAPE   H3X17298   6.204   3.750  10.164 -1.1849  2.0485 -0.2575
  155SAPE   H3Y17299   6.380   3.735  10.124 -0.7916 -0.4171 -0.2525
  155SAPE   C3417300   6.287   3.931  10.070  0.1947  0.4412  0.3868
  155SAPE   H4X17301   6.394   3.952  10.046 -0.1556 -0.7717 -2.7573
  155SAPE   H4Y17302   6.233   4.016  10.115 -0.3537  0.3234 -0.0443
  155SAPE   C3517303   6.224   3.901   9.932  0.0623  0.0157 -0.1920
  155SAPE   H5X17304   6.124   3.856   9.954  0.6016 -1.7299 -1.1145
  155SAPE   H5Y17305   6.289   3.831   9.876 -0.3098  2.2342 -3.6711
  155SAPE   C3617306   6.229   4.029   9.856  0.0259 -0.5246  0.5208
  155SAPE   H6X17307   6.323   4.085   9.878  0.9967 -2.5163  1.7709
  155SAPE   H6Y17308   6.151   4.102   9.886  0.3472 -0.0007  0.1134
  155SAPE   C3717309   6.223   4.009   9.703 -0.0318  0.9380 -0.7855
  155SAPE   H7X17310   6.122   3.972   9.674  0.1237  1.4586 -2.0322
  155SAPE   H7Y17311   6.302   3.937   9.673 -0.1926  1.1386 -1.7058
  155SAPE   C3817312   6.262   4.140   9.622  0.7905 -0.0894  0.1210
  155SAPE   H8X17313   6.352   4.182   9.672 -0.3806  2.0013  0.6136
  155SAPE   H8Y17314   6.169   4.200   9.636  0.3231 -0.6649 -0.4775
  155SAPE   C3917315   6.289   4.116   9.475  0.5150 -0.1775  0.9034
  155SAPE   H9X17316   6.216   4.045   9.431 -1.4494  1.4236  1.3997
  155SAPE   H9Y17317   6.386   4.065   9.461 -0.0488 -0.4445 -3.6012
  155SAPE  C31017318   6.295   4.245   9.396  0.0227 -0.0619  0.8546
  155SAPE  H10X17319   6.326   4.228   9.291 -0.1916  3.6297  0.0610
  155SAPE  H10Y17320   6.380   4.301   9.440  1.3359 -0.8346 -0.5964
  155SAPE  C31117321   6.163   4.323   9.412 -0.3535  0.2823 -0.5506
  155SAPE  H11X17322   6.159   4.390   9.500 -3.5021  0.0414 -0.4160
  155SAPE  H11Y17323   6.082   4.248   9.422 -1.7462  1.9841  1.5282
  155SAPE  C31217324   6.126   4.403   9.286  0.7158 -0.3168 -0.1352
  155SAPE  H12X17325   6.041   4.474   9.300  1.0135  0.0506 -0.1774
  155SAPE  H12Y17326   6.095   4.333   9.206  2.6630 -0.9210 -0.4063
  155SAPE  C31317327   6.239   4.492   9.225 -0.1921  0.6242  0.1415
  155SAPE  H13X17328   6.339   4.447   9.242  0.2644  1.2578 -0.7585
  155SAPE  H13Y17329   6.238   4.592   9.273  0.2301  0.2282  0.9945
  155SAPE  C31417330   6.223   4.507   9.070 -0.1690 -0.0875 -0.0437
  155SAPE  H14X17331   6.139   4.575   9.047  0.8438  1.9922  1.9910
  155SAPE  H14Y17332   6.211   4.403   9.032  1.7047 -0.3825  0.0365
  155SAPE  C31517333   6.347   4.569   9.002 -0.1038  0.4723 -0.4803
  155SAPE  H15X17334   6.434   4.516   9.047 -1.4860 -1.7840 -0.3298
  155SAPE  H15Y17335   6.365   4.675   9.031  1.3069  0.4041 -1.0208
  155SAPE  C31617336   6.334   4.561   8.854 -0.0297 -0.1340 -0.2604
  155SAPE  H16X17337   6.430   4.585   8.804 -0.8316  1.5120 -1.0882
  155SAPE  H16Y17338   6.256   4.631   8.817 -1.3441 -0.1891  2.1668
  155SAPE  C31717339   6.309   4.414   8.804  0.0807  0.2935 -0.2147
  155SAPE  H17X17340   6.200   4.397   8.808  0.1781 -0.3742 -0.1501
  155SAPE  H17Y17341   6.367   4.339   8.863 -0.9129  0.7318  1.3764
  155SAPE  C31817342   6.352   4.396   8.656 -0.0735 -0.0265  0.3676
  155SAPE  H18X17343   6.461   4.409   8.638 -0.2007  2.3786  1.0236
  155SAPE  H18Y17344   6.298   4.469   8.590 -4.1584 -1.2173  2.0702
  155SAPE  H18Z17345   6.323   4.297   8.616  0.9323  0.2423 -1.1273
  156SAPE     N17346   5.200   2.002  10.384  0.2053  0.8294  0.3588
  156SAPE   HN117347   5.121   1.939  10.407  0.0902  1.6147  2.3165
  156SAPE   HN217348   5.163   2.080  10.326 -0.1311 -0.9184 -1.9328
  156SAPE   HN317349   5.276   1.960  10.327 -1.8745 -1.4694 -0.9025
  156SAPE   C1217350   5.265   2.044  10.509 -0.4077 -0.5230  0.3482
  156SAPE  H12A17351   5.316   1.954  10.550 -2.0672 -0.2574  3.2588
  156SAPE  H12B17352   5.180   2.075  10.573 -1.3322  0.6363 -1.3617
  156SAPE   C1117353   5.358   2.165  10.487 -0.0856  0.2904  0.2009
  156SAPE  H11A17354   5.416   2.131  10.398 -2.5440 -1.9996 -0.6954
  156SAPE  H11B17355   5.429   2.164  10.572  1.1631 -1.8352 -0.7620
  156SAPE     P17356   5.291   2.401  10.586 -0.2972  0.8180  0.0085
  156SAPE   O1317357   5.325   2.333  10.713  0.5019 -0.1820 -0.1403
  156SAPE   O1417358   5.360   2.523  10.542 -0.7322 -0.0558  1.0184
  156SAPE   O1217359   5.288   2.290  10.474 -0.2049 -0.7137  0.6998
  156SAPE   O1117360   5.139   2.434  10.587  0.5837 -0.0344  0.0128
  156SAPE    C117361   5.031   2.373  10.520  0.0144  0.3222 -0.1152
  156SAPE    HA17362   5.060   2.266  10.509 -0.8099  0.1815 -1.0424
  156SAPE    HB17363   4.938   2.378  10.580 -0.3396  0.5879 -0.6773
  156SAPE    C217364   4.995   2.444  10.383  0.0064 -0.1009  0.0697
  156SAPE    HS17365   4.903   2.397  10.343 -1.0028  1.7475  0.1120
  156SAPE   O2117366   5.095   2.425  10.272  0.6164 -0.6960 -0.2696
  156SAPE   C2117367   5.109   2.306  10.221 -0.3384  0.2490 -0.2980
  156SAPE   O2217368   5.065   2.200  10.258  0.4273  0.3985  0.2790
  156SAPE   C2217369   5.189   2.328  10.090 -0.1701  0.3538  0.0818
  156SAPE   H2R17370   5.169   2.238  10.028  0.7760 -0.7572  1.3172
  156SAPE   H2S17371   5.150   2.421  10.046  3.3636  2.0592  0.1874
  156SAPE    C317372   4.955   2.598  10.408 -0.4450  0.3739  0.8427
  156SAPE    HX17373   5.021   2.647  10.482  0.1685  0.4383  0.2652
  156SAPE    HY17374   4.861   2.574  10.461  0.1784 -1.7875  1.0962
  156SAPE   O3117375   4.926   2.663  10.283  0.6414 -0.3931 -0.3958
  156SAPE   C3117376   5.035   2.715  10.224 -0.8844  0.2799  0.0513
  156SAPE   O3217377   5.152   2.701  10.255 -0.1465 -0.1452  0.0758
  156SAPE   C3217378   4.976   2.784  10.099 -0.1355 -0.1146  0.0285
  156SAPE   H2X17379   5.066   2.786  10.033  0.8525  1.8917  1.3399
  156SAPE   H2Y17380   4.963   2.887  10.139 -2.8578 -0.9278  1.4405
  156SAPE   C2317381   5.345   2.334  10.117  0.2014 -0.4355  0.0440
  156SAPE   H3R17382   5.386   2.242  10.164  1.3614 -0.2545 -0.5757
  156SAPE   H3S17383   5.358   2.411  10.196  0.8895 -0.6894  0.1853
  156SAPE   C2417384   5.428   2.358   9.985 -0.3100 -0.5103  0.0217
  156SAPE   H4R17385   5.443   2.266   9.926  2.4575 -1.1908  1.5953
  156SAPE   H4S17386   5.526   2.381  10.033 -0.5289  0.5999 -0.0237
  156SAPE   C2517387   5.376   2.479   9.914  0.3877  0.2296 -0.1101
  156SAPE   H5R17388   5.353   2.559   9.986 -0.8254 -0.1094 -0.0855
  156SAPE   C2617389   5.381   2.511   9.784  0.1975 -0.0274 -0.1194
  156SAPE   H6R17390   5.344   2.611   9.761  1.9491  0.9587  1.1166
  156SAPE   C2717391   5.424   2.423   9.673 -0.1835  0.7401 -0.3002
  156SAPE   H7R17392   5.430   2.323   9.722  1.5709  1.9318  2.1366
  156SAPE   H7S17393   5.531   2.438   9.646 -0.2371  0.1048 -0.8723
  156SAPE   C2817394   5.339   2.429   9.550 -0.5017 -0.4286  0.5072
  156SAPE   H8R17395   5.242   2.477   9.571  0.1246  1.0508  0.0951
  156SAPE   C2917396   5.362   2.372   9.430 -0.3858  0.4891  0.7798
  156SAPE   H9R17397   5.290   2.386   9.349  0.0926  1.8488  0.5515
  156SAPE  C21017398   5.481   2.290   9.394 -0.2558 -0.2487 -0.3346
  156SAPE  H10R17399   5.541   2.253   9.480  0.7053  0.8993 -0.4655
  156SAPE  H10S17400   5.556   2.344   9.331  1.3778 -0.7917  1.0580
  156SAPE  C21117401   5.446   2.174   9.309  0.1844  0.0273 -0.2909
  156SAPE  H11R17402   5.416   2.089   9.373 -0.7377 -0.5606 -1.4661
  156SAPE  C21217403   5.400   2.183   9.186  0.3183  0.9209  0.1018
  156SAPE  H12R17404   5.365   2.087   9.145  0.5635  0.9196 -0.1074
  156SAPE  C21317405   5.405   2.298   9.094  0.0755 -0.2643  0.7557
  156SAPE  H13R17406   5.489   2.265   9.028 -1.2357  0.7951 -1.5746
  156SAPE  H13S17407   5.427   2.395   9.143 -1.1375  0.2462  0.3167
  156SAPE  C21417408   5.287   2.319   9.004  0.1792  0.5292 -0.0914
  156SAPE  H14R17409   5.199   2.256   9.022 -0.3971  0.4394 -2.9220
  156SAPE  C21517410   5.289   2.379   8.886 -0.2994 -0.3280  0.2586
  156SAPE  H15R17411   5.197   2.398   8.829 -1.4287 -0.3370  2.0175
  156SAPE  C21617412   5.405   2.460   8.830 -0.6623  0.3446 -0.0016
  156SAPE  H16R17413   5.477   2.468   8.914 -0.8746  0.4129  0.1752
  156SAPE  H16S17414   5.372   2.562   8.801  2.5195  0.8132 -2.6259
  156SAPE  C21717415   5.476   2.405   8.703 -0.0199 -0.6222  0.1437
  156SAPE  H17R17416   5.498   2.296   8.704  0.1199 -0.6004 -0.1922
  156SAPE  H17S17417   5.577   2.450   8.691  0.3802 -1.9391 -2.1612
  156SAPE  C21817418   5.394   2.426   8.581 -0.3324 -0.7254 -0.2496
  156SAPE  H18R17419   5.360   2.531   8.579 -1.8251 -1.1417  1.2875
  156SAPE  H18S17420   5.314   2.349   8.583 -2.1832  1.1313  0.8333
  156SAPE  C21917421   5.474   2.394   8.447 -1.3797  0.7419  0.3628
  156SAPE  H19R17422   5.516   2.292   8.463 -0.8997  1.0963  1.4195
  156SAPE  H19S17423   5.561   2.463   8.446  0.4424 -1.4538 -0.7308
  156SAPE  C22017424   5.387   2.397   8.323 -0.3713 -0.0198  0.6798
  156SAPE  H20R17425   5.341   2.494   8.295  0.4100 -0.4505 -2.5807
  156SAPE  H20S17426   5.314   2.314   8.334  1.2412 -1.1318  4.7235
  156SAPE  H20T17427   5.445   2.365   8.233  0.0120  0.2053  0.8442
  156SAPE   C3317428   4.842   2.745  10.030  0.3167  0.2821 -0.1114
  156SAPE   H3X17429   4.822   2.816   9.948  2.7249 -1.4626 -2.3703
  156SAPE   H3Y17430   4.759   2.727  10.102  0.5292 -2.2729 -0.4045
  156SAPE   C3417431   4.847   2.606   9.957  0.0850  0.1091  0.5499
  156SAPE   H4X17432   4.740   2.584   9.934 -0.7732  1.4333  2.9632
  156SAPE   H4Y17433   4.872   2.525  10.029 -1.7021  0.0748  1.1749
  156SAPE   C3517434   4.925   2.585   9.825  0.0429 -0.7373  0.1640
  156SAPE   H5X17435   5.026   2.619   9.854 -0.1890 -1.2214  1.6253
  156SAPE   H5Y17436   4.900   2.642   9.733  2.9018 -0.4335 -0.5165
  156SAPE   C3617437   4.944   2.439   9.790 -0.7490 -0.2175  0.1163
  156SAPE   H6X17438   4.990   2.377   9.869 -0.3768  0.5710  0.5352
  156SAPE   H6Y17439   5.024   2.436   9.712  1.2866  0.5507  2.0749
  156SAPE   C3717440   4.825   2.357   9.740 -0.0126  0.3609  0.7910
  156SAPE   H7X17441   4.767   2.330   9.831  2.2798 -2.8027  1.4525
  156SAPE   H7Y17442   4.863   2.263   9.696  1.5165  0.9535  0.7871
  156SAPE   C3817443   4.734   2.433   9.638  0.3798 -0.1104  0.1396
  156SAPE   H8X17444   4.689   2.529   9.672 -1.5990 -1.2226  0.8897
  156SAPE   H8Y17445   4.645   2.372   9.611  0.6279 -0.0754 -0.7587
  156SAPE   C3917446   4.813   2.465   9.516 -0.1431 -0.7651  0.1412
  156SAPE   H9X17447   4.923   2.445   9.523  0.5365  2.4731  0.3924
  156SAPE   H9Y17448   4.810   2.573   9.490 -1.7108 -0.8335 -0.0243
  156SAPE  C31017449   4.734   2.420   9.386 -0.2455  0.3613  0.3205
  156SAPE  H10X17450   4.647   2.489   9.388 -0.1448  0.5109  3.2747
  156SAPE  H10Y17451   4.705   2.314   9.399  1.6798 -0.1268  0.9253
  156SAPE  C31117452   4.820   2.426   9.256 -0.8827  0.7308 -0.2930
  156SAPE  H11X17453   4.915   2.369   9.268 -1.9039 -0.9889 -0.0689
  156SAPE  H11Y17454   4.856   2.527   9.227  3.9638 -0.9298 -1.0552
  156SAPE  C31217455   4.756   2.360   9.134 -0.2173  0.6752 -0.0660
  156SAPE  H12X17456   4.723   2.263   9.176 -0.7160  1.3469  1.1414
  156SAPE  H12Y17457   4.833   2.343   9.055 -0.4594  0.8343 -0.3377
  156SAPE  C31317458   4.652   2.434   9.051 -0.5738 -0.3689 -0.1051
  156SAPE  H13X17459   4.688   2.536   9.026 -1.5045 -0.1255 -0.4819
  156SAPE  H13Y17460   4.567   2.451   9.121  0.5604  1.8739  0.8174
  156SAPE  C31417461   4.613   2.367   8.917  0.7538  0.3081  0.2502
  156SAPE  H14X17462   4.522   2.418   8.878  1.1218  1.9458  1.3960
  156SAPE  H14Y17463   4.590   2.262   8.942 -0.2775  0.3712 -0.3486
  156SAPE  C31517464   4.719   2.377   8.814 -0.0659 -0.4336  0.3134
  156SAPE  H15X17465   4.811   2.332   8.857  1.0079 -0.1792 -1.6181
  156SAPE  H15Y17466   4.741   2.485   8.795  3.5416 -0.5946  2.4770
  156SAPE  C31617467   4.694   2.304   8.681  0.2301  0.1489  0.0901
  156SAPE  H16X17468   4.614   2.362   8.630  0.9677  0.3993 -0.8134
  156SAPE  H16Y17469   4.661   2.199   8.699 -1.0860  0.6722  0.9342
  156SAPE  C31717470   4.808   2.299   8.581  0.9542  0.6409  0.3732
  156SAPE  H17X17471   4.820   2.404   8.547 -0.5507  1.0318  0.9704
  156SAPE  H17Y17472   4.767   2.238   8.498  0.7294 -0.9452  1.5965
  156SAPE  C31817473   4.941   2.242   8.632 -0.6036  0.3429 -0.7818
  156SAPE  H18X17474   4.994   2.303   8.709  0.9206 -0.1676 -1.3945
  156SAPE  H18Y17475   5.020   2.238   8.555  0.5710  0.0608  0.4138
  156SAPE  H18Z17476   4.927   2.138   8.669  1.1309 -0.4557 -2.2876
  157SAPE     N17477   2.634   1.688  10.820 -0.1499 -0.4314  0.1354
  157SAPE   HN117478   2.632   1.673  10.717  1.8419  0.5187 -0.1023
  157SAPE   HN217479   2.700   1.617  10.856  0.1642 -1.3860 -2.1694
  157SAPE   HN317480   2.538   1.664  10.852 -1.2812  2.4402 -0.7246
  157SAPE   C1217481   2.683   1.817  10.879  0.1282 -0.3712 -0.5262
  157SAPE  H12A17482   2.673   1.806  10.989 -0.4678  0.6050 -0.4724
  157SAPE  H12B17483   2.612   1.898  10.854  0.5009  0.1244 -0.0035
  157SAPE   C1117484   2.824   1.853  10.835 -0.0964 -0.3013  0.3462
  157SAPE  H11A17485   2.860   1.947  10.882 -1.2199 -1.2035  3.2395
  157SAPE  H11B17486   2.839   1.884  10.729  3.9209  0.9671  1.1212
  157SAPE     P17487   3.003   1.722  10.995 -0.0069 -0.0820 -0.3889
  157SAPE   O1317488   2.985   1.839  11.089  0.0119  0.7725 -0.2501
  157SAPE   O1417489   2.976   1.592  11.061 -0.3099 -0.4263  0.2604
  157SAPE   O1217490   2.917   1.744  10.862  0.4635  0.0714 -0.2823
  157SAPE   O1117491   3.150   1.722  10.938 -0.0393 -0.2362  0.0472
  157SAPE    C117492   3.203   1.812  10.843  0.9860 -0.5287 -0.9486
  157SAPE    HA17493   3.136   1.889  10.799  0.9989 -0.7929 -1.4427
  157SAPE    HB17494   3.284   1.867  10.894 -0.3929  2.1058 -1.3837
  157SAPE    C217495   3.256   1.737  10.716  0.5169  0.2949  0.8458
  157SAPE    HS17496   3.323   1.659  10.758 -0.4696 -0.3596  1.2417
  157SAPE   O2117497   3.321   1.832  10.632  0.1482 -0.2050  0.4389
  157SAPE   C2117498   3.428   1.786  10.571 -0.0575 -0.4369  0.2974
  157SAPE   O2217499   3.483   1.678  10.589 -0.0657  0.7215  0.4095
  157SAPE   C2217500   3.463   1.879  10.455  0.5632  0.2329 -0.1911
  157SAPE   H2R17501   3.430   1.981  10.480 -1.8544 -0.4696 -0.2934
  157SAPE   H2S17502   3.572   1.870  10.436  0.6241  0.1626  0.1692
  157SAPE    C317503   3.138   1.668  10.636  0.0702 -0.3027  0.6993
  157SAPE    HX17504   3.060   1.741  10.605 -0.7868 -1.7278 -0.5923
  157SAPE    HY17505   3.090   1.603  10.713 -0.2265 -0.9452 -0.0181
  157SAPE   O3117506   3.183   1.585  10.532  0.3962 -0.6205  0.0678
  157SAPE   C3117507   3.088   1.515  10.473 -0.2059 -0.0821  0.2574
  157SAPE   O3217508   2.967   1.517  10.497 -0.6151  0.4959 -0.0789
  157SAPE   C3217509   3.148   1.426  10.362  0.4735  0.0245 -0.0409
  157SAPE   H2X17510   3.139   1.320  10.393  0.4886  0.2669  0.8454
  157SAPE   H2Y17511   3.260   1.429  10.365  0.4550  0.7278  1.9799
  157SAPE   C2317512   3.379   1.819  10.339 -0.5671 -0.1166 -0.5378
  157SAPE   H3R17513   3.269   1.830  10.350 -0.9536 -2.9226 -0.8579
  157SAPE   H3S17514   3.398   1.710  10.331  1.5257  0.0270  1.4041
  157SAPE   C2417515   3.426   1.876  10.203 -0.0239  0.1725 -0.7698
  157SAPE   H4R17516   3.399   1.801  10.125 -1.0369 -0.3454  0.0443
  157SAPE   H4S17517   3.535   1.893  10.198  0.0060  0.5345  0.6104
  157SAPE   C2517518   3.337   1.989  10.155  0.0992  0.4242  0.0799
  157SAPE   H5R17519   3.282   2.037  10.238  2.5313 -1.8588  3.2884
  157SAPE   C2617520   3.305   2.028  10.027 -0.0773  0.0285 -0.1253
  157SAPE   H6R17521   3.233   2.111  10.016  0.1901  0.2168 -0.4663
  157SAPE   C2717522   3.367   1.965   9.899 -0.5299 -0.6275  0.5092
  157SAPE   H7R17523   3.447   1.895   9.931 -0.3082  0.5811  2.7499
  157SAPE   H7S17524   3.395   2.046   9.828 -2.6882 -0.0836  0.2030
  157SAPE   C2817525   3.258   1.899   9.826  0.3450  0.3828  0.2380
  157SAPE   H8R17526   3.247   1.793   9.854 -0.6210 -0.3756 -2.6793
  157SAPE   C2917527   3.175   1.953   9.735 -0.4760 -0.6116 -1.1937
  157SAPE   H9R17528   3.091   1.892   9.698 -0.9036 -1.2793  0.7466
  157SAPE  C21017529   3.181   2.097   9.697  0.2300  0.1239  0.7175
  157SAPE  H10R17530   3.241   2.162   9.764 -0.0542 -0.0810  1.1726
  157SAPE  H10S17531   3.080   2.140   9.710 -0.3441 -1.0856  0.3858
  157SAPE  C21117532   3.218   2.144   9.558  0.8534  0.8002  0.0889
  157SAPE  H11R17533   3.282   2.068   9.511  1.2226  0.6075  0.8907
  157SAPE  C21217534   3.175   2.249   9.486 -0.0710 -0.3773  0.1877
  157SAPE  H12R17535   3.215   2.280   9.388  1.0035  1.9715  1.2792
  157SAPE  C21317536   3.077   2.349   9.541  0.3833 -0.6589 -0.3034
  157SAPE  H13R17537   3.090   2.446   9.488 -0.0637 -0.5365 -0.1935
  157SAPE  H13S17538   3.105   2.368   9.647  0.1919 -0.5716 -0.2676
  157SAPE  C21417539   2.934   2.297   9.532 -0.3314  0.1953  0.0975
  157SAPE  H14R17540   2.906   2.227   9.452  1.5923  0.3165 -0.7431
  157SAPE  C21517541   2.829   2.328   9.608 -0.8542 -0.1549 -0.0357
  157SAPE  H15R17542   2.728   2.292   9.586 -1.6168  2.9271 -2.2800
  157SAPE  C21617543   2.841   2.421   9.726 -0.0697  0.3768 -0.0495
  157SAPE  H16R17544   2.760   2.496   9.719 -0.2984  0.2750  1.2853
  157SAPE  H16S17545   2.934   2.481   9.715  1.3525 -1.5039  1.0794
  157SAPE  C21717546   2.830   2.361   9.870 -0.6921 -0.1479 -0.9029
  157SAPE  H17R17547   2.907   2.284   9.888 -0.9004 -0.1069  0.2108
  157SAPE  H17S17548   2.730   2.311   9.871 -1.2123  0.7911  2.1172
  157SAPE  C21817549   2.864   2.463   9.973 -0.2290 -0.7592  1.4039
  157SAPE  H18R17550   2.777   2.532   9.981 -1.2138 -1.8355  0.4602
  157SAPE  H18S17551   2.945   2.525   9.928 -0.8207 -1.9582 -1.5670
  157SAPE  C21917552   2.902   2.412  10.107  0.5659  0.2835 -0.4290
  157SAPE  H19R17553   2.994   2.352  10.099  2.3004  2.6051  0.8078
  157SAPE  H19S17554   2.822   2.350  10.154  0.5704  2.3322  2.5795
  157SAPE  C22017555   2.936   2.529  10.196 -0.1288 -0.5994 -0.5019
  157SAPE  H20R17556   3.016   2.591  10.151 -1.3164  1.2126 -0.1954
  157SAPE  H20S17557   2.985   2.485  10.285  1.1905 -0.4321 -1.1239
  157SAPE  H20T17558   2.847   2.591  10.221  0.0310 -0.5730  0.0179
  157SAPE   C3317559   3.094   1.455  10.216 -0.3053  0.1132 -0.6421
  157SAPE   H3X17560   3.119   1.557  10.180  2.0797 -0.9497 -2.2928
  157SAPE   H3Y17561   2.983   1.457  10.212 -0.2984 -0.6252 -1.6992
  157SAPE   C3417562   3.144   1.365  10.109 -0.0544 -0.2896 -0.5803
  157SAPE   H4X17563   3.209   1.281  10.142 -0.9356 -1.5777 -1.9768
  157SAPE   H4Y17564   3.205   1.415  10.031  1.4987 -1.8847 -0.4614
  157SAPE   C3517565   3.021   1.297  10.048  0.3506  0.1259  0.5657
  157SAPE   H5X17566   2.964   1.237  10.122  0.8412 -2.0181 -0.7326
  157SAPE   H5Y17567   3.073   1.228   9.979 -0.4734 -1.5503  1.5600
  157SAPE   C3617568   2.927   1.383   9.969 -0.1476 -0.0239  0.4635
  157SAPE   H6X17569   2.863   1.452  10.028 -0.6584 -0.1182  0.0232
  157SAPE   H6Y17570   2.850   1.319   9.922  0.7208 -0.0234 -1.0219
  157SAPE   C3717571   2.992   1.460   9.855 -0.2600 -0.4919  0.1041
  157SAPE   H7X17572   3.083   1.412   9.814  0.2726 -0.0640  0.7800
  157SAPE   H7Y17573   3.024   1.558   9.896 -1.1368  0.1917 -0.7673
  157SAPE   C3817574   2.901   1.486   9.741 -0.5084 -1.2626  0.7639
  157SAPE   H8X17575   2.817   1.549   9.778 -1.5138 -2.1774  0.1161
  157SAPE   H8Y17576   2.853   1.391   9.711 -2.3832 -0.0299 -0.4086
  157SAPE   C3917577   2.974   1.554   9.619 -1.0819 -0.1864 -0.4025
  157SAPE   H9X17578   3.069   1.499   9.598 -1.1293 -0.5764  0.3644
  157SAPE   H9Y17579   3.005   1.656   9.648  1.4972 -1.1593  0.5582
  157SAPE  C31017580   2.891   1.569   9.489 -0.3591  0.2294  0.1288
  157SAPE  H10X17581   2.786   1.593   9.518 -0.4120  0.7972 -0.5166
  157SAPE  H10Y17582   2.891   1.471   9.437 -0.7903 -0.0748  0.6849
  157SAPE  C31117583   2.937   1.669   9.385 -0.0073 -0.0700 -0.4159
  157SAPE  H11X17584   3.037   1.652   9.341  0.8628  1.4280  0.8460
  157SAPE  H11Y17585   2.951   1.771   9.428  0.8289  0.5850 -2.1079
  157SAPE  C31217586   2.834   1.683   9.274 -0.1332  0.0544  0.0521
  157SAPE  H12X17587   2.735   1.708   9.317 -1.1652 -0.1506 -2.0846
  157SAPE  H12Y17588   2.829   1.584   9.223 -0.8951  1.3826 -2.6797
  157SAPE  C31317589   2.879   1.784   9.172 -0.8173  0.0587 -0.5473
  157SAPE  H13X17590   2.841   1.748   9.074  1.2831 -0.1325 -1.3389
  157SAPE  H13Y17591   2.990   1.781   9.179 -0.8006  0.6881 -0.4847
  157SAPE  C31417592   2.819   1.924   9.199  0.1753 -0.1594 -0.3085
  157SAPE  H14X17593   2.841   1.960   9.302 -1.8962  2.0349 -0.5578
  157SAPE  H14Y17594   2.709   1.923   9.190  0.2996  1.4681 -3.1364
  157SAPE  C31517595   2.876   2.025   9.101 -0.3925 -0.6433  0.0685
  157SAPE  H15X17596   2.802   2.031   9.018 -0.8315 -0.4848  0.4654
  157SAPE  H15Y17597   2.972   1.988   9.060 -0.6622 -2.1593  0.7319
  157SAPE  C31617598   2.897   2.171   9.162  0.1981  0.5708 -0.3742
  157SAPE  H16X17599   2.968   2.153   9.246 -2.1921 -5.6724  0.8524
  157SAPE  H16Y17600   2.804   2.211   9.210 -0.2172 -0.5500 -0.2204
  157SAPE  C31717601   2.949   2.267   9.054  0.4665 -0.3297 -0.4619
  157SAPE  H17X17602   2.877   2.269   8.970 -2.1702  0.1175  1.6897
  157SAPE  H17Y17603   3.051   2.240   9.019  0.7283  0.0068  0.0287
  157SAPE  C31817604   2.959   2.418   9.103 -0.0276  0.5752 -0.3624
  157SAPE  H18X17605   3.021   2.433   9.194 -1.1335  1.7981  0.2253
  157SAPE  H18Y17606   2.855   2.453   9.115 -0.1832  0.7592 -1.9955
  157SAPE  H18Z17607   2.996   2.487   9.024 -0.0788  0.7811 -0.2065
  158SAPE     N17608   4.555   3.566  10.981  0.3459 -0.8238 -0.2422
  158SAPE   HN117609   4.512   3.603  10.894  0.8545  1.6960  0.5019
  158SAPE   HN217610   4.551   3.464  10.962  0.5262 -1.0152  0.7202
  158SAPE   HN317611   4.496   3.592  11.063  1.4022  0.3845  0.1691
  158SAPE   C1217612   4.690   3.621  11.004  0.2149  0.3468  0.0035
  158SAPE  H12A17613   4.740   3.617  10.905  0.5240 -0.1225  0.1799
  158SAPE  H12B17614   4.752   3.551  11.064  0.5953  0.4273 -0.2959
  158SAPE   C1117615   4.682   3.771  11.059 -0.9580  0.1586  0.3827
  158SAPE  H11A17616   4.778   3.827  11.060 -0.8898  0.0865 -0.7447
  158SAPE  H11B17617   4.651   3.765  11.166 -0.3514 -0.4574  0.5344
  158SAPE     P17618   4.489   3.955  11.055  0.1263 -0.0393  0.4072
  158SAPE   O1317619   4.356   3.896  11.082 -0.1015  0.2781  0.0649
  158SAPE   O1417620   4.561   4.012  11.170  0.3361 -0.3703 -0.1115
  158SAPE   O1217621   4.589   3.844  10.993  0.2294 -0.1780  0.0930
  158SAPE   O1117622   4.483   4.055  10.935 -0.3660 -0.4218  0.2542
  158SAPE    C117623   4.570   4.065  10.820 -0.1195  0.2893 -0.1945
  158SAPE    HA17624   4.579   4.174  10.798  1.1835  0.1948 -0.2151
  158SAPE    HB17625   4.671   4.021  10.837  0.6779  2.6155  1.7372
  158SAPE    C217626   4.501   4.005  10.698  0.1878 -0.0682 -0.2689
  158SAPE    HS17627   4.495   3.895  10.715  2.4246  0.1065  2.3225
  158SAPE   O2117628   4.582   4.032  10.580 -0.2891 -0.9885  0.2962
  158SAPE   C2117629   4.651   3.924  10.533 -0.2393  0.1033  0.3947
  158SAPE   O2217630   4.684   3.826  10.601 -0.4436  0.2026 -0.2875
  158SAPE   C2217631   4.691   3.942  10.389  0.0724 -0.6258 -0.1670
  158SAPE   H2R17632   4.740   4.040  10.374  2.6464 -1.7437  0.1836
  158SAPE   H2S17633   4.758   3.860  10.354  1.6780  0.4004  0.4003
  158SAPE    C317634   4.358   4.060  10.669 -0.0448  0.2847  0.1888
  158SAPE    HX17635   4.371   4.170  10.684  0.1855  0.3023 -0.1319
  158SAPE    HY17636   4.295   4.019  10.751 -0.7092  0.1445 -0.3900
  158SAPE   O3117637   4.315   4.032  10.536  0.4468 -0.0391  0.1163
  158SAPE   C3117638   4.184   3.997  10.526 -0.7640  0.1125  0.0448
  158SAPE   O3217639   4.105   3.972  10.613 -0.0378  0.2330 -0.1013
  158SAPE   C3217640   4.155   3.985  10.382  0.3094  0.0574  0.2507
  158SAPE   H2X17641   4.194   3.886  10.349 -1.0075 -0.2770 -0.3886
  158SAPE   H2Y17642   4.207   4.066  10.326 -0.4289 -0.4796 -1.2795
  158SAPE   C2317643   4.561   3.933  10.296 -0.6430  0.1589 -0.4902
  158SAPE   H3R17644   4.589   3.980  10.200  0.1833 -0.2138 -0.4456
  158SAPE   H3S17645   4.471   3.990  10.327 -1.4492 -0.1102 -2.2356
  158SAPE   C2417646   4.513   3.786  10.270  0.5599  0.0166  0.0873
  158SAPE   H4R17647   4.483   3.736  10.364  1.1996 -0.5131  0.0164
  158SAPE   H4S17648   4.605   3.731  10.240  0.7275  0.2118  0.2420
  158SAPE   C2517649   4.413   3.773  10.152  0.3597 -0.7039  0.0431
  158SAPE   H5R17650   4.306   3.757  10.173 -0.3628  3.1372  0.0292
  158SAPE   C2617651   4.442   3.756  10.025  0.2251 -0.8111 -0.3889
  158SAPE   H6R17652   4.360   3.730   9.956  0.6294  0.4732 -1.3973
  158SAPE   C2717653   4.580   3.765   9.958  0.3065 -0.2790 -0.3783
  158SAPE   H7R17654   4.645   3.827  10.022  1.7640 -1.0075 -1.1180
  158SAPE   H7S17655   4.559   3.827   9.868  0.1885  3.0292  1.7537
  158SAPE   C2817656   4.626   3.624   9.928 -0.0268  0.6105  0.0824
  158SAPE   H8R17657   4.633   3.566  10.021 -1.4520  0.8403  0.3561
  158SAPE   C2917658   4.643   3.578   9.803  0.3321  0.4437  0.1343
  158SAPE   H9R17659   4.666   3.471   9.798 -0.6769 -0.3277  5.6257
  158SAPE  C21017660   4.637   3.662   9.674  0.1015  0.4170  0.2289
  158SAPE  H10R17661   4.710   3.745   9.679  0.1935  0.3746 -0.3793
  158SAPE  H10S17662   4.540   3.715   9.665  0.4263  1.0100  0.1981
  158SAPE  C21117663   4.649   3.578   9.551  0.5037 -0.7324  0.8194
  158SAPE  H11R17664   4.570   3.501   9.547 -0.4203  0.2352 -1.0747
  158SAPE  C21217665   4.730   3.592   9.442  0.0344  0.1207 -0.1056
  158SAPE  H12R17666   4.704   3.522   9.361 -1.3363 -1.4206  1.5750
  158SAPE  C21317667   4.831   3.703   9.414  0.2970 -0.1407  0.1400
  158SAPE  H13R17668   4.854   3.757   9.508 -2.4583 -0.8149  1.2997
  158SAPE  H13S17669   4.782   3.775   9.345 -0.7208 -1.4028 -0.5100
  158SAPE  C21417670   4.955   3.653   9.338  0.4364 -0.3868  0.2550
  158SAPE  H14R17671   4.919   3.587   9.257 -0.5302 -0.4966  0.7635
  158SAPE  C21517672   5.086   3.683   9.346  0.3438  0.1212 -0.7180
  158SAPE  H15R17673   5.155   3.635   9.276  0.6329 -1.3322  0.5141
  158SAPE  C21617674   5.140   3.779   9.445 -0.7581  0.2431  0.6536
  158SAPE  H16R17675   5.070   3.863   9.464 -1.7683 -0.8589  1.9879
  158SAPE  H16S17676   5.229   3.826   9.397  0.9420 -2.3308  1.0545
  158SAPE  C21717677   5.169   3.706   9.576  0.1986 -0.8365 -0.0656
  158SAPE  H17R17678   5.214   3.607   9.557  2.4382  0.2039 -0.5525
  158SAPE  H17S17679   5.072   3.700   9.629 -0.1993  0.0229 -0.6588
  158SAPE  C21817680   5.260   3.785   9.664  0.2292 -0.3576 -1.2677
  158SAPE  H18R17681   5.220   3.883   9.697 -2.4004 -1.7009 -0.1056
  158SAPE  H18S17682   5.352   3.801   9.605  0.2387  2.3432 -0.6588
  158SAPE  C21917683   5.287   3.702   9.793 -0.1042 -0.6787 -0.0392
  158SAPE  H19R17684   5.317   3.599   9.763 -1.0953 -0.6836 -1.0850
  158SAPE  H19S17685   5.197   3.700   9.859  1.3145 -0.2674  2.0116
  158SAPE  C22017686   5.398   3.779   9.870  0.6163  0.1467  0.2894
  158SAPE  H20R17687   5.353   3.871   9.912  1.8980  1.4694 -1.1340
  158SAPE  H20S17688   5.477   3.818   9.803  0.0250  2.4291  0.8537
  158SAPE  H20T17689   5.440   3.712   9.950 -0.7249 -2.1701 -0.8394
  158SAPE   C3317690   3.998   3.986  10.348  0.2361  0.5381 -0.6940
  158SAPE   H3X17691   3.960   4.074  10.403  2.6752  1.6987 -0.7431
  158SAPE   H3Y17692   3.957   3.890  10.387  2.5232  0.0999  0.8860
  158SAPE   C3417693   3.969   4.001  10.198 -0.8568  0.6960  0.4051
  158SAPE   H4X17694   4.002   4.098  10.156 -1.4866  1.7401  2.1837
  158SAPE   H4Y17695   3.859   4.003  10.183 -0.9948  1.8954  1.3920
  158SAPE   C3517696   4.035   3.896  10.111 -0.6120  0.7280 -0.2735
  158SAPE   H5X17697   4.022   3.796  10.156 -0.5399  0.3504 -1.0674
  158SAPE   H5Y17698   4.144   3.919  10.110 -0.3196 -0.4756  1.3035
  158SAPE   C3617699   3.982   3.897   9.972  0.6780 -0.5998 -0.0370
  158SAPE   H6X17700   4.018   3.995   9.934  0.3343 -0.0331  1.0459
  158SAPE   H6Y17701   3.871   3.907   9.970  0.7841  0.6512 -2.0059
  158SAPE   C3717702   4.012   3.779   9.879  0.1281  0.0773  0.3362
  158SAPE   H7X17703   3.964   3.685   9.913  0.0984 -0.1293 -0.2583
  158SAPE   H7Y17704   4.116   3.760   9.845  0.1109  1.2533 -0.4561
  158SAPE   C3817705   3.946   3.800   9.736  0.1670  0.2315 -1.1656
  158SAPE   H8X17706   3.985   3.892   9.688 -0.3207  0.5949 -0.8736
  158SAPE   H8Y17707   3.836   3.813   9.739  0.2059  0.3960  0.4698
  158SAPE   C3917708   3.977   3.685   9.643 -0.4356  0.2687  0.0411
  158SAPE   H9X17709   3.944   3.594   9.697  1.6681 -0.7958 -0.3421
  158SAPE   H9Y17710   4.086   3.677   9.620 -0.3295 -0.1766  0.6763
  158SAPE  C31017711   3.906   3.711   9.513  0.0386 -0.1763 -0.4104
  158SAPE  H10X17712   3.932   3.812   9.474  1.0219 -1.0053 -2.0545
  158SAPE  H10Y17713   3.796   3.702   9.521  0.1028 -2.1006 -1.0348
  158SAPE  C31117714   3.935   3.597   9.413  0.7830  0.4135  0.4847
  158SAPE  H11X17715   3.901   3.497   9.447  2.3734 -0.5746 -0.7000
  158SAPE  H11Y17716   4.045   3.583   9.411  0.8622  0.7503  1.4775
  158SAPE  C31217717   3.878   3.627   9.278  0.8318  0.4184  0.2367
  158SAPE  H12X17718   3.891   3.731   9.245  0.7435  0.3519 -0.0066
  158SAPE  H12Y17719   3.769   3.608   9.280  0.5705  1.6979 -0.9817
  158SAPE  C31317720   3.952   3.547   9.171 -0.2154  0.5323 -0.1346
  158SAPE  H13X17721   3.940   3.438   9.191 -1.2143  0.8144  0.9502
  158SAPE  H13Y17722   4.063   3.555   9.164 -0.1322 -1.1016 -1.2549
  158SAPE  C31417723   3.910   3.580   9.021 -0.7373 -0.0032  0.1723
  158SAPE  H14X17724   3.971   3.508   8.962  2.2810 -0.1867  3.2079
  158SAPE  H14Y17725   3.941   3.685   9.003  1.9429 -0.7725 -0.1519
  158SAPE  C31517726   3.760   3.556   8.991 -0.0509  0.2056 -0.3020
  158SAPE  H15X17727   3.708   3.611   9.073 -0.7992 -1.3542  0.3156
  158SAPE  H15Y17728   3.739   3.450   9.019  0.4750  0.2637  0.3374
  158SAPE  C31617729   3.724   3.595   8.847 -0.0222  0.3303  0.1557
  158SAPE  H16X17730   3.786   3.528   8.783  0.2246 -0.8354  1.5417
  158SAPE  H16Y17731   3.759   3.696   8.821  0.3441  0.0541 -0.4315
  158SAPE  C31717732   3.574   3.564   8.812 -0.0467  0.3938  0.4835
  158SAPE  H17X17733   3.519   3.654   8.846 -0.5976  0.7308 -1.2161
  158SAPE  H17Y17734   3.539   3.476   8.869  3.4547 -1.0115  0.7264
  158SAPE  C31817735   3.543   3.540   8.665 -0.3920 -0.0164 -0.0672
  158SAPE  H18X17736   3.447   3.486   8.651 -0.9678  0.0338  3.1317
  158SAPE  H18Y17737   3.628   3.480   8.625 -0.3200  0.2168 -0.2659
  158SAPE  H18Z17738   3.552   3.636   8.610 -0.0343  1.1544  1.9605
  159SAPE     N17739   4.024   0.844   5.972  0.4225  0.1349  0.5169
  159SAPE   HN117740   4.008   0.799   5.879  2.4943  3.7877 -1.8866
  159SAPE   HN217741   4.113   0.811   6.014  1.5676  2.5438  0.1487
  159SAPE   HN317742   3.948   0.829   6.040  0.9975  2.0506  1.6537
  159SAPE   C1217743   4.043   0.990   5.965  0.5163  0.8546 -0.2603
  159SAPE  H12A17744   3.962   1.037   5.905  1.1308 -0.5979 -2.3672
  159SAPE  H12B17745   4.135   1.000   5.904  0.2556  1.0474 -0.6313
  159SAPE   C1117746   4.062   1.050   6.102 -0.0705 -0.1056 -0.0878
  159SAPE  H11A17747   4.122   1.143   6.091  1.4917 -1.0636  0.0135
  159SAPE  H11B17748   4.133   0.993   6.166  1.7938  0.4543 -1.5686
  159SAPE     P17749   3.933   1.121   6.310 -0.1151 -0.2736  0.4107
  159SAPE   O1317750   3.954   1.266   6.323  0.2922  0.3012 -0.4732
  159SAPE   O1417751   3.815   1.057   6.368 -0.6309 -0.3472 -0.5423
  159SAPE   O1217752   3.937   1.070   6.161  0.3128  0.4114 -0.0482
  159SAPE   O1117753   4.072   1.055   6.367 -0.0688 -0.0705  0.2905
  159SAPE    C117754   4.074   0.919   6.418 -0.1535 -1.2740 -0.3452
  159SAPE    HA17755   4.005   0.851   6.363 -2.4058  0.9089 -0.4005
  159SAPE    HB17756   4.179   0.886   6.430  0.6825  1.0523 -0.8120
  159SAPE    C217757   4.013   0.921   6.565  0.1810  0.6537  0.6748
  159SAPE    HS17758   3.903   0.918   6.548  0.1743 -0.3714  0.8142
  159SAPE   O2117759   4.068   1.029   6.637 -0.2058  0.1661  0.3397
  159SAPE   C2117760   3.983   1.106   6.690  0.0444 -0.4912 -0.0642
  159SAPE   O2217761   3.863   1.079   6.697 -0.4228  0.3150  0.2509
  159SAPE   C2217762   4.050   1.241   6.721 -0.2181  0.1163  0.5528
  159SAPE   H2R17763   4.154   1.214   6.750 -0.2597 -0.7465 -0.0528
  159SAPE   H2S17764   4.055   1.288   6.621 -0.4075 -2.0044 -0.5029
  159SAPE    C317765   4.047   0.782   6.643 -0.1781 -0.4665 -0.0079
  159SAPE    HX17766   4.155   0.760   6.628 -0.4753 -1.8683 -0.1808
  159SAPE    HY17767   3.985   0.703   6.596 -3.9944  1.2507  1.6805
  159SAPE   O3117768   4.025   0.786   6.784 -0.4969  0.5740 -0.1172
  159SAPE   C3117769   3.896   0.808   6.816  0.2922 -0.1365 -0.1296
  159SAPE   O3217770   3.805   0.797   6.741  0.1042 -0.2886  0.3058
  159SAPE   C3217771   3.879   0.847   6.959  0.1610 -1.0122 -0.0957
  159SAPE   H2X17772   3.861   0.957   6.959 -0.8516 -1.1569  0.4421
  159SAPE   H2Y17773   3.972   0.816   7.012 -0.7267 -1.2466  1.3999
  159SAPE   C2317774   3.987   1.335   6.830 -0.7208  0.5899  1.2727
  159SAPE   H3R17775   3.891   1.373   6.789 -0.5194 -0.2930 -0.1044
  159SAPE   H3S17776   4.056   1.421   6.842  1.7772 -1.0145 -0.5099
  159SAPE   C2417777   3.971   1.264   6.969 -0.3258 -0.4125 -0.7836
  159SAPE   H4R17778   3.886   1.193   6.961 -0.3060 -0.4891 -0.3371
  159SAPE   H4S17779   3.929   1.340   7.039 -0.5313 -1.5118  0.3283
  159SAPE   C2517780   4.104   1.208   7.020  0.8088  0.4995 -0.5336
  159SAPE   H5R17781   4.130   1.104   6.994  1.2596  0.6449 -0.6882
  159SAPE   C2617782   4.187   1.285   7.095  0.3875  0.3843 -0.3868
  159SAPE   H6R17783   4.285   1.244   7.122  0.7625  1.2635 -0.3842
  159SAPE   C2717784   4.164   1.424   7.132 -0.5170 -0.1621 -0.3312
  159SAPE   H7R17785   4.093   1.434   7.217  0.1407  0.4874  0.1586
  159SAPE   H7S17786   4.112   1.470   7.045 -0.8656 -1.1196 -0.6392
  159SAPE   C2817787   4.289   1.506   7.171  0.0464  1.4267 -1.0581
  159SAPE   H8R17788   4.349   1.541   7.086 -1.9295  0.7285 -2.8418
  159SAPE   C2917789   4.334   1.507   7.303  0.5597 -0.3351 -0.3359
  159SAPE   H9R17790   4.424   1.566   7.326  0.6659 -1.2367  1.7052
  159SAPE  C21017791   4.265   1.460   7.428 -0.4992  0.4277  0.5013
  159SAPE  H10R17792   4.156   1.456   7.408 -0.2874 -0.4306 -0.5512
  159SAPE  H10S17793   4.291   1.542   7.500  2.0522 -0.3214  0.5391
  159SAPE  C21117794   4.312   1.320   7.470 -0.4348 -0.5690 -0.0903
  159SAPE  H11R17795   4.310   1.252   7.383 -1.8911  1.3536 -1.6788
  159SAPE  C21217796   4.353   1.287   7.596 -0.9995  0.0742  0.1824
  159SAPE  H12R17797   4.380   1.180   7.595 -0.5094  0.1564  1.5209
  159SAPE  C21317798   4.348   1.348   7.732  0.1281 -0.1966 -0.2153
  159SAPE  H13R17799   4.374   1.455   7.720 -0.4782 -0.1524 -1.2025
  159SAPE  H13S17800   4.437   1.302   7.780  1.3046  1.0633 -1.1057
  159SAPE  C21417801   4.217   1.320   7.801 -0.2067 -0.2803 -0.1021
  159SAPE  H14R17802   4.156   1.245   7.749  1.9171 -1.9506 -0.2752
  159SAPE  C21517803   4.178   1.384   7.917 -0.6488 -0.0594 -0.3628
  159SAPE  H15R17804   4.080   1.355   7.959 -0.2390  1.2619  1.6579
  159SAPE  C21617805   4.271   1.465   8.008 -0.5873 -0.4367  1.2797
  159SAPE  H16R17806   4.264   1.574   7.988  0.6318 -0.0550  2.7147
  159SAPE  H16S17807   4.379   1.449   7.989 -0.9550  0.1364 -1.7355
  159SAPE  C21717808   4.265   1.429   8.161  0.2328 -0.3678 -0.4693
  159SAPE  H17R17809   4.169   1.464   8.204  0.2569  1.4130 -1.7902
  159SAPE  H17S17810   4.343   1.493   8.208 -1.8168  1.2810  0.8565
  159SAPE  C21817811   4.296   1.285   8.188 -0.5387 -0.1656  0.3716
  159SAPE  H18R17812   4.370   1.243   8.117 -1.9598  0.4493 -1.5397
  159SAPE  H18S17813   4.202   1.230   8.167 -0.6558 -0.0438  0.5698
  159SAPE  C21917814   4.329   1.265   8.329 -0.7531 -0.4385 -0.4982
  159SAPE  H19R17815   4.324   1.155   8.345 -0.6673 -0.5428 -1.1728
  159SAPE  H19S17816   4.250   1.317   8.388 -0.7130  1.4975 -2.0497
  159SAPE  C22017817   4.469   1.310   8.376 -0.0370 -0.2699 -0.2863
  159SAPE  H20R17818   4.476   1.315   8.487  0.2743 -1.1162 -0.2630
  159SAPE  H20S17819   4.497   1.405   8.327 -0.7270 -0.3058 -0.7601
  159SAPE  H20T17820   4.548   1.239   8.345 -0.1056 -0.1820 -0.6624
  159SAPE   C3317821   3.752   0.777   7.018 -0.5824 -0.2640 -0.1476
  159SAPE   H3X17822   3.773   0.668   7.012 -1.7958 -0.5503  0.5658
  159SAPE   H3Y17823   3.667   0.816   6.959  1.1654  1.8573 -1.4218
  159SAPE   C3417824   3.722   0.815   7.164 -0.3306  0.7284 -0.1516
  159SAPE   H4X17825   3.612   0.831   7.169 -0.7890 -1.7620 -0.8533
  159SAPE   H4Y17826   3.773   0.912   7.180  0.2359  0.1230  2.1636
  159SAPE   C3517827   3.775   0.702   7.259 -0.7551  0.6716  0.3311
  159SAPE   H5X17828   3.883   0.696   7.236 -0.9347  1.6847 -0.8302
  159SAPE   H5Y17829   3.733   0.606   7.223  0.1219  1.3176 -2.6718
  159SAPE   C3617830   3.744   0.729   7.405  0.4320  0.0956 -0.8465
  159SAPE   H6X17831   3.634   0.720   7.413  0.2025 -0.1946 -3.5256
  159SAPE   H6Y17832   3.774   0.835   7.420  0.7505  0.0052 -0.8368
  159SAPE   C3717833   3.814   0.632   7.503 -0.1387  0.8260  0.1511
  159SAPE   H7X17834   3.915   0.594   7.475  0.2897  0.1637  2.3906
  159SAPE   H7Y17835   3.751   0.541   7.512 -0.0184  0.6120 -1.0028
  159SAPE   C3817836   3.850   0.686   7.649  0.2134 -0.4504  0.6310
  159SAPE   H8X17837   3.750   0.690   7.697 -0.8226 -3.0806 -1.0958
  159SAPE   H8Y17838   3.903   0.783   7.654 -1.2940  0.3704  1.2866
  159SAPE   C3917839   3.930   0.595   7.738 -0.6123  0.2150 -0.3398
  159SAPE   H9X17840   4.035   0.568   7.714 -1.9332 -3.8109 -2.6155
  159SAPE   H9Y17841   3.891   0.491   7.726 -0.4361  0.4219 -3.3180
  159SAPE  C31017842   3.925   0.646   7.886  0.3097  0.7349 -0.2554
  159SAPE  H10X17843   3.823   0.637   7.928  0.7295  3.0645  1.4308
  159SAPE  H10Y17844   3.955   0.752   7.893  0.1628  0.7679 -0.1211
  159SAPE  C31117845   4.020   0.563   7.982 -0.3994  0.1503  0.1682
  159SAPE  H11X17846   4.128   0.573   7.955 -0.9249  1.1822 -1.7230
  159SAPE  H11Y17847   4.006   0.453   7.980  0.6309 -0.0304  1.3321
  159SAPE  C31217848   3.994   0.610   8.131  0.1536  0.1393 -0.4065
  159SAPE  H12X17849   3.899   0.569   8.170 -0.3875  1.3258 -0.4348
  159SAPE  H12Y17850   3.978   0.720   8.137 -1.0639 -0.0584  0.1995
  159SAPE  C31317851   4.100   0.555   8.230 -0.4173  0.1037  0.3560
  159SAPE  H13X17852   4.200   0.536   8.186 -0.2536 -1.0327  1.1834
  159SAPE  H13Y17853   4.071   0.452   8.261 -1.1153 -0.1728 -1.1095
  159SAPE  C31417854   4.113   0.649   8.354 -0.4785 -0.3915  0.3692
  159SAPE  H14X17855   4.160   0.746   8.325 -1.0883 -0.3416 -0.4885
  159SAPE  H14Y17856   4.174   0.609   8.437 -3.3419  0.7683  3.2610
  159SAPE  C31517857   3.993   0.694   8.436 -0.2349  1.4483  0.1391
  159SAPE  H15X17858   3.913   0.740   8.374  0.7681  0.3901 -2.0450
  159SAPE  H15Y17859   4.026   0.778   8.502 -1.0363  0.8459  1.3534
  159SAPE  C31617860   3.934   0.585   8.534  0.1133  0.7096  0.2479
  159SAPE  H16X17861   3.931   0.489   8.478  1.1799  1.5792 -1.3718
  159SAPE  H16Y17862   3.827   0.600   8.560 -0.4812 -0.3464 -1.4116
  159SAPE  C31717863   4.013   0.575   8.665  0.1122  0.6436 -0.5266
  159SAPE  H17X17864   3.980   0.662   8.725 -0.3783 -0.3648  0.7106
  159SAPE  H17Y17865   4.117   0.588   8.629 -0.7516  0.3622 -3.3509
  159SAPE  C31817866   4.002   0.441   8.740 -0.4979 -0.8850 -0.1135
  159SAPE  H18X17867   4.059   0.446   8.836  0.5757 -0.3953 -0.7556
  159SAPE  H18Y17868   4.057   0.366   8.679 -0.2013  1.2798 -2.7143
  159SAPE  H18Z17869   3.901   0.398   8.757 -1.8426  0.7792 -3.0486
  160SAPE     N17870   1.935   0.208   6.651 -0.0900 -0.1912 -0.2789
  160SAPE   HN117871   1.937   0.257   6.743  0.1636  1.8580 -1.3185
  160SAPE   HN217872   1.852   0.235   6.593 -0.3153  0.4089  0.3082
  160SAPE   HN317873   1.931   0.105   6.667 -2.5550 -0.0782  0.2659
  160SAPE   C1217874   2.059   0.242   6.569  0.1468 -0.5860  0.3876
  160SAPE  H12A17875   2.070   0.351   6.553  1.0878 -0.5487  1.1864
  160SAPE  H12B17876   2.042   0.196   6.469  1.0029  1.8022 -0.9239
  160SAPE   C1117877   2.178   0.199   6.652 -0.1532  0.5785 -0.3012
  160SAPE  H11A17878   2.165   0.097   6.692 -0.2346 -0.1737 -2.1322
  160SAPE  H11B17879   2.187   0.265   6.741 -1.9722  0.8930 -0.3065
  160SAPE     P17880   2.366   0.336   6.557  0.1207  0.1719  0.0829
  160SAPE   O1317881   2.512   0.337   6.563 -0.3410 -0.2499 -0.1637
  160SAPE   O1417882   2.303   0.380   6.431  0.2742 -0.5261  0.1184
  160SAPE   O1217883   2.301   0.196   6.579  0.3454  0.0125  0.0974
  160SAPE   O1117884   2.314   0.424   6.675 -0.4020 -0.1581  0.3276
  160SAPE    C117885   2.383   0.544   6.694 -0.2485  0.4422  0.4480
  160SAPE    HA17886   2.480   0.559   6.642 -1.0345  1.7803 -0.7233
  160SAPE    HB17887   2.329   0.630   6.648 -0.5300  1.3607  2.4222
  160SAPE    C217888   2.399   0.573   6.845  0.4832  0.7102  1.6498
  160SAPE    HS17889   2.450   0.672   6.849 -0.8986  1.6081 -0.8455
  160SAPE   O2117890   2.477   0.472   6.910  0.3657  0.3722 -0.0731
  160SAPE   C2117891   2.607   0.459   6.874 -0.3670 -0.3156 -0.4562
  160SAPE   O2217892   2.669   0.538   6.801 -0.0099  0.2376 -0.4150
  160SAPE   C2217893   2.660   0.332   6.938 -0.7503 -0.3272 -0.4615
  160SAPE   H2R17894   2.603   0.313   7.032  2.6001 -5.6508  0.9494
  160SAPE   H2S17895   2.637   0.253   6.862  1.2425 -0.5041 -0.9411
  160SAPE    C317896   2.258   0.578   6.912  0.2456  0.1872 -0.6592
  160SAPE    HX17897   2.219   0.474   6.906 -1.9452  0.9121  0.2276
  160SAPE    HY17898   2.193   0.648   6.854 -1.0055  0.3381  0.8766
  160SAPE   O3117899   2.267   0.619   7.051  0.0545  0.0223 -0.2165
  160SAPE   C3117900   2.183   0.560   7.130  0.0848 -0.4106  0.2018
  160SAPE   O3217901   2.095   0.480   7.094  0.4538 -0.1158 -0.1363
  160SAPE   C3217902   2.223   0.586   7.276  0.6862  0.1380 -0.3178
  160SAPE   H2X17903   2.165   0.678   7.298 -1.0457 -0.8181 -0.6632
  160SAPE   H2Y17904   2.334   0.588   7.276  0.7547 -0.5991  1.9145
  160SAPE   C2317905   2.816   0.321   6.970 -0.0488 -0.4368  0.1958
  160SAPE   H3R17906   2.833   0.360   7.072  1.9220 -2.7587  0.8606
  160SAPE   H3S17907   2.875   0.376   6.894  0.2673  1.0430  1.4672
  160SAPE   C2417908   2.866   0.174   6.970  0.0228 -0.3837 -0.1251
  160SAPE   H4R17909   2.976   0.162   6.966  0.2617  0.4146  2.5276
  160SAPE   H4S17910   2.822   0.125   6.879 -1.7235 -0.1678  0.5618
  160SAPE   C2517911   2.807   0.103   7.089  0.3147 -0.1671 -0.2139
  160SAPE   H5R17912   2.702   0.076   7.075 -0.9774  3.5874  1.2131
  160SAPE   C2617913   2.866   0.077   7.208  0.7746 -0.2297  0.3648
  160SAPE   H6R17914   2.796   0.058   7.290 -0.1257  0.0898 -0.3044
  160SAPE   C2717915   3.004   0.110   7.256 -0.1125  0.2118  0.3092
  160SAPE   H7R17916   2.988   0.150   7.359  0.7463  3.0554 -0.5812
  160SAPE   H7S17917   3.028   0.205   7.205 -0.7997  0.6615  0.8003
  160SAPE   C2817918   3.106  -0.001   7.238  0.0545 -0.7255 -0.1621
  160SAPE   H8R17919   3.100  -0.041   7.136 -1.2838  1.9813 -1.2534
  160SAPE   C2917920   3.214  -0.014   7.300  0.5036 -0.3109 -0.8293
  160SAPE   H9R17921   3.272  -0.107   7.290  1.0085 -0.5146  2.6291
  160SAPE  C21017922   3.245   0.047   7.438 -0.9983  0.2471  0.0583
  160SAPE  H10R17923   3.167   0.118   7.472  1.0197  2.3595  0.5633
  160SAPE  H10S17924   3.336   0.109   7.429 -0.0565 -0.7854  1.8387
  160SAPE  C21117925   3.293  -0.045   7.558 -0.5838  0.1289  0.7000
  160SAPE  H11R17926   3.364  -0.124   7.529 -3.2386 -1.1947 -2.8322
  160SAPE  C21217927   3.248  -0.054   7.684  0.0154 -0.5472 -0.4519
  160SAPE  H12R17928   3.296  -0.126   7.751 -3.0510 -0.4636  2.1025
  160SAPE  C21317929   3.138   0.027   7.745  0.0187  0.1657  0.3038
  160SAPE  H13R17930   3.055  -0.046   7.757 -0.6242  0.4012 -2.0960
  160SAPE  H13S17931   3.105   0.102   7.669 -2.3262 -0.0560  1.0280
  160SAPE  C21417932   3.174   0.104   7.868 -0.3461  0.3423  0.4451
  160SAPE  H14R17933   3.256   0.176   7.857 -1.1833  1.5341  1.7014
  160SAPE  C21517934   3.114   0.100   7.988 -0.1616  0.5539  0.0547
  160SAPE  H15R17935   3.139   0.182   8.056  3.4605  0.4570 -0.9808
  160SAPE  C21617936   3.005   0.009   8.037  0.2772 -0.0698  0.1055
  160SAPE  H16R17937   2.999  -0.082   7.973  0.0074 -1.5921  2.2125
  160SAPE  H16S17938   2.912   0.068   8.043  1.1892  1.2736  1.8188
  160SAPE  C21717939   3.043  -0.038   8.172 -0.3036  0.0133 -0.2501
  160SAPE  H17R17940   3.149  -0.073   8.169 -0.9553 -2.0879 -0.2912
  160SAPE  H17S17941   2.978  -0.122   8.203 -1.3493  0.7595 -0.3830
  160SAPE  C21817942   3.025   0.065   8.287 -0.4354  0.9271  0.1334
  160SAPE  H18R17943   2.929   0.120   8.277 -2.0873 -1.6657  0.6395
  160SAPE  H18S17944   3.098   0.147   8.273 -0.9879  1.2356 -1.0951
  160SAPE  C21917945   3.050   0.006   8.424 -0.4588 -0.4749 -0.1854
  160SAPE  H19R17946   3.075   0.092   8.491 -2.3993 -0.7755  0.9881
  160SAPE  H19S17947   3.133  -0.067   8.425 -1.1472 -1.2620  0.0274
  160SAPE  C22017948   2.931  -0.067   8.485 -0.2086  0.4456 -0.2577
  160SAPE  H20R17949   2.852   0.006   8.510 -0.1761 -0.2626  2.1145
  160SAPE  H20S17950   2.969  -0.125   8.572  0.0558  0.9489 -0.0352
  160SAPE  H20T17951   2.883  -0.137   8.413  1.0118 -0.1137 -0.5690
  160SAPE   C3317952   2.179   0.481   7.389  0.1584 -0.6893  0.4915
  160SAPE   H3X17953   2.207   0.377   7.360  1.4753  0.2680 -1.9491
  160SAPE   H3Y17954   2.068   0.484   7.394  0.2167  1.1985  3.4054
  160SAPE   C3417955   2.240   0.512   7.524  0.9987 -0.0190 -0.0110
  160SAPE   H4X17956   2.253   0.621   7.543  0.3980  0.0668 -0.0912
  160SAPE   H4Y17957   2.343   0.470   7.532  1.4021  0.7479 -0.9588
  160SAPE   C3517958   2.174   0.447   7.643 -0.4963 -0.5967 -0.5766
  160SAPE   H5X17959   2.173   0.337   7.628 -1.6519 -0.2976 -3.3047
  160SAPE   H5Y17960   2.067   0.478   7.641 -0.6385 -0.9310  0.7362
  160SAPE   C3617961   2.222   0.501   7.776 -0.0756 -0.2552  0.4610
  160SAPE   H6X17962   2.206   0.611   7.776  0.5449 -0.1553  1.3830
  160SAPE   H6Y17963   2.330   0.486   7.795 -0.2977 -0.7923  1.3898
  160SAPE   C3717964   2.158   0.436   7.900 -0.2409  0.1564 -0.2114
  160SAPE   H7X17965   2.157   0.326   7.884  0.2804  0.1173  0.0138
  160SAPE   H7Y17966   2.052   0.470   7.897 -0.1262  0.7295  1.2894
  160SAPE   C3817967   2.219   0.466   8.033  0.1003 -0.3068 -0.1792
  160SAPE   H8X17968   2.206   0.572   8.065 -0.5114 -0.9419  1.8264
  160SAPE   H8Y17969   2.328   0.446   8.028  0.0407 -0.5353 -0.6173
  160SAPE   C3917970   2.151   0.386   8.149  0.3109 -0.6843  0.1986
  160SAPE   H9X17971   2.151   0.277   8.130 -0.4450 -0.7217  0.4032
  160SAPE   H9Y17972   2.042   0.402   8.161  0.1057 -3.0223  2.1028
  160SAPE  C31017973   2.214   0.422   8.286 -0.3605 -0.6542 -0.2783
  160SAPE  H10X17974   2.173   0.346   8.356 -1.0197  1.4776  1.7566
  160SAPE  H10Y17975   2.177   0.522   8.316 -0.9028 -0.9505  0.0528
  160SAPE  C31117976   2.367   0.401   8.296  0.1911 -0.2520 -0.1895
  160SAPE  H11X17977   2.417   0.476   8.230  1.2528 -0.8159 -0.0501
  160SAPE  H11Y17978   2.404   0.303   8.258  0.1442  0.4157 -2.0915
  160SAPE  C31217979   2.417   0.417   8.433  0.1915  0.0282 -0.0597
  160SAPE  H12X17980   2.370   0.346   8.504  2.5251 -1.0211  0.5636
  160SAPE  H12Y17981   2.384   0.517   8.466 -0.7585 -0.3735  0.2273
  160SAPE  C31317982   2.574   0.410   8.441  0.4028 -1.6226 -0.1845
  160SAPE  H13X17983   2.619   0.484   8.372 -0.5927  0.0054  0.8448
  160SAPE  H13Y17984   2.612   0.311   8.410 -0.3352 -2.1250  0.4668
  160SAPE  C31417985   2.618   0.426   8.593  0.0745  0.1223 -0.4780
  160SAPE  H14X17986   2.544   0.372   8.655 -0.2035  0.3934 -0.5675
  160SAPE  H14Y17987   2.621   0.531   8.630 -1.8055 -0.7033  2.3346
  160SAPE  C31517988   2.764   0.374   8.621 -0.9492  0.2129 -0.3521
  160SAPE  H15X17989   2.837   0.431   8.561 -1.3078  3.1001  1.7381
  160SAPE  H15Y17990   2.768   0.271   8.579 -1.9709 -0.4418  1.0685
  160SAPE  C31617991   2.816   0.370   8.762 -0.2733 -0.0392 -0.1001
  160SAPE  H16X17992   2.746   0.324   8.835  1.1451 -2.4083 -0.1168
  160SAPE  H16Y17993   2.838   0.474   8.794 -1.7232 -0.2471  1.7250
  160SAPE  C31717994   2.942   0.285   8.772  0.2310 -0.4372  0.1039
  160SAPE  H17X17995   3.020   0.322   8.702 -0.3764 -0.1149 -0.4096
  160SAPE  H17Y17996   2.919   0.178   8.751  0.9709 -0.6253  0.2067
  160SAPE  C31817997   2.998   0.282   8.919  0.5475  0.3025 -0.6219
  160SAPE  H18X17998   3.099   0.236   8.929  0.2357 -0.0194  1.3535
  160SAPE  H18Y17999   2.922   0.242   8.989  0.2809  0.7327 -0.6590
  160SAPE  H18Z18000   3.005   0.388   8.953 -0.3689  0.7593 -1.7845
  161SAPE     N18001   5.009   6.588   6.060  0.0882 -0.0517 -0.3817
  161SAPE   HN118002   5.043   6.625   5.969  0.6393  0.1357 -0.1052
  161SAPE   HN218003   5.044   6.490   6.062  0.5182  0.0552 -1.5974
  161SAPE   HN318004   4.906   6.586   6.047 -0.0461 -3.2126  0.4151
  161SAPE   C1218005   5.058   6.665   6.173  0.0169 -0.2414 -0.1804
  161SAPE  H12A18006   5.161   6.630   6.193 -1.0515 -2.6781  1.4562
  161SAPE  H12B18007   5.002   6.650   6.268  0.9663 -1.3366  0.2273
  161SAPE   C1118008   5.050   6.823   6.141 -0.4029 -0.3374 -0.3863
  161SAPE  H11A18009   5.046   6.872   6.241  0.5600  1.5326 -1.1976
  161SAPE  H11B18010   4.953   6.853   6.095  1.5432  2.5054 -3.0949
  161SAPE     P18011   5.252   6.979   6.086  0.0957 -0.1110  0.4970
  161SAPE   O1318012   5.385   6.952   6.026  0.3073  0.2742 -0.5159
  161SAPE   O1418013   5.175   7.092   6.026  0.0434  0.5563 -0.1177
  161SAPE   O1218014   5.162   6.857   6.057 -0.3168  0.5459  0.2606
  161SAPE   O1118015   5.250   6.989   6.240  0.7699 -0.3037  0.4120
  161SAPE    C118016   5.292   6.905   6.339  0.8031 -0.2605 -0.1475
  161SAPE    HA18017   5.214   6.842   6.386 -0.2730  1.4618  0.4459
  161SAPE    HB18018   5.365   6.827   6.308 -1.7317 -2.9871  0.3159
  161SAPE    C218019   5.362   6.990   6.442 -0.1792  0.2695 -0.4344
  161SAPE    HS18020   5.420   6.925   6.512  0.2264 -0.7950 -1.7126
  161SAPE   O2118021   5.270   7.067   6.524  0.0604  0.1342  0.1150
  161SAPE   C2118022   5.195   7.010   6.616  0.5122  0.3319 -0.1217
  161SAPE   O2218023   5.183   6.894   6.643 -0.2287  0.2465 -0.1424
  161SAPE   C2218024   5.142   7.122   6.706  0.0698  0.1492 -0.3890
  161SAPE   H2R18025   5.231   7.175   6.747  0.0571 -1.1872  1.5056
  161SAPE   H2S18026   5.092   7.182   6.627 -0.9551 -0.9743 -0.6262
  161SAPE    C318027   5.482   7.072   6.382  0.6183 -0.2386 -0.0637
  161SAPE    HX18028   5.450   7.152   6.312  1.1213 -1.0384 -1.2440
  161SAPE    HY18029   5.534   6.987   6.333 -1.5064 -2.7283  1.6926
  161SAPE   O3118030   5.568   7.128   6.482 -0.2771 -0.1888  0.2865
  161SAPE   C3118031   5.694   7.173   6.442 -0.3939  0.3832  0.8044
  161SAPE   O3218032   5.726   7.187   6.326  0.6013  0.5428  0.2786
  161SAPE   C3218033   5.787   7.202   6.573 -0.1346  0.7840  0.5361
  161SAPE   H2X18034   5.894   7.184   6.548 -0.8885  0.1756 -2.5920
  161SAPE   H2Y18035   5.760   7.124   6.648  2.0009  0.8830  1.5057
  161SAPE   C2318036   5.041   7.075   6.806  0.0642  0.1278  0.0816
  161SAPE   H3R18037   5.097   7.012   6.877 -0.8757 -0.8612 -0.0297
  161SAPE   H3S18038   4.965   7.010   6.757  0.0910  0.2626 -0.1432
  161SAPE   C2418039   4.965   7.186   6.874  0.5878 -0.0796  0.1733
  161SAPE   H4R18040   5.027   7.270   6.912 -0.5367  1.3556 -1.0485
  161SAPE   H4S18041   4.920   7.148   6.968 -0.4396  0.4517 -0.0892
  161SAPE   C2518042   4.859   7.242   6.786  0.1842 -0.2051 -0.6194
  161SAPE   H5R18043   4.896   7.328   6.729 -2.5440  1.2682 -0.3679
  161SAPE   C2618044   4.735   7.194   6.764 -0.4336 -0.0328  0.0063
  161SAPE   H6R18045   4.661   7.254   6.710 -0.8319 -0.3314  0.2153
  161SAPE   C2718046   4.667   7.069   6.826 -0.0429 -0.7587  0.0423
  161SAPE   H7R18047   4.746   7.011   6.879 -0.5907  0.7074  2.5857
  161SAPE   H7S18048   4.629   7.006   6.743 -0.0716  0.1027 -0.6139
  161SAPE   C2818049   4.559   7.117   6.917 -0.2183 -0.3648 -0.1797
  161SAPE   H8R18050   4.479   7.177   6.871  1.5781  1.7290 -0.7077
  161SAPE   C2918051   4.547   7.078   7.042  0.7867  0.2914 -0.3932
  161SAPE   H9R18052   4.452   7.104   7.092  0.3111 -0.6056 -0.7997
  161SAPE  C21018053   4.644   6.995   7.127  0.0567 -0.2323 -0.3117
  161SAPE  H10R18054   4.744   7.043   7.134  0.7830 -1.8494  1.4675
  161SAPE  H10S18055   4.653   6.898   7.074 -1.7268 -0.6802  0.1221
  161SAPE  C21118056   4.608   6.954   7.267  0.4969  0.2426 -0.4401
  161SAPE  H11R18057   4.580   6.848   7.279  0.7052  0.1261 -0.9677
  161SAPE  C21218058   4.607   7.031   7.378  0.3162 -0.4766  0.6828
  161SAPE  H12R18059   4.585   6.986   7.475 -0.5599 -1.6138 -0.0182
  161SAPE  C21318060   4.642   7.179   7.371  0.0499  0.1060 -0.2737
  161SAPE  H13R18061   4.563   7.239   7.320 -0.4762  0.9655  1.4882
  161SAPE  H13S18062   4.729   7.193   7.302  0.4741 -2.3675 -0.3121
  161SAPE  C21418063   4.691   7.243   7.495 -0.1412  0.4631  0.3525
  161SAPE  H14R18064   4.793   7.206   7.514 -0.0919  0.5782  0.3074
  161SAPE  C21518065   4.636   7.312   7.595 -0.5289 -0.5285  0.8136
  161SAPE  H15R18066   4.703   7.345   7.675 -0.9250  0.9525  0.5600
  161SAPE  C21618067   4.495   7.359   7.605  0.1007 -0.5128  0.1147
  161SAPE  H16R18068   4.443   7.353   7.507  0.2048  0.0357  0.0250
  161SAPE  H16S18069   4.493   7.466   7.635 -3.9893 -0.2598 -0.4610
  161SAPE  C21718070   4.401   7.288   7.714 -0.7588 -0.3322  0.5555
  161SAPE  H17R18071   4.294   7.310   7.696 -0.9313  0.1750  2.0086
  161SAPE  H17S18072   4.436   7.317   7.816 -0.6561  0.7570  0.2163
  161SAPE  C21818073   4.403   7.136   7.708 -0.7690  0.1682 -0.1442
  161SAPE  H18R18074   4.509   7.107   7.729 -0.2927 -0.7326 -3.3087
  161SAPE  H18S18075   4.392   7.103   7.602 -2.0668 -3.1318  0.8862
  161SAPE  C21918076   4.322   7.067   7.816 -0.0228 -0.0642  0.4354
  161SAPE  H19R18077   4.221   7.114   7.817  0.7413  1.6400  1.4482
  161SAPE  H19S18078   4.362   7.088   7.918 -3.0272 -1.4355  2.0355
  161SAPE  C22018079   4.317   6.916   7.807  0.2206 -0.6779  0.0063
  161SAPE  H20R18080   4.320   6.890   7.699  2.1882  1.5640 -0.5527
  161SAPE  H20S18081   4.226   6.876   7.858 -0.0178  1.6772  1.5664
  161SAPE  H20T18082   4.411   6.870   7.845 -0.1270 -0.8332  0.6921
  161SAPE   C3318083   5.762   7.340   6.637 -0.4517  0.1895 -0.5275
  161SAPE   H3X18084   5.655   7.370   6.639 -0.2736  0.8314 -0.1195
  161SAPE   H3Y18085   5.808   7.417   6.571 -0.9751  1.3086  0.3805
  161SAPE   C3418086   5.848   7.364   6.764  0.2343 -0.1509 -0.6234
  161SAPE   H4X18087   5.894   7.465   6.771  0.8111 -0.4541  0.0036
  161SAPE   H4Y18088   5.928   7.287   6.775 -0.1776 -0.3319  1.4640
  161SAPE   C3518089   5.761   7.362   6.889 -0.9185  0.2718 -0.4774
  161SAPE   H5X18090   5.718   7.261   6.906  0.1878  0.0980  1.4730
  161SAPE   H5Y18091   5.675   7.433   6.884 -2.5928 -1.3936  2.3260
  161SAPE   C3618092   5.851   7.384   7.018  0.2225 -0.7350 -0.4063
  161SAPE   H6X18093   5.868   7.492   7.036  0.1693 -0.3831 -2.2429
  161SAPE   H6Y18094   5.953   7.344   7.001  0.4980  0.1922 -1.0259
  161SAPE   C3718095   5.789   7.328   7.147  0.4091 -0.0341  0.0871
  161SAPE   H7X18096   5.766   7.219   7.136 -1.3087  0.4613 -2.0166
  161SAPE   H7Y18097   5.690   7.373   7.171 -1.6894 -2.6093 -2.7874
  161SAPE   C3818098   5.876   7.354   7.272  0.4332 -0.4474 -0.8453
  161SAPE   H8X18099   5.915   7.458   7.271 -0.2265 -0.1890 -0.0273
  161SAPE   H8Y18100   5.968   7.291   7.269  0.6820 -0.4422  2.7277
  161SAPE   C3918101   5.813   7.325   7.409 -0.2007 -0.3391  0.5657
  161SAPE   H9X18102   5.795   7.215   7.409  2.6031 -0.8770  0.0069
  161SAPE   H9Y18103   5.718   7.381   7.396 -1.4607 -1.8102  2.7916
  161SAPE  C31018104   5.899   7.362   7.528 -0.7906 -0.1411 -0.2136
  161SAPE  H10X18105   5.942   7.464   7.518  2.1271 -1.1776  0.7030
  161SAPE  H10Y18106   5.984   7.295   7.550 -1.8939 -1.5352 -0.0489
  161SAPE  C31118107   5.820   7.339   7.656  0.3418  0.2614 -0.0478
  161SAPE  H11X18108   5.816   7.232   7.683 -0.9753  0.4885  0.7175
  161SAPE  H11Y18109   5.716   7.377   7.643 -0.0491 -0.9464 -0.6518
  161SAPE  C31218110   5.887   7.421   7.768 -0.1897  0.1811 -0.2036
  161SAPE  H12X18111   5.867   7.527   7.742 -0.1645  0.4397  0.7929
  161SAPE  H12Y18112   5.996   7.401   7.772 -0.0484  0.6054 -1.4574
  161SAPE  C31318113   5.839   7.382   7.905 -0.1628 -0.1680 -0.4509
  161SAPE  H13X18114   5.835   7.273   7.923 -1.2621 -0.2073 -0.8945
  161SAPE  H13Y18115   5.734   7.415   7.922  0.2506  0.8837  0.1997
  161SAPE  C31418116   5.929   7.443   8.017  0.1845 -0.9030 -0.3166
  161SAPE  H14X18117   5.961   7.540   7.975 -1.8778 -0.1959 -0.3837
  161SAPE  H14Y18118   6.021   7.383   8.033  0.3733 -0.3562  0.7301
  161SAPE  C31518119   5.860   7.461   8.160 -0.4279  0.0143  0.4953
  161SAPE  H15X18120   5.846   7.361   8.205 -0.2618  0.1643  0.8851
  161SAPE  H15Y18121   5.763   7.513   8.145  0.7135  2.6962  1.8102
  161SAPE  C31618122   5.949   7.549   8.238 -0.3353  0.5522 -0.4709
  161SAPE  H16X18123   5.978   7.628   8.165  0.6200 -0.6717 -1.4603
  161SAPE  H16Y18124   6.035   7.483   8.262 -2.6013 -2.4168  0.0180
  161SAPE  C31718125   5.893   7.596   8.372 -0.1503 -0.1851  0.1552
  161SAPE  H17X18126   5.853   7.511   8.432  2.2386  0.7573  3.3938
  161SAPE  H17Y18127   5.807   7.667   8.370 -0.5723 -0.6451  1.1447
  161SAPE  C31818128   6.004   7.640   8.471  0.0650 -0.3242  0.0077
  161SAPE  H18X18129   6.062   7.553   8.507 -0.9764 -1.4589 -0.9932
  161SAPE  H18Y18130   5.964   7.687   8.563 -1.8654 -2.1220  0.1534
  161SAPE  H18Z18131   6.068   7.712   8.415 -2.2214  0.1821 -2.1597
  162SAPE     N18132   4.412   3.055   6.346 -0.7006  0.2945  0.0242
  162SAPE   HN118133   4.344   3.133   6.333 -1.0099  0.0827  0.3604
  162SAPE   HN218134   4.367   2.961   6.344 -2.3638  1.0513  0.2531
  162SAPE   HN318135   4.451   3.083   6.438 -1.6902  0.1914  0.4792
  162SAPE   C1218136   4.525   3.063   6.250 -0.2421  0.8094  0.0004
  162SAPE  H12A18137   4.553   3.170   6.241  0.6887  0.6953  1.2475
  162SAPE  H12B18138   4.501   3.013   6.154 -0.3280  2.1538 -0.7076
  162SAPE   C1118139   4.654   3.023   6.323 -0.3231  0.0621 -0.7228
  162SAPE  H11A18140   4.741   3.040   6.255  1.3021 -2.2717  0.6300
  162SAPE  H11B18141   4.663   2.915   6.347  3.0780  1.0094  3.5766
  162SAPE     P18142   4.807   3.144   6.502 -0.1286 -0.1748  0.0080
  162SAPE   O1318143   4.853   3.272   6.432 -0.1561  0.3127 -0.6387
  162SAPE   O1418144   4.802   3.152   6.647  0.0180 -0.2853  0.5826
  162SAPE   O1218145   4.667   3.087   6.448 -0.6613 -0.2342 -0.5048
  162SAPE   O1118146   4.907   3.020   6.471 -0.1399  0.3356  0.0556
  162SAPE    C118147   4.979   2.930   6.558 -0.5277  0.2801  0.6021
  162SAPE    HA18148   4.932   2.918   6.658  2.4384  0.9019  2.1968
  162SAPE    HB18149   4.977   2.828   6.513 -0.5788  0.4523  0.2141
  162SAPE    C218150   5.125   2.972   6.581  0.4328  0.5676 -0.5592
  162SAPE    HS18151   5.126   3.077   6.617  1.4540  1.2479 -2.4254
  162SAPE   O2118152   5.207   2.945   6.462  0.0768 -0.1004  0.6391
  162SAPE   C2118153   5.319   3.013   6.459 -0.1656 -0.0243  0.0027
  162SAPE   O2218154   5.355   3.094   6.542  0.4846  0.0245  0.4986
  162SAPE   C2218155   5.409   2.984   6.341 -0.0478 -0.1367  0.6335
  162SAPE   H2R18156   5.357   2.933   6.257  2.2497 -1.2305 -0.2020
  162SAPE   H2S18157   5.438   3.080   6.294 -0.4590 -0.9232 -1.3254
  162SAPE    C318158   5.175   2.876   6.699 -0.4235 -0.3323 -0.2713
  162SAPE    HX18159   5.280   2.905   6.722 -0.6432 -1.3827  2.3725
  162SAPE    HY18160   5.175   2.770   6.668 -1.8270  0.1403 -2.0849
  162SAPE   O3118161   5.106   2.878   6.822  0.0024  0.1212 -0.4627
  162SAPE   C3118162   5.123   2.989   6.900 -0.1784 -0.6476 -0.3309
  162SAPE   O3218163   5.190   3.089   6.879  0.3382  0.0586 -0.3153
  162SAPE   C3218164   5.062   2.947   7.033  0.5509 -0.5290 -0.5130
  162SAPE   H2X18165   5.123   2.869   7.083  0.5652 -1.3245 -1.7239
  162SAPE   H2Y18166   4.966   2.897   7.009  0.2529 -0.3784  0.3123
  162SAPE   C2318167   5.541   2.911   6.377  0.0042  0.1790 -0.4176
  162SAPE   H3R18168   5.569   2.956   6.475  0.3983  1.4472 -1.0976
  162SAPE   H3S18169   5.627   2.937   6.312  0.2989  0.6232  0.1325
  162SAPE   C2418170   5.524   2.758   6.375  0.3443 -1.3998 -0.4351
  162SAPE   H4R18171   5.494   2.718   6.276 -1.9240  1.0561 -0.8554
  162SAPE   H4S18172   5.437   2.739   6.441 -0.3619  0.3064 -0.8118
  162SAPE   C2518173   5.650   2.702   6.424 -0.1858  0.0031  0.0155
  162SAPE   H5R18174   5.703   2.656   6.339 -3.2032 -0.8082 -1.5667
  162SAPE   C2618175   5.695   2.687   6.548 -0.5017 -0.5318  0.0362
  162SAPE   H6R18176   5.781   2.625   6.580 -1.1847 -1.3446  0.3297
  162SAPE   C2718177   5.614   2.737   6.669 -0.4674 -0.0544 -0.0586
  162SAPE   H7R18178   5.558   2.656   6.721  0.6109 -1.1748 -0.5947
  162SAPE   H7S18179   5.538   2.811   6.635 -1.6295  0.2778  2.9512
  162SAPE   C2818180   5.700   2.815   6.763 -0.3640 -0.1664 -0.3290
  162SAPE   H8R18181   5.771   2.880   6.709 -0.6282  2.1637  1.9341
  162SAPE   C2918182   5.678   2.854   6.888 -0.4096  0.0110  0.2309
  162SAPE   H9R18183   5.760   2.903   6.941  0.1262 -2.0457  1.4227
  162SAPE  C21018184   5.581   2.781   6.983 -0.5395  0.2290  0.1512
  162SAPE  H10R18185   5.632   2.728   7.067 -0.8222 -0.8175 -0.3281
  162SAPE  H10S18186   5.540   2.693   6.930 -0.5027 -0.2281  0.8610
  162SAPE  C21118187   5.476   2.878   7.036 -0.0669  0.0223  0.2766
  162SAPE  H11R18188   5.448   2.957   6.965 -2.2877  0.8962  1.9999
  162SAPE  C21218189   5.432   2.881   7.161  0.2123  0.5277  0.1254
  162SAPE  H12R18190   5.357   2.956   7.188 -0.0249 -0.0087  0.9873
  162SAPE  C21318191   5.472   2.784   7.276  0.1127  0.2820  0.0205
  162SAPE  H13R18192   5.568   2.820   7.318  0.3963 -0.7785  0.3057
  162SAPE  H13S18193   5.478   2.681   7.236 -2.0658  0.7774 -1.7748
  162SAPE  C21418194   5.369   2.795   7.395  0.0965  0.5594  0.3941
  162SAPE  H14R18195   5.291   2.719   7.383 -0.5474  1.2459  0.1726
  162SAPE  C21518196   5.351   2.882   7.493 -0.2192  0.2366  0.6504
  162SAPE  H15R18197   5.272   2.859   7.566 -0.5327 -0.5797  0.0716
  162SAPE  C21618198   5.421   3.013   7.505 -0.5511  0.3420 -0.8816
  162SAPE  H16R18199   5.369   3.083   7.437 -1.0507  0.4998 -0.3417
  162SAPE  H16S18200   5.526   2.997   7.470 -1.6630  0.5442 -4.7241
  162SAPE  C21718201   5.412   3.077   7.650  0.1200  0.3324  0.4227
  162SAPE  H17R18202   5.471   3.009   7.716  0.9600  0.9293  0.3117
  162SAPE  H17S18203   5.304   3.069   7.673  0.4878 -2.7622  1.5082
  162SAPE  C21818204   5.439   3.223   7.666  0.7948  0.0338  0.8573
  162SAPE  H18R18205   5.390   3.285   7.588  0.7723 -0.2053  0.6801
  162SAPE  H18S18206   5.550   3.228   7.657  0.6934  0.1069 -0.7082
  162SAPE  C21918207   5.419   3.275   7.806  0.4783 -0.5705 -0.7576
  162SAPE  H19R18208   5.500   3.230   7.867 -2.2098 -0.3410  3.4138
  162SAPE  H19S18209   5.325   3.234   7.849  1.7432 -1.9307  0.8627
  162SAPE  C22018210   5.443   3.425   7.803  0.2918 -0.1079  0.1820
  162SAPE  H20R18211   5.362   3.467   7.739  1.5443  0.0190 -1.4097
  162SAPE  H20S18212   5.538   3.461   7.758  0.0683 -0.3537 -0.5049
  162SAPE  H20T18213   5.432   3.478   7.900  1.6177  1.6455 -0.5690
  162SAPE   C3318214   5.054   3.076   7.128  0.8121 -0.1331 -0.3487
  162SAPE   H3X18215   4.980   3.135   7.069  3.7903  0.0808 -4.2688
  162SAPE   H3Y18216   5.157   3.114   7.142 -0.2998  2.5539  1.2803
  162SAPE   C3418217   5.000   3.046   7.270 -0.0642 -0.4673 -0.5682
  162SAPE   H4X18218   5.059   2.966   7.318 -0.6706  0.8357  2.6182
  162SAPE   H4Y18219   4.899   3.000   7.260  0.7355 -2.8112  1.3251
  162SAPE   C3518220   5.001   3.169   7.362 -0.1715 -0.1111  0.0564
  162SAPE   H5X18221   4.968   3.257   7.303  0.7412 -0.4077 -0.9380
  162SAPE   H5Y18222   5.108   3.188   7.384  0.2922 -3.0899  0.8142
  162SAPE   C3618223   4.937   3.142   7.496  0.2164 -0.4301 -0.3364
  162SAPE   H6X18224   4.974   3.043   7.531 -0.0309 -0.8210 -1.1561
  162SAPE   H6Y18225   4.827   3.147   7.485  0.2978 -0.1804 -1.0753
  162SAPE   C3718226   4.981   3.230   7.610 -0.1154  0.5592  0.0204
  162SAPE   H7X18227   4.984   3.336   7.577 -0.7838  0.6313  0.1725
  162SAPE   H7Y18228   5.087   3.199   7.618 -0.3400 -0.3129 -0.2648
  162SAPE   C3818229   4.904   3.209   7.741  0.3288  0.6861 -0.0622
  162SAPE   H8X18230   4.803   3.245   7.715  0.9631  2.4140 -0.2737
  162SAPE   H8Y18231   4.942   3.274   7.823 -1.6319  1.7582  0.0642
  162SAPE   C3918232   4.885   3.063   7.804 -0.0671  0.3624  0.5056
  162SAPE   H9X18233   4.850   2.989   7.729  0.3386  1.5327 -0.8778
  162SAPE   H9Y18234   4.812   3.078   7.887  2.2318  3.7567  2.1553
  162SAPE  C31018235   5.016   3.000   7.854 -0.3509 -0.4638 -0.4262
  162SAPE  H10X18236   5.054   3.061   7.938  1.0189  1.4715 -2.3501
  162SAPE  H10Y18237   5.089   3.011   7.771  0.1525 -0.9493 -0.0543
  162SAPE  C31118238   5.013   2.857   7.899  0.0806 -0.5250  0.1196
  162SAPE  H11X18239   4.935   2.816   7.831 -1.5604 -0.4405  1.8560
  162SAPE  H11Y18240   4.964   2.863   7.999 -2.4518  1.4618 -1.1097
  162SAPE  C31218241   5.132   2.769   7.883 -0.6866  0.0837  0.2935
  162SAPE  H12X18242   5.161   2.781   7.776  0.2664 -0.7385  0.4411
  162SAPE  H12Y18243   5.107   2.665   7.913 -1.7161 -0.2200 -1.4652
  162SAPE  C31318244   5.250   2.819   7.967  0.0753 -0.0022  0.5055
  162SAPE  H13X18245   5.250   2.930   7.967 -4.1547  0.1766 -0.5269
  162SAPE  H13Y18246   5.349   2.782   7.930 -1.3608 -2.7674 -0.9217
  162SAPE  C31418247   5.240   2.768   8.112  0.2148 -0.0888  0.7033
  162SAPE  H14X18248   5.258   2.658   8.116 -1.7676 -0.5381 -1.2310
  162SAPE  H14Y18249   5.141   2.776   8.162 -0.0126 -1.6148  0.5492
  162SAPE  C31518250   5.336   2.845   8.194 -0.1918 -1.0668  0.2278
  162SAPE  H15X18251   5.307   2.952   8.193 -0.8420 -1.2432 -0.6883
  162SAPE  H15Y18252   5.443   2.839   8.164  0.2768 -0.2562  1.6317
  162SAPE  C31618253   5.353   2.794   8.335 -0.0263  0.0742 -0.8308
  162SAPE  H16X18254   5.399   2.693   8.334 -3.9777 -1.9626  0.2325
  162SAPE  H16Y18255   5.252   2.766   8.374  0.7801 -0.5590  0.9070
  162SAPE  C31718256   5.421   2.894   8.430  0.4710 -0.1617 -0.5708
  162SAPE  H17X18257   5.376   2.994   8.413  0.1253 -0.1743  0.2231
  162SAPE  H17Y18258   5.528   2.904   8.402  0.7657 -2.1091 -0.3046
  162SAPE  C31818259   5.393   2.852   8.580 -0.2491 -0.3413 -0.0655
  162SAPE  H18X18260   5.292   2.873   8.621  0.1515 -3.4727  2.9708
  162SAPE  H18Y18261   5.461   2.909   8.647 -1.7725  2.0416 -0.4018
  162SAPE  H18Z18262   5.420   2.745   8.584  1.5953  0.1234  1.6666
  163SAPE     N18263   2.647   5.893   6.514 -0.1939  0.2375  0.4233
  163SAPE   HN118264   2.675   5.956   6.436  0.3361  0.5632  0.8706
  163SAPE   HN218265   2.702   5.805   6.517  1.0388  0.8727 -1.5183
  163SAPE   HN318266   2.544   5.877   6.513 -0.2072  0.3423 -0.5608
  163SAPE   C1218267   2.682   5.975   6.635 -0.0371 -0.6190  0.5742
  163SAPE  H12A18268   2.792   5.992   6.630  0.1914 -1.9958  0.4956
  163SAPE  H12B18269   2.652   5.916   6.724 -1.0897 -3.3025 -1.4277
  163SAPE   C1118270   2.592   6.107   6.620 -0.0258  0.2277  0.0198
  163SAPE  H11A18271   2.615   6.168   6.710  0.2422  0.3464 -0.1293
  163SAPE  H11B18272   2.489   6.065   6.633 -0.3555  0.4728 -1.5692
  163SAPE     P18273   2.691   6.307   6.487  0.4734  0.0540 -0.1646
  163SAPE   O1318274   2.831   6.272   6.506 -0.6816  0.4401 -0.1019
  163SAPE   O1418275   2.667   6.385   6.365  0.4435  0.9316 -0.4848
  163SAPE   O1218276   2.602   6.171   6.492 -0.0320  0.3069  0.2117
  163SAPE   O1118277   2.630   6.387   6.606  0.2427 -0.1520  0.4645
  163SAPE    C118278   2.704   6.475   6.680 -0.4881 -1.0267 -0.3193
  163SAPE    HA18279   2.805   6.429   6.687  0.1438  0.4901  1.1401
  163SAPE    HB18280   2.701   6.568   6.619  1.5079 -0.3014  0.5887
  163SAPE    C218281   2.643   6.507   6.818  0.4459 -0.6678  0.2336
  163SAPE    HS18282   2.642   6.410   6.872  0.1319 -1.2283 -0.7620
  163SAPE   O2118283   2.514   6.564   6.792 -0.1608 -0.4127 -0.4575
  163SAPE   C2118284   2.423   6.563   6.889 -0.0392 -0.4847 -0.0721
  163SAPE   O2218285   2.428   6.496   6.995 -0.6973 -0.0980 -0.2481
  163SAPE   C2218286   2.316   6.667   6.841  0.3225  0.2452  0.9643
  163SAPE   H2R18287   2.347   6.723   6.749 -0.6951 -0.6207  0.0763
  163SAPE   H2S18288   2.219   6.614   6.834 -0.8144  2.3446 -0.4369
  163SAPE    C318289   2.711   6.626   6.899 -0.4471  0.5053 -1.1460
  163SAPE    HX18290   2.666   6.724   6.871 -1.5707  0.3979  0.1887
  163SAPE    HY18291   2.820   6.632   6.876  0.2132 -2.6029  0.6169
  163SAPE   O3118292   2.696   6.609   7.040  0.1864 -0.1452 -0.0057
  163SAPE   C3118293   2.773   6.516   7.096 -0.3019 -0.0114 -0.1656
  163SAPE   O3218294   2.863   6.453   7.042  0.3463 -0.1661 -0.4973
  163SAPE   C3218295   2.751   6.517   7.245  0.0713  0.2231  0.4570
  163SAPE   H2X18296   2.658   6.460   7.269  0.5067 -0.7968 -0.2024
  163SAPE   H2Y18297   2.737   6.618   7.289 -1.3220  0.5549 -0.6839
  163SAPE   C2318298   2.290   6.757   6.965 -0.6160  0.0586 -0.3495
  163SAPE   H3R18299   2.292   6.691   7.055 -2.9524  0.1449 -0.1687
  163SAPE   H3S18300   2.186   6.794   6.955  0.4277  3.2925 -0.4514
  163SAPE   C2418301   2.383   6.882   6.968 -0.6859 -0.4607 -0.1977
  163SAPE   H4R18302   2.377   6.941   6.874 -0.5803  0.0257  0.0985
  163SAPE   H4S18303   2.485   6.839   6.972 -1.0742 -1.5100 -1.0658
  163SAPE   C2518304   2.363   6.966   7.095 -0.2806  0.8854  0.5743
  163SAPE   H5R18305   2.324   7.067   7.077 -2.7252  0.0664  0.8103
  163SAPE   C2618306   2.398   6.931   7.225  1.2356 -0.4595  0.2370
  163SAPE   H6R18307   2.382   7.003   7.307  0.6534 -2.1982  1.6992
  163SAPE   C2718308   2.468   6.802   7.259 -0.5399 -0.3990  0.3500
  163SAPE   H7R18309   2.561   6.831   7.312 -1.5625 -0.6518  2.3716
  163SAPE   H7S18310   2.514   6.761   7.166  2.5967  1.4081  0.9488
  163SAPE   C2818311   2.382   6.710   7.337  0.2707 -0.1427  0.1734
  163SAPE   H8R18312   2.311   6.651   7.277  1.5238 -0.5009 -1.0063
  163SAPE   C2918313   2.391   6.686   7.474  0.9085  0.0487 -0.1254
  163SAPE   H9R18314   2.323   6.609   7.512 -0.4490  0.4478 -1.6485
  163SAPE  C21018315   2.490   6.740   7.577  0.3501  0.4838  0.1506
  163SAPE  H10R18316   2.578   6.772   7.518 -0.0872  1.5115  0.0320
  163SAPE  H10S18317   2.528   6.648   7.627  1.7747  0.0407 -1.6410
  163SAPE  C21118318   2.444   6.851   7.667  0.3445 -0.8277  0.0270
  163SAPE  H11R18319   2.433   6.946   7.612 -0.0764  0.8839  2.8259
  163SAPE  C21218320   2.437   6.852   7.804 -0.2900  0.6690  0.3588
  163SAPE  H12R18321   2.406   6.940   7.863  0.6631 -0.5382  2.8288
  163SAPE  C21318322   2.459   6.736   7.900  0.3256  0.4679 -0.2481
  163SAPE  H13R18323   2.430   6.649   7.837 -0.4096  0.0203  0.6817
  163SAPE  H13S18324   2.391   6.741   7.988  1.5215  0.4878  0.6969
  163SAPE  C21418325   2.603   6.730   7.944  0.2838  0.7532 -0.3516
  163SAPE  H14R18326   2.672   6.811   7.913  2.3230 -0.1393  1.5922
  163SAPE  C21518327   2.653   6.628   8.025  0.3275  0.6983 -0.3647
  163SAPE  H15R18328   2.763   6.622   8.033  0.3001  1.3907  0.8267
  163SAPE  C21618329   2.573   6.513   8.085  0.2642 -1.1884  0.5468
  163SAPE  H16R18330   2.608   6.413   8.054 -0.0272 -1.2897  0.5355
  163SAPE  H16S18331   2.465   6.518   8.058 -0.3619  1.0406  2.9948
  163SAPE  C21718332   2.566   6.514   8.247  0.0927 -0.3138  0.0404
  163SAPE  H17R18333   2.672   6.516   8.282 -0.3440 -0.7995  1.4158
  163SAPE  H17S18334   2.519   6.423   8.289  2.1447 -0.8133  1.4197
  163SAPE  C21818335   2.491   6.643   8.300  0.2081 -0.5317  0.1028
  163SAPE  H18R18336   2.397   6.663   8.244 -0.0573 -0.2965  0.6306
  163SAPE  H18S18337   2.565   6.725   8.290  1.2691 -1.6525 -2.1171
  163SAPE  C21918338   2.457   6.622   8.454  0.1360 -0.2197 -0.0391
  163SAPE  H19R18339   2.510   6.702   8.510  0.6656 -0.0344 -0.8003
  163SAPE  H19S18340   2.501   6.536   8.509  0.6472  2.8217  5.0311
  163SAPE  C22018341   2.308   6.637   8.500 -0.5499  0.0986  0.1395
  163SAPE  H20R18342   2.248   6.545   8.482 -2.4025  1.6969 -2.3615
  163SAPE  H20S18343   2.255   6.711   8.437  0.5519  0.7164 -0.0882
  163SAPE  H20T18344   2.306   6.669   8.606  0.6893 -1.7846  0.7823
  163SAPE   C3318345   2.862   6.442   7.321 -0.5537 -0.3839 -0.0125
  163SAPE   H3X18346   2.958   6.492   7.295 -1.3587  1.6388  0.6594
  163SAPE   H3Y18347   2.856   6.339   7.279 -4.5105  0.3862 -1.7383
  163SAPE   C3418348   2.862   6.461   7.468 -0.2483 -0.0697  0.0929
  163SAPE   H4X18349   2.765   6.441   7.517 -0.9144 -1.6577 -1.7304
  163SAPE   H4Y18350   2.872   6.570   7.487 -2.6521  0.1218  0.5294
  163SAPE   C3518351   2.965   6.384   7.555 -0.1070  0.5216  1.3125
  163SAPE   H5X18352   3.056   6.388   7.492 -0.2227 -1.4807  0.9430
  163SAPE   H5Y18353   2.940   6.276   7.560  0.1522  0.2837 -1.2890
  163SAPE   C3618354   2.989   6.435   7.696  0.1831 -0.4500  0.0739
  163SAPE   H6X18355   3.008   6.544   7.703  1.7819 -0.7628  1.4165
  163SAPE   H6Y18356   3.079   6.388   7.742 -1.1710 -1.6129  1.6598
  163SAPE   C3718357   2.876   6.390   7.789  0.0175  0.0915 -0.1526
  163SAPE   H7X18358   2.781   6.373   7.733  0.7239 -0.7062 -1.1364
  163SAPE   H7Y18359   2.870   6.459   7.876  0.3217 -0.9747  0.7369
  163SAPE   C3818360   2.917   6.245   7.843  0.3719 -0.0911 -0.2301
  163SAPE   H8X18361   3.012   6.267   7.896 -0.9451  3.0670  1.1213
  163SAPE   H8Y18362   2.920   6.180   7.753 -2.6853  0.0934 -0.5565
  163SAPE   C3918363   2.812   6.189   7.940 -0.3774  1.1283  0.1294
  163SAPE   H9X18364   2.827   6.079   7.938  0.9543  1.2886  0.0160
  163SAPE   H9Y18365   2.714   6.222   7.900 -1.0325 -2.3078 -1.4068
  163SAPE  C31018366   2.844   6.232   8.082  0.4367  0.6974  0.1736
  163SAPE  H10X18367   2.809   6.337   8.091  0.8956  1.0687 -1.7661
  163SAPE  H10Y18368   2.954   6.234   8.097  0.6618 -1.9937 -0.4933
  163SAPE  C31118369   2.778   6.140   8.184  0.5563  0.2095  0.4445
  163SAPE  H11X18370   2.834   6.045   8.173  2.5114  1.3793 -0.3241
  163SAPE  H11Y18371   2.671   6.126   8.158 -0.4362  3.9260  1.8374
  163SAPE  C31218372   2.783   6.174   8.333 -0.5653 -0.0891 -0.5728
  163SAPE  H12X18373   2.738   6.275   8.344 -0.0348  0.0292  0.7490
  163SAPE  H12Y18374   2.890   6.178   8.362 -0.2592  0.1790 -1.6948
  163SAPE  C31318375   2.699   6.086   8.423 -0.5975 -0.5620 -0.2218
  163SAPE  H13X18376   2.727   5.978   8.415  1.7765 -0.1663  1.4844
  163SAPE  H13Y18377   2.590   6.098   8.407 -0.5832  2.1079  1.1553
  163SAPE  C31418378   2.718   6.128   8.576 -0.2735  0.2653 -0.2444
  163SAPE  H14X18379   2.827   6.144   8.592 -0.4995  1.2642  0.4362
  163SAPE  H14Y18380   2.667   6.060   8.647 -1.4859  1.7475  0.3694
  163SAPE  C31518381   2.635   6.260   8.600 -0.8940 -0.5333  0.2039
  163SAPE  H15X18382   2.529   6.243   8.574 -1.2183  1.0871  0.3880
  163SAPE  H15Y18383   2.658   6.343   8.531 -2.3674 -0.5715 -0.3557
  163SAPE  C31618384   2.660   6.310   8.751  0.5992  0.0272 -0.0233
  163SAPE  H16X18385   2.769   6.328   8.751  0.7117 -0.5029 -1.8998
  163SAPE  H16Y18386   2.627   6.235   8.827 -1.5001 -0.5176 -1.3899
  163SAPE  C31718387   2.592   6.443   8.793 -0.6055 -0.8636  0.5864
  163SAPE  H17X18388   2.614   6.530   8.727 -2.0302 -1.0039 -0.1138
  163SAPE  H17Y18389   2.628   6.472   8.894 -2.1113  2.9754  0.1802
  163SAPE  C31818390   2.435   6.434   8.794 -0.6191 -0.1578 -0.6739
  163SAPE  H18X18391   2.412   6.351   8.864 -0.9316  0.9138  0.5235
  163SAPE  H18Y18392   2.386   6.410   8.697 -1.0625  0.6520 -0.6536
  163SAPE  H18Z18393   2.385   6.523   8.837 -0.2421  0.5575 -1.6911
  164SAPE     N18394   5.870   4.464   5.764  0.7278 -0.0313  0.5644
  164SAPE   HN118395   5.808   4.548   5.762 -0.8311 -1.1478 -0.1252
  164SAPE   HN218396   5.969   4.493   5.749 -0.0842  3.1519  0.6010
  164SAPE   HN318397   5.834   4.405   5.686 -0.3363 -0.2172  1.1840
  164SAPE   C1218398   5.841   4.398   5.895 -0.2050  0.0250  0.9990
  164SAPE  H12A18399   5.855   4.484   5.963 -1.6875  1.7199 -0.6991
  164SAPE  H12B18400   5.908   4.310   5.904  0.6990  0.3219 -1.7379
  164SAPE   C1118401   5.694   4.354   5.910 -0.0901  1.2436 -0.7864
  164SAPE  H11A18402   5.671   4.330   6.016  0.3131 -1.7495 -1.2999
  164SAPE  H11B18403   5.679   4.259   5.855 -0.1213 -0.3819  1.8722
  164SAPE     P18404   5.454   4.420   5.836  0.2203  0.0708  0.8357
  164SAPE   O1318405   5.400   4.523   5.754 -0.4034 -0.9725  0.5140
  164SAPE   O1418406   5.443   4.279   5.781 -0.3578 -0.2005  0.0804
  164SAPE   O1218407   5.599   4.454   5.870 -0.2262 -0.0873  0.3072
  164SAPE   O1118408   5.391   4.438   5.981  0.1341 -0.3983 -0.1216
  164SAPE    C118409   5.436   4.547   6.057 -0.3098 -0.3193 -0.0310
  164SAPE    HA18410   5.505   4.619   6.007  0.5739 -0.8665  0.3690
  164SAPE    HB18411   5.352   4.619   6.057  0.7284  0.9295 -0.0223
  164SAPE    C218412   5.494   4.524   6.196  0.4597 -0.2657  0.0134
  164SAPE    HS18413   5.570   4.444   6.180  0.3327 -0.2958 -0.4591
  164SAPE   O2118414   5.383   4.478   6.286 -0.0506  0.1416 -0.5916
  164SAPE   C2118415   5.414   4.403   6.388  0.6484  0.1164 -0.6014
  164SAPE   O2218416   5.528   4.361   6.406 -0.2033 -0.3334  0.5997
  164SAPE   C2218417   5.290   4.365   6.476 -0.3160  0.7539 -0.9614
  164SAPE   H2R18418   5.215   4.446   6.480 -1.1393 -0.0089 -0.7289
  164SAPE   H2S18419   5.245   4.280   6.420  0.5798 -0.5187  0.1615
  164SAPE    C318420   5.568   4.650   6.253 -0.1192 -0.5979 -0.7265
  164SAPE    HX18421   5.488   4.727   6.245 -0.6870 -1.0226  0.7071
  164SAPE    HY18422   5.653   4.682   6.189  0.5075  0.4720  0.6017
  164SAPE   O3118423   5.604   4.642   6.389 -0.1172 -0.9511 -0.1285
  164SAPE   C3118424   5.730   4.646   6.422 -0.3252  1.3842 -0.9051
  164SAPE   O3218425   5.824   4.636   6.345  0.3292 -0.4223  0.0282
  164SAPE   C3218426   5.730   4.671   6.578 -0.5206  0.2749 -0.1051
  164SAPE   H2X18427   5.674   4.587   6.623 -0.2705  0.6720  0.9733
  164SAPE   H2Y18428   5.670   4.762   6.600  0.6273  0.5187  2.3681
  164SAPE   C2318429   5.332   4.323   6.616 -0.0781 -0.0758  0.5893
  164SAPE   H3R18430   5.408   4.243   6.599 -2.4868 -2.0387 -2.0662
  164SAPE   H3S18431   5.242   4.267   6.649 -1.0875  0.5136 -1.0193
  164SAPE   C2418432   5.380   4.434   6.710 -0.1577  0.0539 -0.4350
  164SAPE   H4R18433   5.450   4.501   6.656 -0.6234  0.9238  0.0190
  164SAPE   H4S18434   5.440   4.388   6.791 -1.1280  2.0892  1.5468
  164SAPE   C2518435   5.268   4.520   6.771 -0.1597 -0.1410 -0.1894
  164SAPE   H5R18436   5.182   4.537   6.705 -0.2580  0.3838  0.0701
  164SAPE   C2618437   5.275   4.582   6.886 -0.2525  0.3545 -0.2281
  164SAPE   H6R18438   5.184   4.635   6.918 -0.6841 -0.3394 -0.2861
  164SAPE   C2718439   5.381   4.567   6.990  0.1985  0.3559 -0.4003
  164SAPE   H7R18440   5.418   4.462   6.995 -3.3013 -0.9622  0.6557
  164SAPE   H7S18441   5.336   4.574   7.091  0.1042 -2.5531 -0.1626
  164SAPE   C2818442   5.484   4.671   6.959  0.3869  0.7443 -0.6058
  164SAPE   H8R18443   5.546   4.659   6.868  0.8108 -1.4468 -0.0685
  164SAPE   C2918444   5.504   4.781   7.040 -0.4305  0.0212  0.2564
  164SAPE   H9R18445   5.583   4.853   7.014  1.0378 -1.8111 -0.5436
  164SAPE  C21018446   5.435   4.814   7.167  0.2037  0.1233 -0.3479
  164SAPE  H10R18447   5.503   4.800   7.253 -0.0806 -1.9582 -0.4136
  164SAPE  H10S18448   5.345   4.752   7.185 -0.1435  1.2937  2.4046
  164SAPE  C21118449   5.382   4.949   7.153  0.1517  0.5192  0.0612
  164SAPE  H11R18450   5.324   4.971   7.062  0.2283 -2.7856 -0.9158
  164SAPE  C21218451   5.379   5.035   7.252  0.3472 -0.1044 -0.5865
  164SAPE  H12R18452   5.325   5.130   7.239 -0.7264 -0.7259 -0.8612
  164SAPE  C21318453   5.440   5.023   7.391 -0.3870 -0.6012 -0.7064
  164SAPE  H13R18454   5.384   4.952   7.455 -0.9343 -1.0289 -1.6341
  164SAPE  H13S18455   5.418   5.120   7.441  0.4053 -0.1460 -1.2232
  164SAPE  C21418456   5.590   5.011   7.402  0.5959 -0.8268  0.3536
  164SAPE  H14R18457   5.635   5.061   7.315 -0.8781  0.1538  0.1137
  164SAPE  C21518458   5.660   4.967   7.502 -0.1090  0.1154 -0.0798
  164SAPE  H15R18459   5.768   4.989   7.506 -0.1993  0.4163  3.0450
  164SAPE  C21618460   5.616   4.889   7.622 -0.2776 -0.5805  0.3879
  164SAPE  H16R18461   5.675   4.795   7.621  0.1336 -0.3263  0.3967
  164SAPE  H16S18462   5.514   4.849   7.605 -0.9460 -0.1308  2.9591
  164SAPE  C21718463   5.621   4.978   7.750  0.1275 -0.8650  0.0809
  164SAPE  H17R18464   5.726   5.004   7.778 -0.2104 -0.1978  0.7673
  164SAPE  H17S18465   5.577   4.926   7.838  0.1338 -2.6838 -0.9474
  164SAPE  C21818466   5.537   5.109   7.736 -0.2979 -0.3352 -0.4935
  164SAPE  H18R18467   5.558   5.169   7.645  1.2365 -1.7850 -1.1566
  164SAPE  H18S18468   5.576   5.168   7.821  0.4129  2.0197 -2.3375
  164SAPE  C21918469   5.389   5.077   7.749 -0.3233  0.4640 -0.2797
  164SAPE  H19R18470   5.377   5.024   7.847 -0.6736 -2.8879 -1.9976
  164SAPE  H19S18471   5.353   5.009   7.669 -0.4045  0.3515 -0.1490
  164SAPE  C22018472   5.306   5.215   7.742 -0.4740  0.7843  0.0468
  164SAPE  H20R18473   5.311   5.274   7.648 -1.6604 -0.4917 -0.8602
  164SAPE  H20S18474   5.364   5.273   7.816  2.0440 -1.7517  0.2240
  164SAPE  H20T18475   5.203   5.202   7.782 -0.3544 -1.2205 -0.1940
  164SAPE   C3318476   5.864   4.692   6.648  0.4332  0.4537 -0.1612
  164SAPE   H3X18477   5.921   4.776   6.604  0.3073  1.7776  2.0802
  164SAPE   H3Y18478   5.934   4.605   6.643  0.9181  0.5969  2.6034
  164SAPE   C3418479   5.840   4.719   6.796  0.1110  0.7047  0.2378
  164SAPE   H4X18480   5.834   4.625   6.856  0.5338  0.9312  0.6395
  164SAPE   H4Y18481   5.744   4.774   6.803  0.5135  1.4143  0.3045
  164SAPE   C3518482   5.936   4.817   6.862  1.3104 -0.0993  0.6603
  164SAPE   H5X18483   5.924   4.920   6.821 -0.8777  0.3926  2.3594
  164SAPE   H5Y18484   6.039   4.786   6.833  2.3327  2.4191  1.2866
  164SAPE   C3618485   5.927   4.821   7.013 -0.2698  0.4017 -0.8369
  164SAPE   H6X18486   5.836   4.871   7.051  0.0886  0.8667 -0.5744
  164SAPE   H6Y18487   6.010   4.888   7.045  1.5043 -2.5898  1.3202
  164SAPE   C3718488   5.946   4.679   7.081  0.4628  0.8454  0.3355
  164SAPE   H7X18489   6.038   4.633   7.039 -0.2242 -0.2645 -0.0023
  164SAPE   H7Y18490   5.856   4.617   7.063  0.2718  1.2180  0.0015
  164SAPE   C3818491   5.950   4.688   7.234 -0.4153  0.1925  0.3481
  164SAPE   H8X18492   5.847   4.711   7.270  0.1383  0.8779  1.5495
  164SAPE   H8Y18493   6.019   4.763   7.278 -1.7976  0.5551  2.0047
  164SAPE   C3918494   5.986   4.558   7.300  0.2446 -0.2152 -0.2953
  164SAPE   H9X18495   6.094   4.534   7.291  0.4589 -0.0789  1.5534
  164SAPE   H9Y18496   5.926   4.477   7.254 -2.1724  0.9037  0.6788
  164SAPE  C31018497   5.944   4.558   7.449  0.2251 -0.7911  1.0213
  164SAPE  H10X18498   5.974   4.459   7.490  0.5423 -0.9384  0.4606
  164SAPE  H10Y18499   5.834   4.563   7.463  0.5351  1.7533  3.1775
  164SAPE  C31118500   6.008   4.665   7.534  0.0838  0.1331 -0.4352
  164SAPE  H11X18501   5.956   4.763   7.537  0.9549  0.5868  0.8010
  164SAPE  H11Y18502   6.107   4.695   7.494  0.3244  0.2615  0.2420
  164SAPE  C31218503   6.028   4.620   7.683  0.0379 -0.3405 -0.3237
  164SAPE  H12X18504   6.102   4.686   7.733  1.9895 -2.6368 -0.0195
  164SAPE  H12Y18505   6.065   4.516   7.691 -1.8301 -1.2154 -2.2950
  164SAPE  C31318506   5.895   4.621   7.766 -0.9117  0.0886 -0.2100
  164SAPE  H13X18507   5.814   4.581   7.702 -1.0393 -0.6708  0.4167
  164SAPE  H13Y18508   5.864   4.727   7.775  0.8238  0.8033 -1.9731
  164SAPE  C31418509   5.917   4.558   7.901 -0.1571 -0.8840  0.4565
  164SAPE  H14X18510   6.012   4.598   7.942 -0.2746  0.0971 -0.2123
  164SAPE  H14Y18511   5.919   4.447   7.899  3.4717 -0.9576  0.6338
  164SAPE  C31518512   5.814   4.602   8.007 -0.5886  0.5452  0.6409
  164SAPE  H15X18513   5.713   4.570   7.975  1.1848 -1.6495 -3.6700
  164SAPE  H15Y18514   5.826   4.713   8.003  1.2409  0.4402  1.8744
  164SAPE  C31618515   5.844   4.555   8.151 -0.1936  0.1405 -0.7130
  164SAPE  H16X18516   5.952   4.538   8.167 -0.5154 -0.9646  0.3766
  164SAPE  H16Y18517   5.797   4.456   8.163 -0.5589  0.3242 -0.6009
  164SAPE  C31718518   5.774   4.645   8.251  0.0863  0.0252 -0.9074
  164SAPE  H17X18519   5.666   4.625   8.268 -0.4548  1.5972 -2.2529
  164SAPE  H17Y18520   5.786   4.749   8.215  0.9956  0.1460 -0.2928
  164SAPE  C31818521   5.847   4.637   8.383 -0.4483  0.2696  0.3183
  164SAPE  H18X18522   5.957   4.648   8.378 -0.4475 -0.2242 -1.2920
  164SAPE  H18Y18523   5.833   4.535   8.425 -0.4030 -0.0853 -0.5242
  164SAPE  H18Z18524   5.808   4.708   8.460 -1.2347  1.2351 -0.9334
  165SAPE     N18525   5.950   0.418   6.161 -0.5531  0.9206 -0.4484
  165SAPE   HN118526   6.016   0.419   6.242  0.7255 -1.3220 -1.3513
  165SAPE   HN218527   5.950   0.515   6.124 -1.5425  0.9301 -0.4506
  165SAPE   HN318528   5.854   0.394   6.191 -2.4557  3.3558 -3.8477
  165SAPE   C1218529   5.985   0.315   6.069 -0.4663 -0.0546  0.3950
  165SAPE  H12A18530   5.910   0.313   5.987 -0.7729 -1.6813  0.6697
  165SAPE  H12B18531   5.973   0.221   6.127 -2.3814  0.2237  0.5250
  165SAPE   C1118532   6.127   0.329   6.003  0.2445 -0.6238  0.2866
  165SAPE  H11A18533   6.122   0.429   5.954  2.0456  1.5223  4.0568
  165SAPE  H11B18534   6.141   0.247   5.930  0.3644 -2.4656  2.2651
  165SAPE     P18535   6.381   0.368   6.054  0.0345  0.0861  0.0002
  165SAPE   O1318536   6.384   0.291   5.931  0.1434  0.4722  0.1913
  165SAPE   O1418537   6.390   0.519   6.050  0.2021 -0.6127 -0.0728
  165SAPE   O1218538   6.233   0.334   6.099  0.1164  0.2311 -0.3740
  165SAPE   O1118539   6.482   0.314   6.167 -0.0178 -0.0817  0.3211
  165SAPE    C118540   6.447   0.200   6.240  0.3798  0.3462  0.3841
  165SAPE    HA18541   6.402   0.122   6.175  0.5982 -0.3166  1.0142
  165SAPE    HB18542   6.542   0.151   6.270  1.1827  0.2482 -2.0804
  165SAPE    C218543   6.349   0.208   6.365  0.1280  0.2369  0.6420
  165SAPE    HS18544   6.281   0.293   6.341 -0.5685 -0.4488  0.1275
  165SAPE   O2118545   6.422   0.229   6.487 -0.2890 -0.0538  0.5318
  165SAPE   C2118546   6.379   0.320   6.569  0.1489 -0.0707  0.1381
  165SAPE   O2218547   6.268   0.379   6.563  0.0298 -0.6768  0.1515
  165SAPE   C2218548   6.495   0.346   6.671  0.1748 -0.9819  0.1429
  165SAPE   H2R18549   6.501   0.249   6.725 -1.6413 -0.5934  1.0987
  165SAPE   H2S18550   6.585   0.368   6.609 -0.0055  2.6921  0.9485
  165SAPE    C318551   6.254   0.088   6.379 -0.4370 -0.0408 -0.8566
  165SAPE    HX18552   6.321  -0.000   6.383 -1.1349 -0.6384 -1.8484
  165SAPE    HY18553   6.188   0.077   6.290 -2.3376  0.7963  0.3886
  165SAPE   O3118554   6.181   0.081   6.503  0.0958  0.1449  0.3105
  165SAPE   C3118555   6.061   0.135   6.495  0.1301 -0.4662 -0.4706
  165SAPE   O3218556   6.018   0.193   6.395  0.5490 -0.0864  0.2627
  165SAPE   C3218557   5.984   0.103   6.626  0.5275  0.7315  0.2590
  165SAPE   H2X18558   5.988  -0.007   6.644 -0.2384  0.3171 -1.8760
  165SAPE   H2Y18559   5.882   0.147   6.619  1.0973  2.0677  0.0991
  165SAPE   C2318560   6.467   0.463   6.760  0.6406  0.0452  0.0978
  165SAPE   H3R18561   6.414   0.542   6.704  0.7340  0.4221  0.5410
  165SAPE   H3S18562   6.558   0.514   6.796 -0.1728  1.0429  0.7836
  165SAPE   C2418563   6.392   0.443   6.888  0.0214  0.1852 -0.6578
  165SAPE   H4R18564   6.287   0.409   6.872 -0.3281 -0.0549  1.8019
  165SAPE   H4S18565   6.382   0.546   6.925 -1.1411  0.1403 -0.8205
  165SAPE   C2518566   6.467   0.354   6.991  0.3930 -0.1777  0.4659
  165SAPE   H5R18567   6.515   0.259   6.960  0.1405 -0.4477  0.8902
  165SAPE   C2618568   6.455   0.376   7.118  0.5826 -0.2198 -0.3748
  165SAPE   H6R18569   6.500   0.302   7.187 -1.8213  0.9542  2.6626
  165SAPE   C2718570   6.380   0.488   7.188  0.2357  0.2773 -0.1221
  165SAPE   H7R18571   6.293   0.536   7.138  0.2345  0.8388  0.3964
  165SAPE   H7S18572   6.449   0.569   7.221 -0.5875  0.2334  1.9174
  165SAPE   C2818573   6.315   0.442   7.318  0.2227 -0.9899 -0.0651
  165SAPE   H8R18574   6.205   0.441   7.316  0.1499  0.5742  1.4264
  165SAPE   C2918575   6.374   0.427   7.441 -0.0763 -0.3529  0.4100
  165SAPE   H9R18576   6.315   0.398   7.529 -1.1258 -0.9509 -0.4787
  165SAPE  C21018577   6.517   0.450   7.469  0.1505  0.4038 -0.1719
  165SAPE  H10R18578   6.525   0.539   7.536 -2.8626  0.3986  0.3081
  165SAPE  H10S18579   6.581   0.475   7.382  0.5301 -1.6656 -0.5330
  165SAPE  C21118580   6.581   0.334   7.543 -0.1254  0.1136  0.0448
  165SAPE  H11R18581   6.620   0.260   7.472  0.6477  3.3161 -3.1775
  165SAPE  C21218582   6.610   0.333   7.674 -0.3718 -0.5766 -0.5262
  165SAPE  H12R18583   6.670   0.247   7.709  0.3244 -1.8799 -4.4872
  165SAPE  C21318584   6.583   0.443   7.771  0.3788 -0.2657 -0.7503
  165SAPE  H13R18585   6.599   0.542   7.724  0.7303 -0.6288 -1.4087
  165SAPE  H13S18586   6.663   0.442   7.849 -0.1800  3.3529  0.0467
  165SAPE  C21418587   6.448   0.439   7.839  0.1763 -0.3079  0.6226
  165SAPE  H14R18588   6.378   0.369   7.792 -0.7512  1.5487 -0.9166
  165SAPE  C21518589   6.399   0.532   7.929  0.6559  0.8832  0.7066
  165SAPE  H15R18590   6.289   0.529   7.938  0.2309  1.7879 -2.7949
  165SAPE  C21618591   6.464   0.653   7.983 -0.7437 -0.7071 -0.0568
  165SAPE  H16R18592   6.401   0.741   7.955  0.1828 -0.5371 -1.7155
  165SAPE  H16S18593   6.565   0.655   7.937  0.0965 -2.4488  1.5728
  165SAPE  C21718594   6.476   0.643   8.137  0.0613  0.1013 -0.4773
  165SAPE  H17R18595   6.551   0.720   8.165  1.3839 -0.7418 -1.5605
  165SAPE  H17S18596   6.514   0.545   8.174  0.3662  0.6318  0.6529
  165SAPE  C21818597   6.346   0.671   8.215 -0.2831 -0.1333  0.0565
  165SAPE  H18R18598   6.259   0.608   8.186 -0.7101 -0.1234  1.2669
  165SAPE  H18S18599   6.305   0.770   8.187 -0.2443  0.7332  2.8561
  165SAPE  C21918600   6.349   0.663   8.369  0.5330 -0.0085 -0.2478
  165SAPE  H19R18601   6.406   0.571   8.393  0.7583  0.2617  0.2439
  165SAPE  H19S18602   6.250   0.651   8.418  0.7206  0.1786  0.1811
  165SAPE  C22018603   6.427   0.782   8.431  0.2991  0.9351  0.3552
  165SAPE  H20R18604   6.518   0.813   8.375  2.0939 -0.3901  2.3518
  165SAPE  H20S18605   6.468   0.760   8.532  0.6546 -0.7820 -0.1380
  165SAPE  H20T18606   6.365   0.874   8.436 -0.6622  0.2560  1.7530
  165SAPE   C3318607   6.026   0.172   6.755 -0.1836  0.1289 -0.4448
  165SAPE   H3X18608   6.024   0.280   6.733 -1.7121  0.1022 -0.5495
  165SAPE   H3Y18609   6.133   0.151   6.776 -0.8745 -1.5278  1.8760
  165SAPE   C3418610   5.953   0.131   6.884  0.2561 -0.4071 -0.4625
  165SAPE   H4X18611   5.933   0.023   6.896 -2.7083  0.3466  3.6777
  165SAPE   H4Y18612   5.855   0.184   6.880  1.5787  2.2605  0.2211
  165SAPE   C3518613   6.019   0.181   7.010  0.3414  0.5391 -0.0221
  165SAPE   H5X18614   6.035   0.291   7.005 -0.1438  0.5564 -2.9534
  165SAPE   H5Y18615   6.112   0.120   7.010 -0.1485 -0.3472 -2.8096
  165SAPE   C3618616   5.935   0.130   7.126 -0.2492 -0.5215 -0.0891
  165SAPE   H6X18617   5.927   0.020   7.114  1.4806 -0.6693 -0.1384
  165SAPE   H6Y18618   5.838   0.184   7.124  0.3138  0.5273 -0.6348
  165SAPE   C3718619   6.013   0.147   7.259 -0.9247 -0.2227  0.3685
  165SAPE   H7X18620   6.026   0.254   7.286 -2.9625  0.5442 -1.3687
  165SAPE   H7Y18621   6.114   0.103   7.245 -0.7612 -0.9348  3.1098
  165SAPE   C3818622   5.935   0.076   7.377 -0.6901 -0.4045  0.0741
  165SAPE   H8X18623   5.909  -0.030   7.356  1.9639 -0.9625 -0.7269
  165SAPE   H8Y18624   5.842   0.137   7.384  0.8557  2.3123 -1.3132
  165SAPE   C3918625   6.013   0.078   7.503  0.1735  0.2833  0.3164
  165SAPE   H9X18626   6.094   0.004   7.488 -0.3535 -0.1569 -0.4096
  165SAPE   H9Y18627   5.940   0.047   7.580 -0.2226 -0.5477 -0.3843
  165SAPE  C31018628   6.075   0.208   7.551 -0.5997  0.5713 -0.3690
  165SAPE  H10X18629   6.003   0.291   7.536 -0.9329  0.3542 -0.0084
  165SAPE  H10Y18630   6.168   0.224   7.494  0.0817 -2.0947 -0.1738
  165SAPE  C31118631   6.128   0.196   7.701  0.1276 -0.1996  0.9608
  165SAPE  H11X18632   6.178   0.294   7.715  4.1869 -1.8682 -0.1692
  165SAPE  H11Y18633   6.210   0.122   7.713  0.2521 -0.3432 -0.5464
  165SAPE  C31218634   6.021   0.193   7.807 -0.0775  0.4549 -0.1406
  165SAPE  H12X18635   6.000   0.085   7.824  0.0686  0.4741  0.1593
  165SAPE  H12Y18636   5.930   0.247   7.775 -0.3214  0.1631  0.0522
  165SAPE  C31318637   6.082   0.233   7.941  0.5539  0.1077 -0.2318
  165SAPE  H13X18638   6.114   0.338   7.927 -0.7111  0.2233 -2.8864
  165SAPE  H13Y18639   6.161   0.156   7.958  0.1267 -0.5298 -1.0408
  165SAPE  C31418640   5.982   0.227   8.060 -0.5474 -0.1997  0.1598
  165SAPE  H14X18641   5.957   0.119   8.066 -0.3779 -0.2001  1.0346
  165SAPE  H14Y18642   5.894   0.294   8.049 -1.3229 -1.3360 -0.7816
  165SAPE  C31518643   6.047   0.275   8.198  0.1943 -0.0650  0.1119
  165SAPE  H15X18644   6.094   0.374   8.182  3.0276 -1.2674  0.4106
  165SAPE  H15Y18645   6.130   0.206   8.226  2.2542  2.1929 -0.0858
  165SAPE  C31618646   5.947   0.269   8.319 -0.3331 -0.4174 -0.0334
  165SAPE  H16X18647   5.891   0.174   8.325 -1.4936  0.2993  1.3245
  165SAPE  H16Y18648   5.875   0.352   8.304 -0.0790 -0.1436  0.2242
  165SAPE  C31718649   6.018   0.292   8.454  0.7728 -0.4057  0.5409
  165SAPE  H17X18650   6.109   0.229   8.462  0.5191 -1.1294 -1.5427
  165SAPE  H17Y18651   5.941   0.264   8.529 -1.7730 -3.2696 -2.7460
  165SAPE  C31818652   6.051   0.436   8.484  0.5071 -0.0442 -0.2690
  165SAPE  H18X18653   6.073   0.455   8.591 -0.6616  2.3839 -0.3925
  165SAPE  H18Y18654   5.969   0.502   8.447  0.8754 -0.3850 -1.7645
  165SAPE  H18Z18655   6.147   0.458   8.433  1.3229 -3.4173 -0.4210
  166SAPE     N18656   5.547   3.587   6.242 -0.8823 -0.5858  0.1108
  166SAPE   HN118657   5.600   3.558   6.157  0.3582  0.3354  0.5447
  166SAPE   HN218658   5.509   3.501   6.287 -1.1232 -0.6848 -0.2731
  166SAPE   HN318659   5.475   3.656   6.212  0.8546  1.6159  0.7738
  166SAPE   C1218660   5.648   3.653   6.337 -0.2520 -0.7629  0.2593
  166SAPE  H12A18661   5.587   3.737   6.377  1.2251  0.0440  0.8614
  166SAPE  H12B18662   5.734   3.683   6.274 -0.6831  1.0687  0.4805
  166SAPE   C1118663   5.699   3.559   6.445  0.7968 -0.1307 -0.2619
  166SAPE  H11A18664   5.622   3.527   6.519  1.1379 -1.4430 -0.4438
  166SAPE  H11B18665   5.771   3.618   6.504  0.9260 -0.0147 -0.5352
  166SAPE     P18666   5.909   3.421   6.373 -0.2421  0.2535 -0.4596
  166SAPE   O1318667   5.929   3.281   6.334  0.3304 -0.4414  0.1742
  166SAPE   O1418668   5.952   3.522   6.275 -0.0506 -0.5028 -0.3019
  166SAPE   O1218669   5.755   3.435   6.395 -0.4792  0.3855 -0.2217
  166SAPE   O1118670   5.967   3.454   6.516 -0.0350 -0.2530  0.1396
  166SAPE    C118671   6.058   3.369   6.583  0.2000 -0.5696  0.7826
  166SAPE    HA18672   6.029   3.264   6.561  0.8966 -0.8621  1.2560
  166SAPE    HB18673   6.162   3.393   6.556 -0.4620  0.4301 -1.0046
  166SAPE    C218674   6.053   3.386   6.739 -0.7143  0.1480  0.6123
  166SAPE    HS18675   6.131   3.321   6.785  0.6729  1.9352  0.8574
  166SAPE   O2118676   5.921   3.355   6.792 -0.0601  0.2208 -0.9065
  166SAPE   C2118677   5.865   3.238   6.773 -0.2617 -0.1501  0.0151
  166SAPE   O2218678   5.907   3.136   6.718 -0.1281  0.3978  0.5157
  166SAPE   C2218679   5.733   3.238   6.849  0.2506  0.4032  0.0343
  166SAPE   H2R18680   5.656   3.290   6.788 -2.6995 -1.8668  1.5957
  166SAPE   H2S18681   5.697   3.133   6.850 -1.6468  1.0225 -0.3892
  166SAPE    C318682   6.100   3.530   6.778  0.4214 -0.1092 -0.1624
  166SAPE    HX18683   6.020   3.603   6.757  1.5093  1.2611  0.3269
  166SAPE    HY18684   6.188   3.547   6.713  1.4054  2.4883  1.7097
  166SAPE   O3118685   6.131   3.538   6.913  0.8030 -0.5023  0.7458
  166SAPE   C3118686   6.050   3.602   6.996  0.0772 -0.1571 -0.2255
  166SAPE   O3218687   5.956   3.674   6.967  0.2416 -0.2213  0.8327
  166SAPE   C3218688   6.083   3.555   7.142 -0.3706 -0.5752 -0.4469
  166SAPE   H2X18689   6.182   3.598   7.166 -1.3334  0.5205  1.9080
  166SAPE   H2Y18690   6.079   3.446   7.121 -0.3828 -0.5097 -0.7832
  166SAPE   C2318691   5.739   3.321   6.975 -0.2045 -0.0465 -0.9001
  166SAPE   H3R18692   5.636   3.336   7.014 -0.2719 -0.8169 -0.7752
  166SAPE   H3S18693   5.774   3.424   6.954 -1.3673  1.0333  1.9577
  166SAPE   C2418694   5.825   3.254   7.083 -0.4281 -0.9197  0.4251
  166SAPE   H4R18695   5.847   3.342   7.146 -0.2491 -0.3090 -0.4707
  166SAPE   H4S18696   5.917   3.212   7.037 -0.7602  0.8713 -2.0733
  166SAPE   C2518697   5.757   3.147   7.165  0.0299 -0.9607 -0.1393
  166SAPE   H5R18698   5.715   3.056   7.121  2.4668 -1.8808 -0.7038
  166SAPE   C2618699   5.750   3.139   7.303 -0.2717 -0.2107 -0.1771
  166SAPE   H6R18700   5.695   3.057   7.351 -2.2083 -0.2076 -2.1807
  166SAPE   C2718701   5.798   3.244   7.398 -0.0241 -0.9347 -0.1211
  166SAPE   H7R18702   5.724   3.241   7.481  0.5040  2.5180  0.6042
  166SAPE   H7S18703   5.800   3.348   7.360  3.0582 -1.5647 -2.0137
  166SAPE   C2818704   5.932   3.210   7.463 -0.0603 -0.0600 -0.0281
  166SAPE   H8R18705   6.012   3.177   7.396 -0.1556  0.5886 -0.4591
  166SAPE   C2918706   5.958   3.212   7.600  0.1756 -0.0822 -0.1922
  166SAPE   H9R18707   6.061   3.201   7.637  0.2593  1.1137 -0.0400
  166SAPE  C21018708   5.864   3.239   7.719  0.3543 -0.3894 -0.4723
  166SAPE  H10R18709   5.759   3.258   7.688  0.7810 -0.3055 -1.9870
  166SAPE  H10S18710   5.889   3.340   7.759 -0.2713  0.4949 -2.2123
  166SAPE  C21118711   5.887   3.138   7.836  0.2840 -0.0313  0.3886
  166SAPE  H11R18712   5.868   3.034   7.805  2.3588  0.2107 -1.9724
  166SAPE  C21218713   5.925   3.163   7.962 -0.1563 -0.4162  0.1161
  166SAPE  H12R18714   5.921   3.083   8.037 -2.1479  0.8090  1.4102
  166SAPE  C21318715   5.982   3.294   8.010  1.2301 -1.0752 -0.3444
  166SAPE  H13R18716   6.029   3.355   7.930  0.7628  0.7263  0.6875
  166SAPE  H13S18717   6.056   3.276   8.090  0.9148 -0.0089  0.2059
  166SAPE  C21418718   5.860   3.363   8.079  0.1248  0.1518  0.4383
  166SAPE  H14R18719   5.759   3.335   8.047 -0.0904 -0.1595  1.3717
  166SAPE  C21518720   5.874   3.453   8.175 -0.6428 -0.5145 -0.2086
  166SAPE  H15R18721   5.789   3.508   8.218 -1.5285 -1.7132 -0.3531
  166SAPE  C21618722   6.006   3.506   8.220  0.0123  0.2160 -0.0217
  166SAPE  H16R18723   5.997   3.611   8.254 -1.9674 -0.2734  1.1666
  166SAPE  H16S18724   6.071   3.512   8.130 -2.2692  2.2856 -1.6482
  166SAPE  C21718725   6.058   3.417   8.324 -0.6509  0.1037 -0.4131
  166SAPE  H17R18726   6.072   3.310   8.299 -0.1202  0.1360 -0.2604
  166SAPE  H17S18727   5.988   3.418   8.411 -0.6082  0.5889 -0.3790
  166SAPE  C21818728   6.196   3.458   8.378 -0.0739 -0.1316 -1.0358
  166SAPE  H18R18729   6.183   3.551   8.438 -0.5552  1.9690 -4.1750
  166SAPE  H18S18730   6.251   3.494   8.289  0.3222  0.1595 -0.6797
  166SAPE  C21918731   6.276   3.353   8.462  0.4803  0.1714  0.1438
  166SAPE  H19R18732   6.372   3.394   8.499 -0.0570 -0.1869  2.0372
  166SAPE  H19S18733   6.294   3.270   8.390 -0.8656  0.0820 -0.1262
  166SAPE  C22018734   6.190   3.302   8.586  0.0995 -0.1332  0.3894
  166SAPE  H20R18735   6.256   3.256   8.662 -0.0001 -2.3917 -0.7928
  166SAPE  H20S18736   6.120   3.225   8.546  0.0716  0.4437 -0.7200
  166SAPE  H20T18737   6.144   3.393   8.631  2.2134  1.5255 -0.6184
  166SAPE   C3318738   5.969   3.588   7.240  0.0320 -0.4755 -0.2102
  166SAPE   H3X18739   5.888   3.517   7.212  0.7673 -0.9848 -1.1098
  166SAPE   H3Y18740   5.937   3.693   7.221 -0.9067 -0.9363 -1.3285
  166SAPE   C3418741   6.002   3.589   7.391  0.4428  0.1818 -0.3191
  166SAPE   H4X18742   6.099   3.640   7.410  0.2146  0.2836  0.5777
  166SAPE   H4Y18743   6.020   3.484   7.421  0.0434  0.1746 -0.0942
  166SAPE   C3518744   5.891   3.647   7.476  0.2956 -0.5057 -0.1615
  166SAPE   H5X18745   5.793   3.597   7.464 -1.4320  1.6925  3.2151
  166SAPE   H5Y18746   5.879   3.755   7.451  2.9281 -0.2434 -0.5476
  166SAPE   C3618747   5.912   3.634   7.626 -0.2325 -0.3131  0.5385
  166SAPE   H6X18748   5.889   3.531   7.661  0.6215 -1.1696 -1.2871
  166SAPE   H6Y18749   5.841   3.697   7.683  1.8383  2.9666 -0.2339
  166SAPE   C3718750   6.042   3.669   7.688 -0.2478  0.0954 -0.8198
  166SAPE   H7X18751   6.089   3.753   7.633  1.1498 -0.5542 -0.6491
  166SAPE   H7Y18752   6.115   3.586   7.688 -1.9536 -1.4905  0.4439
  166SAPE   C3818753   6.044   3.693   7.845  0.2421  0.0473  0.2084
  166SAPE   H8X18754   6.022   3.600   7.903 -0.0007  0.6272  1.0709
  166SAPE   H8Y18755   5.962   3.762   7.874 -0.5561 -0.7112 -0.2028
  166SAPE   C3918756   6.175   3.761   7.878 -0.6654  0.3209 -0.6801
  166SAPE   H9X18757   6.175   3.859   7.827  1.4043  0.6118 -0.2165
  166SAPE   H9Y18758   6.264   3.710   7.835 -0.8371 -1.3537  0.8406
  166SAPE  C31018759   6.187   3.789   8.027 -0.5398 -0.1339 -0.3717
  166SAPE  H10X18760   6.224   3.707   8.091 -1.4689  1.1627  1.9344
  166SAPE  H10Y18761   6.085   3.822   8.057 -0.3880 -0.7754  0.9244
  166SAPE  C31118762   6.292   3.903   8.050  0.1521  0.1254  0.5274
  166SAPE  H11X18763   6.241   3.989   8.002  0.5847 -0.4506 -1.0408
  166SAPE  H11Y18764   6.381   3.879   7.986  0.6581 -1.2040  1.6738
  166SAPE  C31218765   6.327   3.928   8.199  0.0148 -0.9650 -0.2165
  166SAPE  H12X18766   6.409   4.002   8.207 -1.2708  0.6137 -0.9281
  166SAPE  H12Y18767   6.344   3.830   8.248  2.7911  1.0319  3.2463
  166SAPE  C31318768   6.209   3.994   8.278  0.8663 -0.0630  0.2847
  166SAPE  H13X18769   6.249   4.026   8.376 -0.4872  2.5185  0.0827
  166SAPE  H13Y18770   6.123   3.923   8.281  0.4937  0.3935  0.5423
  166SAPE  C31418771   6.144   4.119   8.215 -0.6709 -0.0012 -0.3887
  166SAPE  H14X18772   6.054   4.135   8.277 -1.0795 -1.7010 -0.5068
  166SAPE  H14Y18773   6.098   4.097   8.116 -0.3006 -2.8286 -0.0087
  166SAPE  C31518774   6.242   4.238   8.215  0.2170  0.4028  0.0898
  166SAPE  H15X18775   6.335   4.212   8.160  0.7183  1.1995  0.5393
  166SAPE  H15Y18776   6.259   4.253   8.324  1.2199  0.8420 -0.1191
  166SAPE  C31618777   6.179   4.366   8.159  0.8891 -0.0207  0.0909
  166SAPE  H16X18778   6.113   4.412   8.235  0.0283  1.6412 -1.5844
  166SAPE  H16Y18779   6.122   4.339   8.068 -1.3987  0.9951  1.1479
  166SAPE  C31718780   6.284   4.476   8.125 -0.3326 -0.0784  0.4369
  166SAPE  H17X18781   6.218   4.548   8.072  0.1813  0.1009  0.0362
  166SAPE  H17Y18782   6.364   4.434   8.061  0.0430  1.4121 -0.1013
  166SAPE  C31818783   6.338   4.538   8.253  0.0100  0.2572  0.0907
  166SAPE  H18X18784   6.252   4.572   8.314  1.1614  0.8539  1.4449
  166SAPE  H18Y18785   6.398   4.630   8.235 -0.8720  0.9089  0.3982
  166SAPE  H18Z18786   6.392   4.464   8.316  0.0601 -0.1405 -0.4074
  167SAPE     N18787   6.632   3.341   5.934 -0.0677  0.2991  0.1107
  167SAPE   HN118788   6.548   3.374   5.882 -2.1085  0.3947  3.2019
  167SAPE   HN218789   6.617   3.243   5.966  1.6920  0.1593  0.6213
  167SAPE   HN318790   6.635   3.396   6.022  0.6245  0.5252 -0.0466
  167SAPE   C1218791   6.765   3.361   5.868 -0.7552 -0.1757  0.2298
  167SAPE  H12A18792   6.768   3.461   5.821  0.3016 -0.5542 -0.5387
  167SAPE  H12B18793   6.771   3.296   5.778  1.1280 -1.1721  1.0167
  167SAPE   C1118794   6.874   3.344   5.977 -0.2265  0.6916  0.6417
  167SAPE  H11A18795   6.864   3.426   6.051  3.8886  1.8433  0.1514
  167SAPE  H11B18796   6.972   3.363   5.928  0.6555 -0.9399  1.6975
  167SAPE     P18797   6.983   3.111   6.053 -0.1644  0.1937 -0.0790
  167SAPE   O1318798   7.041   3.102   5.915  0.2562  0.6483  0.0065
  167SAPE   O1418799   7.073   3.138   6.171  0.3011  0.2316  0.2964
  167SAPE   O1218800   6.872   3.219   6.040  0.1847  0.7761  0.0774
  167SAPE   O1118801   6.899   2.985   6.086  0.1806  0.0943  0.0364
  167SAPE    C118802   6.802   2.980   6.193 -0.8243 -0.2800 -0.0072
  167SAPE    HA18803   6.773   3.081   6.228 -1.4894 -0.2026 -0.7565
  167SAPE    HB18804   6.712   2.931   6.149  0.1355 -0.5311 -1.8195
  167SAPE    C218805   6.844   2.880   6.305  0.0582  0.4832  0.0568
  167SAPE    HS18806   6.947   2.899   6.340  0.9436 -0.5426 -1.8571
  167SAPE   O2118807   6.838   2.740   6.257  0.8130 -0.1965 -0.1506
  167SAPE   C2118808   6.913   2.655   6.319  0.6318  0.4037 -0.2771
  167SAPE   O2218809   7.003   2.687   6.394 -0.2565 -0.8039 -0.3410
  167SAPE   C2218810   6.875   2.510   6.280  0.5966 -0.0919 -0.2936
  167SAPE   H2R18811   6.774   2.505   6.236  0.8320  0.2369 -0.8720
  167SAPE   H2S18812   6.943   2.477   6.198 -0.0230  0.1561 -0.9082
  167SAPE    C318813   6.750   2.900   6.429 -0.7232  0.0595  0.2716
  167SAPE    HX18814   6.652   2.859   6.395 -0.8082  1.5440 -1.4144
  167SAPE    HY18815   6.739   3.010   6.445 -2.1348 -0.1389  0.8685
  167SAPE   O3118816   6.800   2.831   6.546  0.3273 -0.5823  0.3032
  167SAPE   C3118817   6.765   2.888   6.662 -0.3317 -0.2311  0.5287
  167SAPE   O3218818   6.682   2.979   6.677 -0.5508  0.1764 -0.0849
  167SAPE   C3218819   6.845   2.818   6.772  0.2157 -0.4253  0.5702
  167SAPE   H2X18820   6.950   2.832   6.741 -0.6456  0.9372 -2.0533
  167SAPE   H2Y18821   6.810   2.712   6.777 -0.6875 -0.1053  1.4218
  167SAPE   C2318822   6.884   2.416   6.403  0.3276  0.5343 -1.2447
  167SAPE   H3R18823   6.984   2.427   6.452  0.4019  0.8132 -1.4559
  167SAPE   H3S18824   6.876   2.310   6.371  2.0717  0.1434 -0.5342
  167SAPE   C2418825   6.773   2.444   6.508  0.5571 -0.0737  1.3671
  167SAPE   H4R18826   6.776   2.551   6.540  1.0335 -0.2022  1.7454
  167SAPE   H4S18827   6.809   2.389   6.597 -0.3460 -2.3422  0.3975
  167SAPE   C2518828   6.632   2.409   6.479  0.5113  0.3441  0.1490
  167SAPE   H5R18829   6.615   2.304   6.452  2.4351 -0.2715  1.1857
  167SAPE   C2618830   6.522   2.482   6.492  0.9741 -0.0256  0.9445
  167SAPE   H6R18831   6.419   2.443   6.480  1.3890 -0.6587 -0.8372
  167SAPE   C2718832   6.502   2.618   6.543  0.2317 -0.4256 -0.9815
  167SAPE   H7R18833   6.399   2.650   6.515 -0.6213 -1.4517  0.8020
  167SAPE   H7S18834   6.571   2.689   6.493  0.3102  1.4758  1.6429
  167SAPE   C2818835   6.531   2.611   6.687  0.4114 -0.0772 -0.9856
  167SAPE   H8R18836   6.639   2.610   6.710  0.6319  2.5400 -1.6784
  167SAPE   C2918837   6.443   2.596   6.788  0.9559 -0.6406  1.6073
  167SAPE   H9R18838   6.485   2.605   6.890  0.3713  1.5313  1.6936
  167SAPE  C21018839   6.296   2.580   6.781 -0.4926  0.2548  0.1834
  167SAPE  H10R18840   6.260   2.511   6.861  2.9960 -0.9271  0.9256
  167SAPE  H10S18841   6.254   2.525   6.695 -0.1797  0.6609 -0.2320
  167SAPE  C21118842   6.216   2.710   6.796 -0.4578  0.0524  0.8206
  167SAPE  H11R18843   6.202   2.773   6.706 -0.9487  1.0248  1.5566
  167SAPE  C21218844   6.155   2.756   6.902 -0.5127 -0.3365 -0.6287
  167SAPE  H12R18845   6.104   2.854   6.898 -0.8998 -0.5450 -0.8798
  167SAPE  C21318846   6.163   2.691   7.041  0.6649 -0.0269  0.0182
  167SAPE  H13R18847   6.154   2.778   7.110 -0.2503 -0.0849 -0.0099
  167SAPE  H13S18848   6.253   2.630   7.061 -0.3923 -1.4801  0.5146
  167SAPE  C21418849   6.053   2.598   7.071  0.5788 -0.1573  0.6426
  167SAPE  H14R18850   6.075   2.496   7.036  0.1281  0.7984 -2.7801
  167SAPE  C21518851   5.945   2.626   7.144 -0.0234  0.0002 -0.0420
  167SAPE  H15R18852   5.863   2.553   7.149 -0.8640  0.9722  2.9643
  167SAPE  C21618853   5.891   2.753   7.209  0.5017 -0.1839 -0.1169
  167SAPE  H16R18854   5.802   2.788   7.154 -0.6046 -1.7860  0.5731
  167SAPE  H16S18855   5.975   2.826   7.197 -0.0246  0.3335 -0.7103
  167SAPE  C21718856   5.862   2.741   7.360 -0.9845 -0.5632  0.4664
  167SAPE  H17R18857   5.812   2.822   7.417 -1.0614  1.8736 -2.8337
  167SAPE  H17S18858   5.964   2.741   7.405 -0.3037 -0.3068 -1.0090
  167SAPE  C21818859   5.793   2.607   7.411 -0.0128  0.0096  0.4611
  167SAPE  H18R18860   5.858   2.520   7.387 -1.2859 -0.9094  0.1854
  167SAPE  H18S18861   5.700   2.608   7.350  0.2021  0.9817  0.1281
  167SAPE  C21918862   5.754   2.606   7.558  0.1438  0.1557 -0.0823
  167SAPE  H19R18863   5.680   2.687   7.575  1.1948  1.3166 -0.8648
  167SAPE  H19S18864   5.844   2.618   7.622 -0.0900 -0.0750  0.2931
  167SAPE  C22018865   5.686   2.476   7.606  0.4007  0.1348 -0.1215
  167SAPE  H20R18866   5.756   2.392   7.585  2.3559  1.2466  1.5562
  167SAPE  H20S18867   5.588   2.455   7.558  0.3320 -0.1384  0.1381
  167SAPE  H20T18868   5.668   2.477   7.716  1.1433 -0.5368  0.0174
  167SAPE   C3318869   6.823   2.880   6.915 -0.3854 -0.6210  0.0095
  167SAPE   H3X18870   6.819   2.991   6.921 -2.1915 -0.6885  0.6080
  167SAPE   H3Y18871   6.909   2.838   6.972 -1.2196 -0.7472  1.2041
  167SAPE   C3418872   6.703   2.826   6.979  0.0844  0.4766  0.5500
  167SAPE   H4X18873   6.700   2.715   6.981  2.0622  0.3575 -0.2553
  167SAPE   H4Y18874   6.614   2.860   6.923  0.1991 -0.1461 -0.0250
  167SAPE   C3518875   6.685   2.880   7.118  0.0384  0.1525 -0.8798
  167SAPE   H5X18876   6.674   2.990   7.115  0.1411  0.1689 -0.6700
  167SAPE   H5Y18877   6.780   2.852   7.170 -1.3292 -2.0782  0.5818
  167SAPE   C3618878   6.558   2.826   7.174  0.4294 -0.2398 -0.7114
  167SAPE   H6X18879   6.555   2.716   7.183 -1.2104 -0.0671  2.0784
  167SAPE   H6Y18880   6.476   2.856   7.104 -0.0542  0.0170 -0.0482
  167SAPE   C3718881   6.529   2.879   7.319  0.1284  0.0113 -0.0076
  167SAPE   H7X18882   6.569   2.982   7.332 -0.4579  0.4778 -1.6651
  167SAPE   H7Y18883   6.596   2.811   7.376  2.8860  1.1443 -1.7364
  167SAPE   C3818884   6.387   2.860   7.368  0.3616 -0.6258  0.9039
  167SAPE   H8X18885   6.354   2.755   7.351 -0.6346 -0.2566  0.5184
  167SAPE   H8Y18886   6.319   2.920   7.304 -0.7629 -3.4645 -0.7727
  167SAPE   C3918887   6.370   2.889   7.520 -0.3143 -0.1996  0.1414
  167SAPE   H9X18888   6.391   2.993   7.553  0.6244 -0.4677  0.4252
  167SAPE   H9Y18889   6.444   2.833   7.582 -0.2361 -1.1172 -0.7591
  167SAPE  C31018890   6.222   2.850   7.562 -0.7436  0.2633  1.0964
  167SAPE  H10X18891   6.196   2.750   7.523 -1.9547 -0.1268  2.7929
  167SAPE  H10Y18892   6.153   2.920   7.509 -2.6243 -2.1460  0.2073
  167SAPE  C31118893   6.200   2.837   7.712  0.0721 -0.4300 -0.3462
  167SAPE  H11X18894   6.197   2.939   7.757  0.0804 -0.7638  0.4264
  167SAPE  H11Y18895   6.287   2.784   7.756  0.9272  0.6773 -0.6540
  167SAPE  C31218896   6.066   2.768   7.758 -0.1074  0.3809 -0.4320
  167SAPE  H12X18897   6.070   2.670   7.705  1.6303  0.0018  0.3342
  167SAPE  H12Y18898   5.984   2.827   7.711  0.6204  1.3380 -0.5386
  167SAPE  C31318899   6.047   2.746   7.905 -0.4444  0.0340  0.1826
  167SAPE  H13X18900   6.040   2.851   7.941  3.5602  0.4497  0.2469
  167SAPE  H13Y18901   6.142   2.696   7.933  0.5873  1.9343  0.2785
  167SAPE  C31418902   5.922   2.667   7.938 -0.8347  1.0139  0.0201
  167SAPE  H14X18903   5.952   2.617   8.033  0.7849 -1.4494 -1.6530
  167SAPE  H14Y18904   5.898   2.594   7.858 -2.1246  1.8651 -0.4077
  167SAPE  C31518905   5.801   2.760   7.950 -0.0457  0.0782 -0.4164
  167SAPE  H15X18906   5.780   2.805   7.851  0.8621 -3.0812 -2.1601
  167SAPE  H15Y18907   5.827   2.840   8.023  1.9160 -0.4351 -0.4962
  167SAPE  C31618908   5.668   2.689   7.993 -1.3469 -0.5862  0.5318
  167SAPE  H16X18909   5.638   2.633   7.902  2.4848 -0.0062 -1.3247
  167SAPE  H16Y18910   5.597   2.774   8.000  0.3289  0.8466  0.9770
  167SAPE  C31718911   5.677   2.615   8.128  0.2787 -0.3593  0.0345
  167SAPE  H17X18912   5.740   2.523   8.128  2.4185  0.9971  1.6203
  167SAPE  H17Y18913   5.575   2.581   8.155  0.3700 -0.1710  0.6340
  167SAPE  C31818914   5.729   2.701   8.239 -0.2958 -0.7012 -0.2063
  167SAPE  H18X18915   5.678   2.799   8.241  0.3113 -0.3895  0.3971
  167SAPE  H18Y18916   5.839   2.714   8.232 -0.0759 -1.7022  1.0401
  167SAPE  H18Z18917   5.706   2.656   8.338  0.5083 -1.2198 -0.2456
  168SAPE     N18918   1.024   3.688   5.513  0.0389  0.1756  0.2054
  168SAPE   HN118919   0.984   3.709   5.419  1.9903 -2.3764 -1.3217
  168SAPE   HN218920   1.120   3.727   5.518  0.4121 -0.7027  0.0210
  168SAPE   HN318921   1.033   3.586   5.531  0.0845 -0.5920 -3.3571
  168SAPE   C1218922   0.945   3.749   5.623 -0.4570 -0.3044 -0.1235
  168SAPE  H12A18923   0.945   3.669   5.700 -1.0018 -1.2727 -1.0955
  168SAPE  H12B18924   0.842   3.765   5.585 -1.5063 -2.3637  1.6174
  168SAPE   C1118925   1.010   3.877   5.671 -0.3831  0.0165  0.4313
  168SAPE  H11A18926   0.940   3.922   5.745  0.1303  3.0426 -0.7949
  168SAPE  H11B18927   1.016   3.945   5.583  1.9118 -1.3358 -0.5396
  168SAPE     P18928   1.155   3.832   5.874 -0.2524  0.1413 -0.4482
  168SAPE   O1318929   1.274   3.748   5.900  0.1192  0.0564 -0.1074
  168SAPE   O1418930   1.159   3.968   5.935  0.4524 -0.2954  0.1875
  168SAPE   O1218931   1.144   3.851   5.721  0.4508  0.1322  0.2669
  168SAPE   O1118932   1.032   3.752   5.923  0.9489  0.1742  0.2774
  168SAPE    C118933   0.933   3.806   6.014 -0.4268  0.0443  1.1889
  168SAPE    HA18934   0.881   3.898   5.979  1.8000  2.1535  3.1208
  168SAPE    HB18935   0.847   3.737   5.999  0.2953 -0.8766  1.2078
  168SAPE    C218936   0.979   3.815   6.159 -0.1206  0.2831 -0.6084
  168SAPE    HS18937   1.034   3.912   6.165 -0.7973  0.6874 -0.7914
  168SAPE   O2118938   1.060   3.705   6.201 -0.0146  0.1593  0.6209
  168SAPE   C2118939   1.125   3.707   6.313  0.4361 -0.1878  0.1845
  168SAPE   O2218940   1.136   3.799   6.391 -0.3364  0.1979  0.0024
  168SAPE   C2218941   1.188   3.565   6.322 -0.1453  0.1282  0.1632
  168SAPE   H2R18942   1.099   3.499   6.330 -0.5332  0.5031 -0.8339
  168SAPE   H2S18943   1.246   3.542   6.230 -0.5822 -1.1202  0.1787
  168SAPE    C318944   0.841   3.822   6.234 -0.3375 -0.5696  0.0952
  168SAPE    HX18945   0.776   3.735   6.208  0.2423 -2.0400  3.0621
  168SAPE    HY18946   0.780   3.904   6.191 -0.5341 -0.3079  0.8620
  168SAPE   O3118947   0.852   3.853   6.374  0.0889  0.2577  0.4614
  168SAPE   C3118948   0.800   3.771   6.468  0.6119 -0.4077  0.3105
  168SAPE   O3218949   0.772   3.653   6.450 -0.3167 -0.8373  0.1387
  168SAPE   C3218950   0.791   3.849   6.597 -0.2945  0.2387 -0.1326
  168SAPE   H2X18951   0.882   3.913   6.606  0.1268 -0.6795  3.6038
  168SAPE   H2Y18952   0.794   3.773   6.678  0.8760  0.6064  0.1913
  168SAPE   C2318953   1.276   3.556   6.455 -0.2219  0.1542 -0.1143
  168SAPE   H3R18954   1.295   3.655   6.500  1.9389 -0.6174  0.7983
  168SAPE   H3S18955   1.376   3.510   6.440 -0.1265  0.6539 -1.0806
  168SAPE   C2418956   1.209   3.479   6.569  0.6401 -0.4327  0.2789
  168SAPE   H4R18957   1.166   3.390   6.520  0.8118  0.7404 -2.1652
  168SAPE   H4S18958   1.114   3.533   6.590  1.4344  2.7294 -3.0517
  168SAPE   C2518959   1.294   3.466   6.691 -0.3389 -0.1135 -0.2332
  168SAPE   H5R18960   1.387   3.410   6.673  0.3077  1.1181 -0.8675
  168SAPE   C2618961   1.274   3.517   6.812 -0.5061  0.4764 -0.2606
  168SAPE   H6R18962   1.350   3.493   6.887 -0.8158 -0.6926 -0.3048
  168SAPE   C2718963   1.164   3.595   6.865  0.1880 -0.6473  0.1452
  168SAPE   H7R18964   1.097   3.527   6.922 -0.4115  0.8994  1.3716
  168SAPE   H7S18965   1.127   3.652   6.778  1.5166 -1.5779 -1.0677
  168SAPE   C2818966   1.207   3.710   6.955  0.0491  0.8045 -0.3858
  168SAPE   H8R18967   1.301   3.760   6.928  0.1109  0.7088 -0.3479
  168SAPE   C2918968   1.167   3.719   7.087 -0.0364  0.3168  0.3165
  168SAPE   H9R18969   1.206   3.793   7.158 -2.6175 -0.1769  2.4268
  168SAPE  C21018970   1.064   3.638   7.154 -0.8069  0.7517 -0.7146
  168SAPE  H10R18971   1.029   3.549   7.097 -0.7220 -1.0230  1.8384
  168SAPE  H10S18972   0.976   3.706   7.164  1.0599  2.9898  1.7602
  168SAPE  C21118973   1.111   3.578   7.282 -0.2848 -0.6760  0.2442
  168SAPE  H11R18974   1.163   3.481   7.276  0.0765 -0.4527 -0.3517
  168SAPE  C21218975   1.118   3.635   7.404 -0.4302  0.1292  0.0655
  168SAPE  H12R18976   1.128   3.566   7.489 -0.0335 -2.7099 -2.1272
  168SAPE  C21318977   1.079   3.775   7.438 -0.1202 -0.1711  0.1703
  168SAPE  H13R18978   0.973   3.792   7.466 -0.0337 -0.9705  1.0471
  168SAPE  H13S18979   1.088   3.842   7.350  1.3693  0.6382  0.9034
  168SAPE  C21418980   1.161   3.838   7.551 -0.1047 -0.5682  0.5689
  168SAPE  H14R18981   1.245   3.902   7.520  0.3089 -0.4777  1.8011
  168SAPE  C21518982   1.130   3.829   7.678 -0.7329  0.3971  0.0110
  168SAPE  H15R18983   1.207   3.865   7.748 -1.2032 -0.7281  1.1579
  168SAPE  C21618984   1.027   3.748   7.751 -0.4561 -0.0539  0.1854
  168SAPE  H16R18985   1.066   3.647   7.773  0.7383  0.5256  0.8310
  168SAPE  H16S18986   0.931   3.748   7.695 -0.3872  1.0559  0.0354
  168SAPE  C21718987   0.985   3.811   7.887  0.1264  0.1960  0.6970
  168SAPE  H17R18988   0.950   3.916   7.872 -1.9052 -0.4417  0.6587
  168SAPE  H17S18989   1.079   3.817   7.945 -0.2995  2.1246  1.2927
  168SAPE  C21818990   0.868   3.728   7.934  0.3127 -0.1426 -0.2259
  168SAPE  H18R18991   0.900   3.622   7.944  1.7109  0.2864  0.0260
  168SAPE  H18S18992   0.786   3.742   7.860  1.5276 -0.6197 -1.7277
  168SAPE  C21918993   0.810   3.776   8.075 -0.2935 -0.4037 -0.0860
  168SAPE  H19R18994   0.793   3.883   8.053  0.5375 -0.2898 -0.2158
  168SAPE  H19S18995   0.895   3.759   8.144  0.0131 -0.0346 -0.3694
  168SAPE  C22018996   0.680   3.713   8.112 -0.4028 -0.2684 -0.6122
  168SAPE  H20R18997   0.687   3.602   8.102  0.6013 -0.1461 -1.3464
  168SAPE  H20S18998   0.602   3.744   8.040 -1.0068 -0.1879  0.0613
  168SAPE  H20T18999   0.651   3.726   8.219 -0.4888 -0.2318 -0.6392
  168SAPE   C3319000   0.671   3.954   6.600  0.1675  0.7262  0.0815
  168SAPE   H3X19001   0.576   3.896   6.604  0.8892 -0.4168  3.1061
  168SAPE   H3Y19002   0.681   4.018   6.510  2.9673  0.8824  0.4407
  168SAPE   C3419003   0.670   4.039   6.725  0.0838  0.8053  0.6865
  168SAPE   H4X19004   0.575   4.095   6.715 -1.6214 -1.6024  2.4282
  168SAPE   H4Y19005   0.758   4.108   6.725  2.0588 -1.5769  0.4615
  168SAPE   C3519006   0.659   3.956   6.858 -0.1075  0.1060 -0.1036
  168SAPE   H5X19007   0.741   3.881   6.855 -0.5830 -0.4551  0.5232
  168SAPE   H5Y19008   0.561   3.904   6.858 -1.3516  2.3211  0.1140
  168SAPE   C3619009   0.681   4.048   6.975 -0.0738 -0.0832 -0.0759
  168SAPE   H6X19010   0.591   4.114   6.970  0.7285  0.9459 -2.5928
  168SAPE   H6Y19011   0.766   4.119   6.961 -0.3126  0.4516  1.0901
  168SAPE   C3719012   0.673   3.983   7.113 -0.7602 -0.6960  0.0619
  168SAPE   H7X19013   0.756   3.910   7.130  0.3960  0.7230  0.7128
  168SAPE   H7Y19014   0.575   3.936   7.134 -1.0520 -0.8392 -1.4830
  168SAPE   C3819015   0.705   4.084   7.225 -0.3473 -1.0968 -1.2354
  168SAPE   H8X19016   0.651   4.180   7.232  1.5014 -0.0567 -0.4153
  168SAPE   H8Y19017   0.812   4.109   7.214 -0.5150 -0.9421 -2.5658
  168SAPE   C3919018   0.675   4.025   7.369 -0.0782 -0.0937 -0.5815
  168SAPE   H9X19019   0.715   3.921   7.371 -0.6153 -0.2997  0.3655
  168SAPE   H9Y19020   0.565   4.016   7.385 -0.7121 -1.7209 -4.5448
  168SAPE  C31019021   0.728   4.109   7.487  0.0714 -0.0589 -0.3484
  168SAPE  H10X19022   0.717   4.217   7.464  0.1845 -0.0796 -0.5023
  168SAPE  H10Y19023   0.835   4.080   7.491 -0.7604 -3.5757  0.8113
  168SAPE  C31119024   0.659   4.079   7.616  0.0065  0.5172 -0.1900
  168SAPE  H11X19025   0.661   3.968   7.622 -1.8256  0.3023 -2.4379
  168SAPE  H11Y19026   0.551   4.097   7.598  0.0521  0.7584 -0.2272
  168SAPE  C31219027   0.711   4.148   7.742 -1.3057 -0.5275 -0.2282
  168SAPE  H12X19028   0.699   4.257   7.729 -0.5850 -0.5221 -0.9280
  168SAPE  H12Y19029   0.818   4.119   7.752 -1.0502  0.0148 -1.2998
  168SAPE  C31319030   0.652   4.115   7.874  0.2013 -0.1352  0.2599
  168SAPE  H13X19031   0.665   4.006   7.889 -1.7394 -0.6689 -1.5497
  168SAPE  H13Y19032   0.551   4.159   7.867  0.0350 -0.8145 -3.1362
  168SAPE  C31419033   0.740   4.181   7.977 -0.0489  0.5801  0.1861
  168SAPE  H14X19034   0.752   4.288   7.948  1.8327  0.1996 -0.5729
  168SAPE  H14Y19035   0.842   4.138   7.981 -0.5689 -0.5875  1.9819
  168SAPE  C31519036   0.681   4.185   8.122 -0.3097 -0.6570  0.2793
  168SAPE  H15X19037   0.678   4.084   8.168  2.8162 -0.9774  0.0362
  168SAPE  H15Y19038   0.573   4.207   8.107 -0.2622 -0.7755 -0.2505
  168SAPE  C31619039   0.746   4.287   8.213 -0.6486  0.6426 -0.1611
  168SAPE  H16X19040   0.722   4.387   8.173  1.3559  2.0254  1.8425
  168SAPE  H16Y19041   0.856   4.277   8.222 -0.5801  1.2565 -0.2968
  168SAPE  C31719042   0.679   4.284   8.353  0.3369 -0.7047  0.0852
  168SAPE  H17X19043   0.683   4.185   8.404 -0.3200 -1.0507 -0.5067
  168SAPE  H17Y19044   0.572   4.314   8.351  1.0276  1.8913 -0.6442
  168SAPE  C31819045   0.747   4.392   8.444 -0.0786  0.9791 -0.0453
  168SAPE  H18X19046   0.702   4.386   8.545  1.3555 -2.3308  0.5401
  168SAPE  H18Y19047   0.716   4.493   8.409 -3.0725 -0.4905 -2.0233
  168SAPE  H18Z19048   0.856   4.378   8.465 -0.8218 -2.0675  2.6255
  169SAPE     N19049   0.328   0.188   6.232  0.7265 -0.3446  0.4252
  169SAPE   HN119050   0.247   0.131   6.201 -0.1054  0.8750  0.2809
  169SAPE   HN219051   0.341   0.267   6.166  0.4099 -0.1026  0.6415
  169SAPE   HN319052   0.410   0.125   6.239  2.2889  1.7202  1.9829
  169SAPE   C1219053   0.286   0.227   6.369  0.0703 -0.0429  0.0273
  169SAPE  H12A19054   0.292   0.136   6.432  3.4394 -0.3332 -0.5208
  169SAPE  H12B19055   0.180   0.255   6.354  0.2523  0.6369 -0.0381
  169SAPE   C1119056   0.382   0.334   6.426 -0.0145 -0.4386 -0.2066
  169SAPE  H11A19057   0.481   0.285   6.442 -0.0770 -0.1221  1.3469
  169SAPE  H11B19058   0.348   0.362   6.528  0.0844 -0.9572 -0.0257
  169SAPE     P19059   0.299   0.554   6.305  0.3724 -0.1567 -0.0373
  169SAPE   O1319060   0.348   0.646   6.199  0.9394  0.7982 -0.4755
  169SAPE   O1419061   0.167   0.490   6.293 -0.9498  0.2098  0.2895
  169SAPE   O1219062   0.406   0.446   6.332  0.4710 -0.5218 -0.1689
  169SAPE   O1119063   0.297   0.642   6.439 -0.2324  0.3652  0.3647
  169SAPE    C119064   0.402   0.642   6.536  0.2443  0.3853  0.1342
  169SAPE    HA19065   0.404   0.554   6.604  1.0165  1.7704  1.9768
  169SAPE    HB19066   0.505   0.654   6.496  0.1848  1.6332  0.3374
  169SAPE    C219067   0.387   0.767   6.633  0.4124 -0.0340 -0.1072
  169SAPE    HS19068   0.486   0.780   6.682 -0.5342 -0.0442  1.9248
  169SAPE   O2119069   0.288   0.732   6.725 -0.8997  0.4691 -0.1057
  169SAPE   C2119070   0.335   0.674   6.839  0.4194  0.4956 -0.1940
  169SAPE   O2219071   0.450   0.669   6.876  0.9913 -0.0625  0.5702
  169SAPE   C2219072   0.227   0.640   6.943  0.0743  0.1260  0.0374
  169SAPE   H2R19073   0.239   0.534   6.973 -0.0640  0.3587  0.9401
  169SAPE   H2S19074   0.252   0.704   7.030  1.7276 -1.1965  0.5901
  169SAPE    C319075   0.347   0.899   6.571 -0.1515  0.2258  0.4585
  169SAPE    HX19076   0.240   0.892   6.541  0.0720 -0.3111 -0.2437
  169SAPE    HY19077   0.406   0.902   6.477 -1.5232 -1.4813 -0.5337
  169SAPE   O3119078   0.377   1.006   6.657 -0.0038  0.3625 -0.3507
  169SAPE   C3119079   0.272   1.051   6.721 -0.0543 -0.2961  0.6688
  169SAPE   O3219080   0.157   1.017   6.703  0.1075  0.6093  0.6172
  169SAPE   C3219081   0.320   1.151   6.827 -0.0341 -0.9245 -0.3195
  169SAPE   H2X19082   0.263   1.246   6.826 -0.5641 -1.0936  2.9549
  169SAPE   H2Y19083   0.428   1.166   6.806 -0.3135  0.7145 -0.7377
  169SAPE   C2319084   0.083   0.661   6.888  0.5322 -0.4595 -0.0987
  169SAPE   H3R19085   0.050   0.573   6.830  3.5447 -0.6024 -1.8169
  169SAPE   H3S19086   0.078   0.737   6.807  0.2918  0.5172  0.8052
  169SAPE   C2419087  -0.025   0.721   6.985  0.6539  0.0544 -0.2259
  169SAPE   H4R19088  -0.047   0.650   7.068 -1.6977 -0.6584 -1.3613
  169SAPE   H4S19089  -0.127   0.736   6.942  0.4122 -1.7790 -0.3856
  169SAPE   C2519090   0.023   0.849   7.034  0.3944 -0.0923 -0.6158
  169SAPE   H5R19091   0.039   0.932   6.965  0.0142  0.5722  0.0830
  169SAPE   C2619092   0.063   0.882   7.158  0.2323 -0.0948  0.2475
  169SAPE   H6R19093   0.095   0.987   7.165 -1.1036  0.3624 -0.0782
  169SAPE   C2719094   0.057   0.792   7.278  0.0101  0.4969 -0.4683
  169SAPE   H7R19095   0.000   0.699   7.252  0.0983 -0.1050  1.3401
  169SAPE   H7S19096   0.008   0.833   7.369 -2.6070 -0.7368 -1.2361
  169SAPE   C2819097   0.199   0.754   7.314 -0.4350  0.4168 -0.6239
  169SAPE   H8R19098   0.276   0.767   7.237 -0.2956 -1.5788 -0.8711
  169SAPE   C2919099   0.226   0.708   7.434  0.5324  0.0678 -0.9633
  169SAPE   H9R19100   0.330   0.690   7.464 -0.3938 -0.0425  2.6642
  169SAPE  C21019101   0.131   0.687   7.549  0.5159  0.1778 -0.4840
  169SAPE  H10R19102   0.169   0.594   7.595  0.7731  0.2060 -0.6379
  169SAPE  H10S19103   0.023   0.670   7.527 -0.3079 -0.0426  3.1563
  169SAPE  C21119104   0.112   0.796   7.657  0.1153 -0.0669 -0.2017
  169SAPE  H11R19105   0.085   0.897   7.624 -1.4467  0.5654  2.7504
  169SAPE  C21219106   0.126   0.778   7.790 -0.1268  0.0358 -0.1119
  169SAPE  H12R19107   0.101   0.865   7.853  0.6763 -0.3790  0.8165
  169SAPE  C21319108   0.149   0.650   7.860  0.4311  0.1772  0.3961
  169SAPE  H13R19109   0.088   0.571   7.813  0.6528  0.4791 -0.4090
  169SAPE  H13S19110   0.105   0.662   7.962  1.7352  0.9269  0.8934
  169SAPE  C21419111   0.298   0.625   7.867 -0.2753 -0.9645 -0.2056
  169SAPE  H14R19112   0.345   0.587   7.775  0.4302  0.3926 -0.4365
  169SAPE  C21519113   0.373   0.655   7.972  0.4624 -0.0564  0.4633
  169SAPE  H15R19114   0.480   0.653   7.949 -0.0787  1.0810 -2.7725
  169SAPE  C21619115   0.329   0.695   8.118  1.0363  0.0264  0.5379
  169SAPE  H16R19116   0.231   0.746   8.128  0.4161 -0.7990 -0.9863
  169SAPE  H16S19117   0.406   0.762   8.161 -1.2778  1.8520  2.0979
  169SAPE  C21719118   0.318   0.569   8.209  0.7876 -0.0044 -0.3806
  169SAPE  H17R19119   0.309   0.595   8.316  0.2027  0.2676 -0.4959
  169SAPE  H17S19120   0.415   0.516   8.200 -0.2832 -1.7495 -3.0769
  169SAPE  C21819121   0.201   0.471   8.173 -0.1250 -0.3074  0.3058
  169SAPE  H18R19122   0.217   0.440   8.068 -2.0085  2.3760 -0.9038
  169SAPE  H18S19123   0.106   0.529   8.168 -0.0982 -0.2596  0.3540
  169SAPE  C21919124   0.203   0.358   8.274  0.6977  0.7812  0.4654
  169SAPE  H19R19125   0.128   0.279   8.249  1.4382  0.5946 -1.2860
  169SAPE  H19S19126   0.174   0.405   8.371 -2.1098  1.2964 -0.5271
  169SAPE  C22019127   0.337   0.281   8.291  0.4891  0.6285  0.4045
  169SAPE  H20R19128   0.332   0.195   8.361  1.3334  0.2061 -0.0387
  169SAPE  H20S19129   0.421   0.344   8.327 -0.1409 -0.4908  4.3682
  169SAPE  H20T19130   0.372   0.243   8.193  0.7076 -3.2480  1.7990
  169SAPE   C3319131   0.300   1.090   6.966 -0.8442 -0.3064  0.0782
  169SAPE   H3X19132   0.348   0.990   6.965 -1.1845 -0.4709  0.1737
  169SAPE   H3Y19133   0.192   1.099   6.989 -0.4386  2.3890  1.2769
  169SAPE   C3419134   0.361   1.175   7.077  0.4877  0.0215  0.1568
  169SAPE   H4X19135   0.314   1.275   7.067 -0.2309 -0.1586  1.5741
  169SAPE   H4Y19136   0.468   1.180   7.045 -0.1751 -0.3650 -2.3677
  169SAPE   C3519137   0.341   1.111   7.218  0.1957 -0.1083 -0.2241
  169SAPE   H5X19138   0.362   1.002   7.206  0.9074  0.1659 -1.6425
  169SAPE   H5Y19139   0.231   1.112   7.233  0.0434  1.3856 -1.2698
  169SAPE   C3619140   0.405   1.169   7.345  0.5808 -0.0652  0.2286
  169SAPE   H6X19141   0.371   1.274   7.361  1.6586  0.3258  0.0509
  169SAPE   H6Y19142   0.515   1.174   7.333  0.4767  1.1178 -0.4024
  169SAPE   C3719143   0.370   1.095   7.476  0.4374 -0.0825  0.2122
  169SAPE   H7X19144   0.409   0.993   7.455  0.3670  0.0443 -0.5869
  169SAPE   H7Y19145   0.259   1.092   7.477  0.3801 -0.8178 -2.0617
  169SAPE   C3819146   0.418   1.159   7.608 -0.3333  0.5741  0.6348
  169SAPE   H8X19147   0.370   1.257   7.623  0.5382  0.9465  1.0743
  169SAPE   H8Y19148   0.524   1.183   7.584  0.0404 -1.4348  0.0100
  169SAPE   C3919149   0.386   1.084   7.730  0.6203 -0.2303 -0.3796
  169SAPE   H9X19150   0.439   0.988   7.741 -0.0395 -0.9922 -3.1548
  169SAPE   H9Y19151   0.280   1.050   7.721  1.2579 -2.3597 -0.2760
  169SAPE  C31019152   0.406   1.171   7.858  0.0717  0.1311 -0.0523
  169SAPE  H10X19153   0.334   1.254   7.840 -2.2982 -2.4796 -4.2810
  169SAPE  H10Y19154   0.507   1.216   7.853  0.2731 -0.4162 -1.1771
  169SAPE  C31119155   0.365   1.090   7.983 -0.3366  0.6768 -1.0280
  169SAPE  H11X19156   0.416   0.991   7.990 -0.0647  0.8722 -0.2017
  169SAPE  H11Y19157   0.256   1.074   7.968 -0.9988 -0.2298  3.3634
  169SAPE  C31219158   0.405   1.156   8.118  0.1278 -0.8540 -0.1285
  169SAPE  H12X19159   0.335   1.242   8.128  1.7173  0.7946 -2.3087
  169SAPE  H12Y19160   0.507   1.201   8.121 -0.9676  2.1497 -2.6137
  169SAPE  C31319161   0.394   1.064   8.240  0.0472 -0.2370  0.1304
  169SAPE  H13X19162   0.446   1.107   8.329 -1.1172 -1.4019  1.4080
  169SAPE  H13Y19163   0.461   0.982   8.206 -1.0764 -0.9257 -0.4674
  169SAPE  C31419164   0.252   1.012   8.270  0.3633 -0.2273 -0.3298
  169SAPE  H14X19165   0.207   0.963   8.181 -1.2938  1.7972 -0.6745
  169SAPE  H14Y19166   0.190   1.102   8.292  1.2214  0.6402 -1.3224
  169SAPE  C31519167   0.238   0.911   8.381  0.1293 -0.4079  0.3376
  169SAPE  H15X19168   0.317   0.834   8.368  0.2119 -0.1145 -1.0471
  169SAPE  H15Y19169   0.140   0.858   8.373 -0.5542  1.0414 -1.7233
  169SAPE  C31619170   0.253   0.961   8.531  0.3504  0.1196 -0.1911
  169SAPE  H16X19171   0.318   1.050   8.539  0.6387 -0.1516  0.6709
  169SAPE  H16Y19172   0.294   0.878   8.592 -0.2969  0.4937  0.7846
  169SAPE  C31719173   0.120   0.990   8.598  0.4180  0.4457 -0.4668
  169SAPE  H17X19174   0.049   0.906   8.584 -1.4247  1.8681 -0.0158
  169SAPE  H17Y19175   0.070   1.078   8.552  0.6951  2.0698  2.1367
  169SAPE  C31819176   0.124   1.023   8.743 -0.6702 -0.2474 -0.1823
  169SAPE  H18X19177   0.025   1.034   8.791 -0.5236 -1.6883  0.5172
  169SAPE  H18Y19178   0.190   1.111   8.762  0.9470 -1.6236  0.9548
  169SAPE  H18Z19179   0.169   0.932   8.789 -0.0678 -0.1314 -0.5290
  170SAPE     N19180   1.502   2.500   6.513  0.2177  0.0477 -0.2777
  170SAPE   HN119181   1.487   2.601   6.529 -0.5461  0.2430 -2.0345
  170SAPE   HN219182   1.425   2.452   6.563 -0.0314  0.2200 -0.4952
  170SAPE   HN319183   1.596   2.470   6.546  0.8786  1.7122 -0.5685
  170SAPE   C1219184   1.501   2.468   6.370  0.7738 -0.4385  0.1261
  170SAPE  H12A19185   1.550   2.373   6.341  2.2175  0.5063 -0.6846
  170SAPE  H12B19186   1.562   2.545   6.318 -0.9220  2.9150  2.6740
  170SAPE   C1119187   1.350   2.465   6.328  0.1032  0.0050  0.0250
  170SAPE  H11A19188   1.278   2.404   6.386  0.0498  1.8243  1.9819
  170SAPE  H11B19189   1.347   2.420   6.226  3.1830 -3.0994  1.1046
  170SAPE     P19190   1.184   2.635   6.211  0.0049  0.3823  0.2823
  170SAPE   O1319191   1.250   2.716   6.108  0.7536  0.7624  0.2261
  170SAPE   O1419192   1.117   2.514   6.166  0.2268  0.3006  0.2999
  170SAPE   O1219193   1.293   2.602   6.321  0.2834  0.4608 -0.6000
  170SAPE   O1119194   1.081   2.731   6.284 -0.1141  0.2558 -0.1488
  170SAPE    C119195   1.046   2.717   6.417  0.3848 -0.2803 -0.8568
  170SAPE    HA19196   1.030   2.609   6.438  1.2252  0.0667  2.0252
  170SAPE    HB19197   1.132   2.754   6.478  2.3877 -1.7669 -2.5995
  170SAPE    C219198   0.923   2.803   6.460 -0.3958 -0.7085 -0.4924
  170SAPE    HS19199   0.836   2.762   6.404  0.3676 -0.0241 -2.2719
  170SAPE   O2119200   0.947   2.944   6.426 -0.0304 -0.9848  0.3176
  170SAPE   C2119201   0.834   3.016   6.417  0.1227 -0.6265 -0.1480
  170SAPE   O2219202   0.722   2.975   6.408 -0.4398  0.2639  0.0346
  170SAPE   C2219203   0.853   3.164   6.408 -0.3088  0.0194  0.1233
  170SAPE   H2R19204   0.953   3.195   6.446 -0.1840  0.4013 -0.5047
  170SAPE   H2S19205   0.840   3.205   6.306 -0.4458 -0.8566 -0.2100
  170SAPE    C319206   0.902   2.780   6.615 -0.2974 -0.0737  0.0871
  170SAPE    HX19207   0.972   2.857   6.655  0.9060 -0.2496 -1.5816
  170SAPE    HY19208   0.920   2.676   6.650  0.6137 -0.0639 -0.3158
  170SAPE   O3119209   0.767   2.812   6.662  0.2991  0.5181 -0.1531
  170SAPE   C3119210   0.759   2.845   6.788  0.5726  0.3818  0.0935
  170SAPE   O3219211   0.849   2.865   6.867 -0.6735  0.2127 -0.3142
  170SAPE   C3219212   0.610   2.862   6.832 -0.0039 -0.3620 -0.0663
  170SAPE   H2X19213   0.574   2.759   6.814  0.6668 -0.5629 -0.2875
  170SAPE   H2Y19214   0.565   2.944   6.771 -0.4415  0.7969  1.7453
  170SAPE   C2319215   0.754   3.250   6.495  0.1868  0.3927 -0.1420
  170SAPE   H3R19216   0.655   3.232   6.449  0.5877 -1.4689 -0.3415
  170SAPE   H3S19217   0.786   3.357   6.495 -0.4800  0.6211  1.6131
  170SAPE   C2419218   0.754   3.206   6.649 -0.4292  0.6793  0.2660
  170SAPE   H4R19219   0.750   3.095   6.651 -3.9132  0.5787 -2.5564
  170SAPE   H4S19220   0.667   3.259   6.692  0.4532  2.6453 -0.2576
  170SAPE   C2519221   0.878   3.256   6.720  0.1992 -0.1889  0.7387
  170SAPE   H5R19222   0.969   3.209   6.678  0.4420  1.5893 -0.8176
  170SAPE   C2619223   0.888   3.312   6.840 -0.1905  0.5819 -0.8236
  170SAPE   H6R19224   0.985   3.335   6.886 -0.7419 -2.1298  2.0498
  170SAPE   C2719225   0.772   3.359   6.921  0.2622 -0.7874 -0.0223
  170SAPE   H7R19226   0.785   3.344   7.030  2.8053  2.1880  0.2093
  170SAPE   H7S19227   0.680   3.302   6.894 -0.3621 -1.2506  2.7787
  170SAPE   C2819228   0.756   3.510   6.903  0.4414  0.4414 -0.0736
  170SAPE   H8R19229   0.821   3.555   6.826  2.1305  0.3850  1.2539
  170SAPE   C2919230   0.689   3.591   6.990  0.7609  0.4516  0.5188
  170SAPE   H9R19231   0.678   3.696   6.961 -1.7113 -0.3984 -1.9546
  170SAPE  C21019232   0.617   3.541   7.112 -0.4316  0.5184 -0.0762
  170SAPE  H10R19233   0.686   3.505   7.191 -1.4829 -0.8256  0.2894
  170SAPE  H10S19234   0.558   3.450   7.088  0.5583 -1.1863  3.3682
  170SAPE  C21119235   0.529   3.642   7.177  0.6061  0.0604 -0.0941
  170SAPE  H11R19236   0.436   3.664   7.122  0.4193  1.0179  0.5700
  170SAPE  C21219237   0.543   3.692   7.293  0.7235 -0.0242 -0.6205
  170SAPE  H12R19238   0.462   3.752   7.337 -0.5362 -1.4570 -0.8818
  170SAPE  C21319239   0.649   3.674   7.397  0.1200  0.5729  0.4557
  170SAPE  H13R19240   0.639   3.755   7.472 -0.5785  1.1590 -0.2498
  170SAPE  H13S19241   0.750   3.682   7.351  0.8076 -1.3164  1.5379
  170SAPE  C21419242   0.629   3.546   7.471 -0.5178  0.7121  0.6032
  170SAPE  H14R19243   0.529   3.527   7.513 -0.1369 -2.5275  0.3011
  170SAPE  C21519244   0.713   3.451   7.500 -0.0323  0.5819  0.0887
  170SAPE  H15R19245   0.682   3.364   7.560  0.4455  0.6665  0.4663
  170SAPE  C21619246   0.860   3.447   7.473  0.2653 -0.1144  0.1716
  170SAPE  H16R19247   0.895   3.538   7.526 -1.2427 -0.2155  1.3950
  170SAPE  H16S19248   0.871   3.456   7.362  0.7302 -0.9519  0.1406
  170SAPE  C21719249   0.939   3.321   7.500 -0.3812  0.2579 -0.7037
  170SAPE  H17R19250   0.966   3.313   7.607 -3.2517 -0.4370  0.0577
  170SAPE  H17S19251   1.039   3.333   7.453  1.2769 -1.8523  2.0002
  170SAPE  C21819252   0.888   3.184   7.463 -0.3691 -0.0014  0.2941
  170SAPE  H18R19253   0.784   3.163   7.497 -0.6166 -0.6870 -0.8321
  170SAPE  H18S19254   0.947   3.114   7.525  0.4279 -1.0368 -1.5580
  170SAPE  C21919255   0.905   3.163   7.307  0.4011 -0.2166  0.7591
  170SAPE  H19R19256   1.005   3.180   7.262  0.8379 -1.1058  1.3563
  170SAPE  H19S19257   0.824   3.219   7.257  2.5244  0.4161 -2.2364
  170SAPE  C22019258   0.872   3.017   7.272 -0.4669 -0.3844 -0.2430
  170SAPE  H20R19259   0.886   2.996   7.164 -1.7369 -1.3005 -0.2516
  170SAPE  H20S19260   0.764   3.003   7.290 -0.4143 -0.9022 -0.3018
  170SAPE  H20T19261   0.934   2.944   7.329  1.6038  0.3060 -1.4924
  170SAPE   C3319262   0.593   2.908   6.983 -0.0231  0.0132  0.2516
  170SAPE   H3X19263   0.652   3.001   7.000 -1.4576  1.2498 -1.2226
  170SAPE   H3Y19264   0.634   2.831   7.051 -0.2125  0.6778  1.1333
  170SAPE   C3419265   0.442   2.940   7.012 -0.0356 -0.1680  0.0909
  170SAPE   H4X19266   0.383   2.848   6.991 -0.8582 -0.3536  2.7454
  170SAPE   H4Y19267   0.412   3.006   6.928 -2.4667 -1.2353  0.0331
  170SAPE   C3519268   0.396   3.012   7.147 -0.3226  0.1878  0.2404
  170SAPE   H5X19269   0.415   2.932   7.222  3.2949 -2.5962 -3.2662
  170SAPE   H5Y19270   0.290   3.043   7.137 -0.0513  1.0961  0.0938
  170SAPE   C3619271   0.483   3.131   7.175  0.0313 -0.5081  0.4249
  170SAPE   H6X19272   0.484   3.196   7.085  0.0868  0.9438  1.4320
  170SAPE   H6Y19273   0.586   3.099   7.200  0.6843 -0.3660 -1.8822
  170SAPE   C3719274   0.422   3.212   7.286  0.3162  0.3112  0.0430
  170SAPE   H7X19275   0.319   3.251   7.266  0.9143  1.9345 -0.0297
  170SAPE   H7Y19276   0.489   3.301   7.291  2.6301 -1.4347  2.8834
  170SAPE   C3819277   0.419   3.144   7.430 -0.2626  0.5875 -0.5990
  170SAPE   H8X19278   0.487   3.201   7.496 -2.7138  0.7638  1.9687
  170SAPE   H8Y19279   0.444   3.036   7.415 -2.3802  0.0372 -0.5042
  170SAPE   C3919280   0.281   3.162   7.494  0.7512  0.3982  0.0217
  170SAPE   H9X19281   0.241   3.265   7.477  2.4093  1.0607 -0.0822
  170SAPE   H9Y19282   0.282   3.141   7.603 -1.2086 -1.9074 -0.3188
  170SAPE  C31019283   0.187   3.054   7.435  0.0696 -0.4998  0.4147
  170SAPE  H10X19284   0.225   2.954   7.463 -0.6391 -0.9243 -0.0978
  170SAPE  H10Y19285   0.172   3.056   7.325  3.6016 -2.3572 -0.2554
  170SAPE  C31119286   0.041   3.078   7.481  0.6000 -0.8487 -0.1336
  170SAPE  H11X19287  -0.012   2.993   7.431 -0.5772  0.4985 -1.2586
  170SAPE  H11Y19288   0.003   3.169   7.431 -0.4087 -1.6215 -0.8266
  170SAPE  C31219289   0.018   3.074   7.633  0.1855 -0.1703  0.6040
  170SAPE  H12X19290  -0.091   3.088   7.652  0.1659  0.6354 -0.0637
  170SAPE  H12Y19291   0.065   3.161   7.682  1.5818  0.7807 -2.2181
  170SAPE  C31319292   0.052   2.942   7.712 -0.3031 -0.2348 -0.6350
  170SAPE  H13X19293   0.162   2.936   7.695 -0.4433  2.5969 -3.3334
  170SAPE  H13Y19294   0.003   2.857   7.660  0.1452 -1.4003  0.7750
  170SAPE  C31419295   0.009   2.933   7.859 -0.5764 -0.1985  0.1963
  170SAPE  H14X19296   0.074   2.993   7.925  1.0375  0.1793 -1.6372
  170SAPE  H14Y19297   0.025   2.825   7.879  0.4193 -0.4217 -1.5689
  170SAPE  C31519298  -0.137   2.973   7.884  0.1917  0.2857 -0.3326
  170SAPE  H15X19299  -0.164   3.071   7.838 -2.9857  0.1295  0.9857
  170SAPE  H15Y19300  -0.145   3.007   7.989  2.8156 -0.5331  0.2117
  170SAPE  C31619301  -0.242   2.875   7.841  0.4803  0.3908 -0.8557
  170SAPE  H16X19302  -0.206   2.830   7.746  0.5404  0.0734 -0.6805
  170SAPE  H16Y19303  -0.331   2.939   7.823  0.6519  1.1901  0.9284
  170SAPE  C31719304  -0.263   2.759   7.935 -0.1775  0.4216  0.7538
  170SAPE  H17X19305  -0.171   2.697   7.938 -0.9995 -0.8817 -0.0322
  170SAPE  H17Y19306  -0.342   2.692   7.895  1.7472 -0.7590 -1.3163
  170SAPE  C31819307  -0.293   2.793   8.081 -0.2616 -0.2152 -0.1801
  170SAPE  H18X19308  -0.206   2.848   8.124 -0.0702 -1.6488  1.3735
  170SAPE  H18Y19309  -0.301   2.701   8.143  0.4544 -1.3097 -1.6363
  170SAPE  H18Z19310  -0.390   2.847   8.084 -1.0828 -1.6010 -0.8170
  171SAPE     N19311   2.650   5.184   6.173  0.4809  0.0641 -0.4471
  171SAPE   HN119312   2.592   5.152   6.093  0.0699  0.0048 -0.1251
  171SAPE   HN219313   2.699   5.271   6.143 -0.0365  0.1868 -0.9564
  171SAPE   HN319314   2.719   5.114   6.208 -0.1059  0.0192  0.6538
  171SAPE   C1219315   2.561   5.212   6.292  0.5931  0.5454  0.2228
  171SAPE  H12A19316   2.504   5.304   6.269  1.6957  0.8285 -1.5437
  171SAPE  H12B19317   2.627   5.227   6.380  0.9461 -2.0190  0.4809
  171SAPE   C1119318   2.455   5.095   6.321  0.1829  0.2601 -0.2050
  171SAPE  H11A19319   2.397   5.085   6.227 -1.3210  1.3366  0.5644
  171SAPE  H11B19320   2.385   5.132   6.399 -0.4546  1.0025 -1.1049
  171SAPE     P19321   2.424   4.865   6.447  0.0949  0.0435 -0.4263
  171SAPE   O1319322   2.310   4.829   6.358  0.6109  0.1865 -0.4415
  171SAPE   O1419323   2.509   4.760   6.502 -0.3305 -0.4279 -0.0025
  171SAPE   O1219324   2.517   4.976   6.371 -0.1181  0.1232 -0.0425
  171SAPE   O1119325   2.364   4.943   6.574  0.0352 -0.5912  0.2123
  171SAPE    C119326   2.429   5.048   6.643 -0.8938 -0.0410 -0.5025
  171SAPE    HA19327   2.538   5.050   6.623 -0.0564  1.6718  3.3215
  171SAPE    HB19328   2.389   5.148   6.618  1.9754  0.5810 -3.2484
  171SAPE    C219329   2.412   5.023   6.798  0.2244  0.2883  0.1568
  171SAPE    HS19330   2.470   5.099   6.855  1.6503 -0.5680 -0.1027
  171SAPE   O2119331   2.462   4.891   6.830 -0.4334  0.0149 -0.5015
  171SAPE   C2119332   2.594   4.870   6.825 -0.7199 -0.1540 -0.6112
  171SAPE   O2219333   2.681   4.956   6.812 -0.2671 -0.2091  0.4965
  171SAPE   C2219334   2.632   4.730   6.857  0.0460  0.0563  0.4057
  171SAPE   H2R19335   2.549   4.694   6.921  0.4282  1.1598  1.5703
  171SAPE   H2S19336   2.637   4.668   6.764 -0.7679  1.0783 -0.3485
  171SAPE    C319337   2.256   5.026   6.833 -1.1517 -0.0917  0.3484
  171SAPE    HX19338   2.205   4.961   6.758 -1.6392  0.1056  0.5022
  171SAPE    HY19339   2.222   5.129   6.810 -1.9848 -0.4217  0.0381
  171SAPE   O3119340   2.238   4.991   6.975 -0.4940 -0.2016  0.2937
  171SAPE   C3119341   2.128   4.923   7.002 -0.3971  0.5999  0.2674
  171SAPE   O3219342   2.046   4.896   6.914 -0.5985  0.1621  0.4144
  171SAPE   C3219343   2.143   4.874   7.149 -0.0432  0.3276 -0.0399
  171SAPE   H2X19344   2.053   4.813   7.171 -0.0114  0.2295 -0.1881
  171SAPE   H2Y19345   2.145   4.964   7.214  2.6562  1.0769 -1.0125
  171SAPE   C2319346   2.760   4.716   6.942  0.6920 -0.1539 -0.0832
  171SAPE   H3R19347   2.761   4.795   7.020 -0.9493  0.6439 -0.8234
  171SAPE   H3S19348   2.843   4.737   6.871  1.1253  0.1491  0.5031
  171SAPE   C2419349   2.784   4.579   7.017 -0.7846 -0.8503  0.6763
  171SAPE   H4R19350   2.695   4.548   7.076 -2.5386  1.4413 -0.5776
  171SAPE   H4S19351   2.871   4.592   7.086 -0.1729 -0.6162 -0.1270
  171SAPE   C2519352   2.835   4.483   6.913 -0.3138 -0.8534 -0.4002
  171SAPE   H5R19353   2.793   4.500   6.813 -2.5752  0.3059  0.6777
  171SAPE   C2619354   2.924   4.378   6.926 -0.2521  0.3234 -0.4708
  171SAPE   H6R19355   2.957   4.331   6.832  2.5635  0.6621  0.2407
  171SAPE   C2719356   2.987   4.316   7.047  0.2014  0.1470  0.0758
  171SAPE   H7R19357   2.936   4.352   7.139 -2.8592 -0.3424 -1.3032
  171SAPE   H7S19358   3.090   4.359   7.049  1.8529 -3.3842  2.1084
  171SAPE   C2819359   2.996   4.165   7.043  0.9815 -0.9390 -0.0337
  171SAPE   H8R19360   2.991   4.116   6.944  1.7314 -0.2020 -0.4501
  171SAPE   C2919361   2.997   4.097   7.157 -0.2278 -0.3761  0.1826
  171SAPE   H9R19362   3.005   3.988   7.150 -2.1031 -0.5910  0.6576
  171SAPE  C21019363   3.002   4.151   7.296 -0.4566 -0.3647 -0.1216
  171SAPE  H10R19364   2.920   4.224   7.315 -2.6319 -2.2863 -1.5871
  171SAPE  H10S19365   3.098   4.207   7.303 -0.3473 -0.6219  0.5283
  171SAPE  C21119366   2.983   4.042   7.402 -0.4152 -0.3663 -0.4663
  171SAPE  H11R19367   2.985   3.940   7.361  1.4627 -1.3161  1.7816
  171SAPE  C21219368   2.955   4.049   7.526  0.4378  0.0139 -0.3060
  171SAPE  H12R19369   2.961   3.959   7.588 -2.1809 -0.0761 -0.0637
  171SAPE  C21319370   2.928   4.174   7.610 -0.4306  0.3605  0.5466
  171SAPE  H13R19371   2.826   4.159   7.652 -1.2157 -1.7633 -1.8410
  171SAPE  H13S19372   2.929   4.264   7.545 -0.8551  0.9657  1.3705
  171SAPE  C21419373   3.030   4.196   7.723  0.1270 -0.1909  0.6501
  171SAPE  H14R19374   3.120   4.250   7.691 -0.9780  0.2034 -2.0699
  171SAPE  C21519375   3.026   4.144   7.844  0.7163  0.2932 -0.2984
  171SAPE  H15R19376   3.104   4.156   7.921  0.6303 -0.0890 -0.1447
  171SAPE  C21619377   2.910   4.065   7.900 -0.1805 -0.7311  0.0079
  171SAPE  H16R19378   2.950   3.985   7.966 -0.0106 -1.4965 -0.9864
  171SAPE  H16S19379   2.854   4.008   7.822  0.1097 -2.4579  1.0009
  171SAPE  C21719380   2.801   4.160   7.957 -0.2199  0.2528  0.2880
  171SAPE  H17R19381   2.715   4.104   7.999  1.4121 -1.8305  1.0910
  171SAPE  H17S19382   2.770   4.226   7.874  2.5558  1.4437  0.0754
  171SAPE  C21819383   2.856   4.260   8.065  0.5751  1.0013  1.4260
  171SAPE  H18R19384   2.769   4.324   8.091  1.0400  2.2530  0.0244
  171SAPE  H18S19385   2.932   4.326   8.018 -1.5872  1.0790 -2.4659
  171SAPE  C21919386   2.911   4.193   8.188 -0.5391 -0.6699 -0.5435
  171SAPE  H19R19387   2.994   4.128   8.152 -0.2585 -1.2813  1.1367
  171SAPE  H19S19388   2.829   4.134   8.235 -0.5105 -0.2085  0.0823
  171SAPE  C22019389   2.977   4.291   8.284  0.4117  0.1649  0.4702
  171SAPE  H20R19390   3.046   4.363   8.234  0.4142  0.6455  1.1491
  171SAPE  H20S19391   3.044   4.238   8.355  2.4677  0.4977 -1.1123
  171SAPE  H20T19392   2.912   4.359   8.343  0.6889  0.1249  0.8235
  171SAPE   C3319393   2.279   4.797   7.172 -0.1212  0.1756  0.7391
  171SAPE   H3X19394   2.362   4.847   7.116 -1.0227 -0.1310 -0.9601
  171SAPE   H3Y19395   2.280   4.691   7.140 -2.5019  0.8252 -2.0090
  171SAPE   C3419396   2.322   4.804   7.322  0.1036  0.6884  0.5561
  171SAPE   H4X19397   2.323   4.906   7.366  0.1255  0.4217  1.1851
  171SAPE   H4Y19398   2.429   4.774   7.317 -0.2255 -1.4058  3.3787
  171SAPE   C3519399   2.254   4.691   7.404  0.7616  0.4686  0.0917
  171SAPE   H5X19400   2.272   4.593   7.356 -0.5205  0.9405 -1.4386
  171SAPE   H5Y19401   2.143   4.686   7.406  0.7741 -0.9839 -1.2244
  171SAPE   C3619402   2.292   4.696   7.555 -0.4243  0.4532  0.6087
  171SAPE   H6X19403   2.248   4.791   7.593  0.2491  0.9369  0.1949
  171SAPE   H6Y19404   2.402   4.710   7.555 -0.4325  0.5621  1.1892
  171SAPE   C3719405   2.236   4.581   7.640  0.4057  0.3486  0.0550
  171SAPE   H7X19406   2.280   4.489   7.598  1.4706  1.5574 -1.5915
  171SAPE   H7Y19407   2.134   4.563   7.599  0.2567  0.1011  0.5204
  171SAPE   C3819408   2.247   4.588   7.797 -0.8377  0.7202 -0.7211
  171SAPE   H8X19409   2.212   4.486   7.825  1.2008  0.5288  1.4884
  171SAPE   H8Y19410   2.195   4.678   7.835 -0.3266  0.8506 -0.3179
  171SAPE   C3919411   2.387   4.603   7.858  0.5758  0.6789 -0.5240
  171SAPE   H9X19412   2.420   4.708   7.844 -0.1207  0.9656 -0.0985
  171SAPE   H9Y19413   2.464   4.544   7.804 -1.3463 -1.3342 -1.2084
  171SAPE  C31019414   2.378   4.571   8.003  0.4805  0.0820 -0.1982
  171SAPE  H10X19415   2.310   4.487   8.027  0.4861 -0.0242 -0.5486
  171SAPE  H10Y19416   2.317   4.646   8.059 -0.0192 -0.8110  0.4694
  171SAPE  C31119417   2.517   4.561   8.068 -0.1140 -0.4443 -0.7300
  171SAPE  H11X19418   2.566   4.658   8.047  1.6304 -0.5741  2.2017
  171SAPE  H11Y19419   2.560   4.474   8.013  1.6050  1.5181 -2.6768
  171SAPE  C31219420   2.513   4.561   8.222  0.4527  0.5258  0.5259
  171SAPE  H12X19421   2.416   4.520   8.257 -0.0766  1.6497  0.3989
  171SAPE  H12Y19422   2.503   4.662   8.266 -1.6863  1.3419 -1.6605
  171SAPE  C31319423   2.638   4.514   8.294 -0.0283 -1.0023  0.2876
  171SAPE  H13X19424   2.738   4.548   8.258  0.7093 -0.9829  2.2600
  171SAPE  H13Y19425   2.637   4.403   8.284  0.5580 -1.0790  1.0058
  171SAPE  C31419426   2.636   4.548   8.445  0.1078 -1.4981 -0.1229
  171SAPE  H14X19427   2.537   4.524   8.488  0.7949 -2.5528  0.9345
  171SAPE  H14Y19428   2.653   4.652   8.481  0.0511 -1.2453 -0.8086
  171SAPE  C31519429   2.741   4.466   8.517 -0.0971 -0.0411  0.5786
  171SAPE  H15X19430   2.845   4.483   8.480 -0.7067  0.2908 -1.1099
  171SAPE  H15Y19431   2.720   4.358   8.501 -3.2689  0.4857  0.5145
  171SAPE  C31619432   2.737   4.494   8.667  0.1241  0.2044 -0.2981
  171SAPE  H16X19433   2.632   4.499   8.705 -0.4361  1.2745 -1.8714
  171SAPE  H16Y19434   2.788   4.586   8.701  0.8330 -0.0640 -0.6261
  171SAPE  C31719435   2.801   4.381   8.743 -0.5423  0.2935  0.5579
  171SAPE  H17X19436   2.909   4.385   8.718 -0.5867  0.9429  0.4670
  171SAPE  H17Y19437   2.766   4.279   8.715  1.5181 -1.1381  2.7782
  171SAPE  C31819438   2.800   4.393   8.892  0.9621  1.0746 -0.0340
  171SAPE  H18X19439   2.878   4.323   8.928  0.3216  1.3086  1.9389
  171SAPE  H18Y19440   2.706   4.345   8.929  1.4100 -0.5581 -0.9269
  171SAPE  H18Z19441   2.828   4.489   8.940  0.8624  0.5002  1.2124
  172SAPE     N19442   2.203   3.546   6.460  0.4892  0.1250  0.2620
  172SAPE   HN119443   2.125   3.573   6.523  1.9499 -1.1167  2.7676
  172SAPE   HN219444   2.268   3.490   6.519  0.0686 -0.5415  0.1004
  172SAPE   HN319445   2.256   3.629   6.426 -1.2430  0.7235 -1.1359
  172SAPE   C1219446   2.153   3.457   6.352 -0.5677  0.3213  0.0512
  172SAPE  H12A19447   2.138   3.520   6.262 -0.2421  1.7597  0.9658
  172SAPE  H12B19448   2.058   3.415   6.392  0.1828 -3.2026 -1.5541
  172SAPE   C1119449   2.257   3.341   6.327 -0.1183  0.0314  0.8921
  172SAPE  H11A19450   2.232   3.272   6.243  0.5010  0.7050  0.1383
  172SAPE  H11B19451   2.260   3.283   6.422  0.7446  0.2687  1.0192
  172SAPE     P19452   2.481   3.337   6.186 -0.1081  0.2456 -0.2018
  172SAPE   O1319453   2.401   3.248   6.092  0.0726 -0.1491  0.3180
  172SAPE   O1419454   2.574   3.434   6.121 -0.0445  0.3480  0.4244
  172SAPE   O1219455   2.379   3.406   6.288 -0.0268 -0.1139 -0.4728
  172SAPE   O1119456   2.566   3.254   6.286 -0.2871  0.0287  0.1907
  172SAPE    C119457   2.674   3.311   6.358  0.0492 -0.1660  0.0861
  172SAPE    HA19458   2.753   3.235   6.371  0.0349 -0.0780  0.7540
  172SAPE    HB19459   2.722   3.390   6.297  1.8002 -2.6586 -1.9639
  172SAPE    C219460   2.629   3.360   6.494 -0.6400  0.1361 -0.1484
  172SAPE    HS19461   2.561   3.445   6.470 -0.3440 -0.0672 -1.8131
  172SAPE   O2119462   2.754   3.388   6.569  0.3315 -0.6781 -0.0781
  172SAPE   C2119463   2.739   3.504   6.635  0.6753  0.0557  0.0225
  172SAPE   O2219464   2.638   3.573   6.630 -0.5292  0.0709 -0.0215
  172SAPE   C2219465   2.870   3.525   6.718  0.3631 -0.4229  0.3078
  172SAPE   H2R19466   2.936   3.441   6.689 -0.5143 -1.8773  2.2940
  172SAPE   H2S19467   2.912   3.625   6.693  2.0439 -1.1882 -0.0528
  172SAPE    C319468   2.540   3.251   6.572  0.6254 -0.1484 -0.4964
  172SAPE    HX19469   2.600   3.157   6.566  0.3494 -0.3656  0.0376
  172SAPE    HY19470   2.444   3.249   6.517  0.6653 -1.6820 -0.5790
  172SAPE   O3119471   2.514   3.283   6.710 -0.6895  0.4032 -0.5278
  172SAPE   C3119472   2.424   3.381   6.734  0.0156 -0.1270 -0.0887
  172SAPE   O3219473   2.363   3.444   6.653 -0.3794 -0.0944  0.4280
  172SAPE   C3219474   2.407   3.392   6.889  0.2137 -0.0216  0.6949
  172SAPE   H2X19475   2.481   3.322   6.933  0.0619 -1.7241 -1.5745
  172SAPE   H2Y19476   2.303   3.354   6.902 -0.4848  0.8942 -1.6657
  172SAPE   C2319477   2.836   3.530   6.867 -0.3623  0.8706  0.6164
  172SAPE   H3R19478   2.752   3.598   6.892 -2.6137 -1.4702 -0.1868
  172SAPE   H3S19479   2.923   3.561   6.930 -1.3563  0.9297  2.0113
  172SAPE   C2419480   2.811   3.384   6.922 -0.2903 -0.4243 -0.0969
  172SAPE   H4R19481   2.753   3.327   6.847  1.9005 -2.5020 -0.3448
  172SAPE   H4S19482   2.756   3.395   7.018  0.3022  1.7186  0.0657
  172SAPE   C2519483   2.938   3.306   6.937  0.2277  0.0602 -0.3567
  172SAPE   H5R19484   2.995   3.285   6.846 -1.4020 -3.0570 -0.7719
  172SAPE   C2619485   2.978   3.236   7.051 -0.2634  0.1683 -0.3584
  172SAPE   H6R19486   3.073   3.181   7.042  0.9025  2.0122  0.1251
  172SAPE   C2719487   2.903   3.225   7.186  0.3179  0.6167  0.4694
  172SAPE   H7R19488   2.894   3.115   7.192  0.1418  0.6816  1.5163
  172SAPE   H7S19489   2.800   3.266   7.187 -0.0978 -0.3442 -0.4925
  172SAPE   C2819490   2.980   3.272   7.312 -0.8166 -0.4013  0.2062
  172SAPE   H8R19491   3.079   3.316   7.294 -0.3217 -1.5146  0.0859
  172SAPE   C2919492   2.944   3.272   7.437 -0.2428  0.5760 -0.8073
  172SAPE   H9R19493   3.016   3.317   7.507  1.1630  0.4513 -2.1151
  172SAPE  C21019494   2.821   3.222   7.499  0.5945  0.1428  0.0584
  172SAPE  H10R19495   2.739   3.194   7.429  1.0970  0.5885 -0.7279
  172SAPE  H10S19496   2.777   3.312   7.547  1.9674  0.3672  0.9593
  172SAPE  C21119497   2.850   3.114   7.602 -0.1009  0.0183 -0.6169
  172SAPE  H11R19498   2.847   3.010   7.567  0.1460 -0.0334 -0.4813
  172SAPE  C21219499   2.884   3.140   7.734 -0.4978 -0.3065 -0.6764
  172SAPE  H12R19500   2.892   3.051   7.800 -0.5419  1.1003  1.3215
  172SAPE  C21319501   2.881   3.273   7.810 -0.0150 -0.4120  0.0428
  172SAPE  H13R19502   2.870   3.352   7.733 -0.2642 -1.4020 -0.9758
  172SAPE  H13S19503   2.984   3.281   7.851  1.2633 -0.6072 -2.8389
  172SAPE  C21419504   2.767   3.262   7.909  0.2815 -0.2615 -0.1772
  172SAPE  H14R19505   2.671   3.296   7.867  0.7254 -0.2516 -1.2081
  172SAPE  C21519506   2.768   3.247   8.043 -0.0906  0.1307  0.1493
  172SAPE  H15R19507   2.671   3.235   8.093 -0.3216 -2.7203 -0.8297
  172SAPE  C21619508   2.883   3.227   8.131  0.0054 -0.9245 -0.2991
  172SAPE  H16R19509   2.972   3.253   8.070  0.9249 -0.1838  1.2929
  172SAPE  H16S19510   2.892   3.122   8.163  0.7641 -1.2882 -1.6309
  172SAPE  C21719511   2.875   3.321   8.250 -0.2000 -0.1956 -0.1011
  172SAPE  H17R19512   2.774   3.310   8.295  0.2814  1.0674  1.3868
  172SAPE  H17S19513   2.877   3.427   8.215  0.4465 -0.2224 -0.1571
  172SAPE  C21819514   2.990   3.288   8.344 -0.3416  0.3966  0.3554
  172SAPE  H18R19515   3.085   3.321   8.296 -0.2782 -0.6967 -0.2916
  172SAPE  H18S19516   2.999   3.179   8.360 -0.4834  0.2046 -0.8426
  172SAPE  C21919517   2.977   3.354   8.482 -0.4691 -0.0479 -0.4150
  172SAPE  H19R19518   3.076   3.355   8.532 -0.8802 -1.4798  0.4844
  172SAPE  H19S19519   2.910   3.295   8.549  0.2794 -0.3699  0.0613
  172SAPE  C22019520   2.908   3.490   8.499  0.5321 -0.7327 -0.0520
  172SAPE  H20R19521   2.803   3.491   8.462  0.7639 -0.4667 -0.7140
  172SAPE  H20S19522   2.960   3.569   8.441  0.4657 -0.0181  0.8474
  172SAPE  H20T19523   2.892   3.522   8.604 -1.5125  1.4326 -0.9147
  172SAPE   C3319524   2.442   3.529   6.955  0.5751 -0.4882  0.3106
  172SAPE   H3X19525   2.396   3.616   6.905  1.5753  0.1490  0.4704
  172SAPE   H3Y19526   2.552   3.541   6.960  0.3896  1.6448  0.1958
  172SAPE   C3419527   2.389   3.526   7.101 -0.5407 -0.0146 -0.2528
  172SAPE   H4X19528   2.289   3.478   7.109 -0.0480 -0.9813  0.2648
  172SAPE   H4Y19529   2.377   3.626   7.148 -0.2848 -0.4436  0.7580
  172SAPE   C3519530   2.495   3.449   7.188 -0.3005 -0.5413 -0.8336
  172SAPE   H5X19531   2.593   3.498   7.167  0.7815 -2.7253 -1.1587
  172SAPE   H5Y19532   2.499   3.344   7.152 -0.2801 -0.2614 -1.6930
  172SAPE   C3619533   2.466   3.457   7.337 -0.9583  0.5377  0.6199
  172SAPE   H6X19534   2.461   3.564   7.366 -2.0232  0.8635 -0.6579
  172SAPE   H6Y19535   2.545   3.401   7.392 -0.3687 -0.5959 -1.2571
  172SAPE   C3719536   2.328   3.406   7.379  0.2918 -1.1593 -0.2979
  172SAPE   H7X19537   2.271   3.349   7.303 -1.8745  0.5605 -0.0394
  172SAPE   H7Y19538   2.275   3.503   7.379  1.8758 -0.2514  0.5354
  172SAPE   C3819539   2.325   3.330   7.504  0.6152  0.9707 -1.1138
  172SAPE   H8X19540   2.356   3.386   7.595  0.2736  0.2605 -0.5447
  172SAPE   H8Y19541   2.396   3.245   7.504 -1.6878 -1.0809  0.0896
  172SAPE   C3919542   2.182   3.274   7.545  0.0403  0.2920 -0.4674
  172SAPE   H9X19543   2.156   3.181   7.489 -0.3598 -0.3332  0.7215
  172SAPE   H9Y19544   2.108   3.354   7.527  0.2235  0.6923  0.4590
  172SAPE  C31019545   2.173   3.241   7.697  0.7568  0.7497 -0.2931
  172SAPE  H10X19546   2.076   3.189   7.696  1.2371 -0.1671 -0.1139
  172SAPE  H10Y19547   2.171   3.332   7.761  1.9578  1.1052 -0.7170
  172SAPE  C31119548   2.259   3.120   7.741  0.5036 -0.1890  0.5366
  172SAPE  H11X19549   2.368   3.133   7.722  0.8119  0.0266  2.2580
  172SAPE  H11Y19550   2.227   3.031   7.684  0.1835 -0.9702  1.8961
  172SAPE  C31219551   2.254   3.083   7.892  0.5648 -0.2984 -0.4629
  172SAPE  H12X19552   2.295   2.982   7.915 -3.2432 -1.7655  0.7009
  172SAPE  H12Y19553   2.152   3.075   7.935  0.2175  2.4392 -0.6190
  172SAPE  C31319554   2.330   3.178   7.985 -1.4094  0.5005 -0.5962
  172SAPE  H13X19555   2.297   3.283   7.969 -2.1011  0.7994  2.2399
  172SAPE  H13Y19556   2.440   3.171   7.975 -1.4195 -1.0321  0.0495
  172SAPE  C31419557   2.295   3.169   8.136  0.6895  0.7910  0.2476
  172SAPE  H14X19558   2.324   3.065   8.162  3.4640  1.1796 -0.9019
  172SAPE  H14Y19559   2.188   3.193   8.154  0.7324  1.3142 -0.1539
  172SAPE  C31519560   2.359   3.275   8.224  0.3571 -0.3617  0.0874
  172SAPE  H15X19561   2.278   3.350   8.239 -0.1797 -1.0805  0.8936
  172SAPE  H15Y19562   2.443   3.323   8.169  0.2796 -1.8253 -1.3778
  172SAPE  C31619563   2.423   3.228   8.361 -0.3186  0.5323 -0.0986
  172SAPE  H16X19564   2.496   3.148   8.338  0.6577  1.0080  1.2122
  172SAPE  H16Y19565   2.346   3.174   8.420  1.9842  0.4450  3.0802
  172SAPE  C31719566   2.488   3.345   8.440  0.9590 -0.9211 -0.0640
  172SAPE  H17X19567   2.403   3.398   8.489 -0.6653 -3.1935 -0.2318
  172SAPE  H17Y19568   2.545   3.402   8.364  0.9489 -1.8618 -0.7992
  172SAPE  C31819569   2.600   3.297   8.546  0.2320 -0.4571 -0.5588
  172SAPE  H18X19570   2.692   3.256   8.499  0.7053 -0.0724  0.0085
  172SAPE  H18Y19571   2.547   3.217   8.604 -2.7598  0.5713 -1.6873
  172SAPE  H18Z19572   2.631   3.378   8.616 -0.0871 -1.1239  0.3856
  173SOPE     N19573   2.129   6.087  11.008 -0.3147  0.0325 -0.1879
  173SOPE   HN119574   2.037   6.054  11.043  0.0892 -1.5950 -0.5782
  173SOPE   HN219575   2.199   6.015  11.033 -0.9346 -1.3108 -2.0880
  173SOPE   HN319576   2.153   6.181  11.045  1.0846  0.2495 -1.5209
  173SOPE   C1219577   2.116   6.095  10.859  0.8317 -0.6943  0.7912
  173SOPE  H12A19578   2.216   6.117  10.816 -0.2423  0.5457 -1.2081
  173SOPE  H12B19579   2.052   6.184  10.841  2.8791  0.9070  1.0379
  173SOPE   C1119580   2.065   5.957  10.817  0.0021 -0.0248  0.1950
  173SOPE  H11A19581   2.143   5.882  10.840  0.4819  0.2548 -0.4971
  173SOPE  H11B19582   2.062   5.949  10.706  1.0028 -2.5375  0.2979
  173SOPE     P19583   1.804   5.993  10.836 -0.1422 -0.0467 -0.1527
  173SOPE   O1319584   1.791   6.121  10.913 -0.1075  0.3571  0.1266
  173SOPE   O1419585   1.693   5.905  10.864 -0.3202 -0.0634  0.7713
  173SOPE   O1219586   1.933   5.922  10.878 -0.3142  0.5053 -0.1093
  173SOPE   O1119587   1.825   6.024  10.680 -1.0042 -0.2514  0.5595
  173SOPE    C119588   1.714   6.078  10.608 -0.8238 -0.4163  0.1715
  173SOPE    HA19589   1.743   6.182  10.582  0.0453  0.3412  3.7238
  173SOPE    HB19590   1.627   6.100  10.673  2.3216  1.9213  4.0047
  173SOPE    C219591   1.678   5.995  10.481 -0.1497 -0.3692 -0.1742
  173SOPE    HS19592   1.611   5.913  10.516 -0.4758 -0.3907 -0.8305
  173SOPE   O2119593   1.796   5.950  10.415 -0.5078 -0.0898 -0.0260
  173SOPE   C2119594   1.837   5.836  10.463  0.2521 -0.4781 -0.4518
  173SOPE   O2219595   1.774   5.771  10.545  0.5127  0.1058  0.1912
  173SOPE   C2219596   1.971   5.798  10.406  0.2919  0.0682  0.2734
  173SOPE   H2R19597   2.025   5.749  10.490  0.5545 -0.0364  0.0450
  173SOPE   H2S19598   2.033   5.888  10.384  0.1375 -0.5478 -3.2963
  173SOPE    C319599   1.581   6.085  10.397  0.6430 -0.3924 -0.5757
  173SOPE    HX19600   1.635   6.181  10.382  1.1491  0.2819  4.0364
  173SOPE    HY19601   1.484   6.096  10.450  0.2280  0.1989 -1.4475
  173SOPE   O3119602   1.553   6.029  10.273 -1.2224 -0.1862  0.3726
  173SOPE   C3119603   1.500   6.099  10.177 -0.5920 -0.8280  0.2603
  173SOPE   O3219604   1.467   6.219  10.189  0.2794 -0.3255 -0.2678
  173SOPE   C3219605   1.471   6.024  10.057  0.0777 -0.0315 -0.7067
  173SOPE   H2X19606   1.366   5.989  10.071  0.4451 -1.7021 -1.7914
  173SOPE   H2Y19607   1.543   5.940  10.046  0.8765  0.3261  1.3614
  173SOPE   C2319608   1.955   5.716  10.274  0.1474 -0.7054  0.2654
  173SOPE   H3R19609   1.902   5.619  10.287  0.6698 -1.1686 -0.8570
  173SOPE   H3S19610   2.052   5.698  10.223 -0.8387 -0.6256 -1.7285
  173SOPE   C2419611   1.877   5.774  10.154  1.3902  0.0380  0.5135
  173SOPE   H4R19612   1.771   5.787  10.184  0.9982  0.1807 -0.8556
  173SOPE   H4S19613   1.912   5.879  10.143  0.5903  0.2992  0.4224
  173SOPE   C2519614   1.894   5.699  10.020 -0.4666  0.5254 -0.1344
  173SOPE   H5R19615   2.002   5.681  10.000 -0.0563 -0.6490  2.6445
  173SOPE   H5S19616   1.843   5.601  10.031 -1.2171  0.8626 -0.5143
  173SOPE   C2619617   1.826   5.775   9.900 -0.2195 -0.4383 -0.4033
  173SOPE   H6R19618   1.716   5.785   9.911 -0.0646 -0.7268  1.7850
  173SOPE   H6S19619   1.871   5.876   9.893 -0.4728 -0.2304  0.7326
  173SOPE   C2719620   1.841   5.704   9.763 -0.3435 -0.3282 -0.6585
  173SOPE   H7R19621   1.950   5.683   9.749 -0.3978 -1.2331  0.1486
  173SOPE   H7S19622   1.796   5.603   9.761  0.1661 -0.5684 -2.8978
  173SOPE   C2819623   1.794   5.800   9.650  0.4439 -0.1044  0.1976
  173SOPE   H8R19624   1.687   5.828   9.663  0.5363  0.0597  0.6454
  173SOPE   H8S19625   1.866   5.885   9.662  1.0479 -0.5665 -0.1054
  173SOPE   C2919626   1.809   5.725   9.522  0.2720  0.0377  0.0810
  173SOPE   H9119627   1.747   5.635   9.518 -1.2644  1.1187 -2.1681
  173SOPE  C21019628   1.891   5.756   9.421  0.7819  0.2274 -0.3205
  173SOPE  H10119629   1.903   5.684   9.339 -2.5918 -0.6450 -0.2002
  173SOPE  C21119630   1.987   5.874   9.441  0.2756 -0.2198 -0.1253
  173SOPE  H11R19631   2.068   5.853   9.514 -0.2892  0.8933  0.8568
  173SOPE  H11S19632   1.926   5.961   9.472 -1.2432 -1.3767  0.2265
  173SOPE  C21219633   2.067   5.906   9.313 -0.6671  0.2757 -0.7995
  173SOPE  H12R19634   2.121   5.811   9.297  1.8378  1.4688  0.1178
  173SOPE  H12S19635   2.140   5.983   9.344 -1.1833 -0.6969  3.4916
  173SOPE  C21319636   1.986   5.960   9.192 -0.4522 -0.2681  0.6776
  173SOPE  H13R19637   1.958   5.883   9.117 -0.0204  1.0884 -0.9237
  173SOPE  H13S19638   2.055   6.024   9.134 -1.5898 -0.4972 -1.0149
  173SOPE  C21419639   1.862   6.050   9.233  0.2161  0.0167  0.1621
  173SOPE  H14R19640   1.905   6.118   9.309  0.2712  2.3883 -1.8663
  173SOPE  H14S19641   1.787   5.983   9.281 -0.6708  1.1074  0.3481
  173SOPE  C21519642   1.824   6.145   9.118  0.4409  0.0961 -0.1719
  173SOPE  H15R19643   1.913   6.208   9.095  0.9523 -0.2741  0.7592
  173SOPE  H15S19644   1.747   6.213   9.160  0.7149  0.1808  0.1981
  173SOPE  C21619645   1.759   6.076   9.000  0.1486  0.0046  0.2438
  173SOPE  H16R19646   1.814   5.986   8.964  0.8966 -0.8318  3.2241
  173SOPE  H16S19647   1.751   6.139   8.908 -0.6114  0.6946  0.7687
  173SOPE  C21719648   1.620   6.019   9.035 -0.9493  0.2866  0.2782
  173SOPE  H17R19649   1.554   6.104   9.066 -1.6422 -1.1235  2.9990
  173SOPE  H17S19650   1.608   5.952   9.122 -0.5165  1.6783  1.4517
  173SOPE  C21819651   1.543   5.960   8.908  0.1440  0.3381 -0.1923
  173SOPE  H18R19652   1.441   5.919   8.928  1.2485 -3.7652 -1.9192
  173SOPE  H18S19653   1.604   5.885   8.855 -0.0576 -1.2328  1.6850
  173SOPE  H18T19654   1.528   6.042   8.834 -0.3705  0.3951 -0.0318
  173SOPE   C3319655   1.479   6.112   9.938  0.2882 -0.0458  0.0933
  173SOPE   H3X19656   1.410   6.199   9.938  0.4699  0.1236  1.5598
  173SOPE   H3Y19657   1.438   6.053   9.854 -0.4108  3.3012 -2.1328
  173SOPE   C3419658   1.617   6.165   9.909  0.7375  0.2645 -0.1678
  173SOPE   H4X19659   1.699   6.090   9.919  0.3831 -0.2357 -0.9425
  173SOPE   H4Y19660   1.641   6.252   9.974 -1.0061  1.6350 -1.2425
  173SOPE   C3519661   1.641   6.225   9.766 -0.6163  0.2427 -0.0590
  173SOPE   H5X19662   1.603   6.329   9.761  0.5790  0.7145  0.3363
  173SOPE   H5Y19663   1.574   6.166   9.700 -0.5002 -0.4556  0.4395
  173SOPE   C3619664   1.792   6.221   9.720  0.0671  0.0426 -1.0388
  173SOPE   H6X19665   1.820   6.114   9.725  3.8609  0.8516 -1.4994
  173SOPE   H6Y19666   1.849   6.284   9.792 -1.7861  0.6117 -0.0298
  173SOPE   C3719667   1.820   6.264   9.573 -0.1197  0.3754 -0.5561
  173SOPE   H7X19668   1.749   6.203   9.514 -1.2513 -0.1886  1.2845
  173SOPE   H7Y19669   1.915   6.222   9.534 -0.1775  0.1675 -0.4733
  173SOPE   C3819670   1.809   6.415   9.550  0.1673  0.7995 -0.1027
  173SOPE   H8X19671   1.889   6.470   9.604 -0.3631 -0.3572  1.9391
  173SOPE   H8Y19672   1.715   6.445   9.601  0.0021  0.0003  0.0830
  173SOPE   C3919673   1.819   6.458   9.403  0.2095 -0.2311  0.1854
  173SOPE   H9X19674   1.756   6.398   9.334  0.2429 -1.0134  0.8256
  173SOPE   H9Y19675   1.925   6.444   9.371 -0.3578 -1.7328 -1.2615
  173SOPE  C31019676   1.788   6.602   9.383  0.1963 -0.0275  0.5904
  173SOPE  H10X19677   1.873   6.662   9.421  0.7576 -1.1947  1.2324
  173SOPE  H10Y19678   1.698   6.630   9.442 -1.0601 -2.9256  0.1848
  173SOPE  C31119679   1.775   6.644   9.236  0.4526  0.3769  0.4756
  173SOPE  H11X19680   1.699   6.577   9.191 -1.0006  1.2708  1.5297
  173SOPE  H11Y19681   1.866   6.619   9.177 -0.4217 -0.7158 -0.4784
  173SOPE  C31219682   1.740   6.786   9.194  0.9348 -0.5179  0.4630
  173SOPE  H12X19683   1.819   6.851   9.235  0.2123 -0.5633  1.9702
  173SOPE  H12Y19684   1.648   6.809   9.251  1.4457  0.7161  0.8218
  173SOPE  C31319685   1.714   6.784   9.047 -1.0032  0.9457  0.3317
  173SOPE  H13X19686   1.614   6.742   9.026 -0.1422 -1.8945  1.3095
  173SOPE  H13Y19687   1.785   6.717   8.994 -0.8935  2.2482 -1.2191
  173SOPE  C31419688   1.731   6.922   8.985 -0.2022  0.2925  0.4131
  173SOPE  H14X19689   1.703   6.920   8.877 -0.1921 -1.4699  0.4220
  173SOPE  H14Y19690   1.839   6.946   8.996 -0.1239 -1.3165  5.5766
  173SOPE  C31519691   1.650   7.038   9.060 -0.1307  0.3124  0.2459
  173SOPE  H15X19692   1.703   7.051   9.157  1.7665  0.3101 -0.7546
  173SOPE  H15Y19693   1.551   6.994   9.084 -0.8845  1.8981  0.1075
  173SOPE  C31619694   1.639   7.157   8.974 -0.4238  0.3749  0.1705
  173SOPE  H16X19695   1.579   7.122   8.887  0.4073  0.0556 -0.2869
  173SOPE  H16Y19696   1.744   7.176   8.941 -0.5412  1.3011  0.2933
  173SOPE  C31719697   1.579   7.282   9.037  0.8721 -0.4860 -0.0662
  173SOPE  H17X19698   1.644   7.310   9.122  0.5442  1.4294 -0.3968
  173SOPE  H17Y19699   1.481   7.257   9.083  1.5779 -0.0373  1.7335
  173SOPE  C31819700   1.555   7.399   8.940  0.0114 -0.0204  0.1414
  173SOPE  H18X19701   1.483   7.378   8.858 -1.2033  1.9204  0.6448
  173SOPE  H18Y19702   1.651   7.440   8.902 -0.3348 -0.2140 -0.9657
  173SOPE  H18Z19703   1.508   7.477   9.004 -1.4550 -0.9806  0.2841
  174SOPE     N19704   1.108   5.975  11.238 -0.2209  0.6496  0.9351
  174SOPE   HN119705   1.197   5.949  11.285  0.0160 -1.1391 -0.3829
  174SOPE   HN219706   1.084   5.895  11.176  0.6720  0.0509  1.3228
  174SOPE   HN319707   1.121   6.059  11.179 -1.8377  0.1198 -0.2412
  174SOPE   C1219708   1.002   6.014  11.336  0.0393  0.3574  0.1749
  174SOPE  H12A19709   1.046   6.073  11.419  0.3467  0.8441 -0.3259
  174SOPE  H12B19710   0.969   5.920  11.383  1.7100 -0.7153 -0.7094
  174SOPE   C1119711   0.892   6.088  11.260 -0.0612 -0.0423 -0.2339
  174SOPE  H11A19712   0.931   6.185  11.222 -2.5211  1.0343 -0.2438
  174SOPE  H11B19713   0.807   6.106  11.330 -1.0195  0.8954 -1.5954
  174SOPE     P19714   0.721   6.046  11.055 -0.2454  0.0360 -0.2366
  174SOPE   O1319715   0.607   6.070  11.144  0.4715 -0.0695  0.1330
  174SOPE   O1419716   0.705   5.939  10.959 -0.7635 -0.2883  0.0790
  174SOPE   O1219717   0.843   6.012  11.153  0.4632  0.0203  0.6276
  174SOPE   O1119718   0.768   6.178  10.992  0.2911  0.2060  0.6629
  174SOPE    C119719   0.885   6.182  10.915  0.2168 -0.1038  0.0262
  174SOPE    HA19720   0.866   6.151  10.810  1.6268 -0.4317 -0.1567
  174SOPE    HB19721   0.965   6.115  10.954  1.4651  2.0077  1.3006
  174SOPE    C219722   0.931   6.329  10.900  0.1520  0.1547 -0.1412
  174SOPE    HS19723   0.980   6.347  10.998 -0.5707 -0.1234  0.2844
  174SOPE   O2119724   0.814   6.414  10.889 -0.7776  0.4226  0.1753
  174SOPE   C2119725   0.841   6.538  10.882  0.2868 -0.1616  0.2463
  174SOPE   O2219726   0.922   6.600  10.951 -0.3686 -0.4281  0.1147
  174SOPE   C2219727   0.752   6.594  10.771  0.1169 -0.0848 -0.6656
  174SOPE   H2R19728   0.655   6.628  10.812  0.0735 -0.9425 -0.0276
  174SOPE   H2S19729   0.724   6.526  10.688 -1.1097  1.0692 -1.2483
  174SOPE    C319730   1.045   6.359  10.788  0.4117 -0.0031 -0.2316
  174SOPE    HX19731   1.108   6.271  10.815  1.1286  0.3917 -0.5959
  174SOPE    HY19732   1.092   6.457  10.809  1.5197 -0.8653  1.5716
  174SOPE   O3119733   0.985   6.354  10.659  0.1705  0.9258 -0.0369
  174SOPE   C3119734   1.068   6.309  10.561  0.1863 -0.1089  0.0207
  174SOPE   O3219735   1.189   6.288  10.579  0.7293  0.2760  0.5762
  174SOPE   C3219736   0.998   6.319  10.418 -0.0203 -0.5158  0.2148
  174SOPE   H2X19737   0.912   6.385  10.442 -0.0323 -0.6053  0.4179
  174SOPE   H2Y19738   0.955   6.220  10.390  0.9559 -1.7756  2.8174
  174SOPE   C2319739   0.817   6.710  10.696 -0.5535  0.1705  0.2229
  174SOPE   H3R19740   0.895   6.757  10.760 -1.0759  3.0085 -1.0808
  174SOPE   H3S19741   0.748   6.794  10.671 -1.6636 -0.9634 -0.6647
  174SOPE   C2419742   0.889   6.676  10.563 -0.4443 -1.0605 -1.5099
  174SOPE   H4R19743   0.978   6.619  10.598  0.6214  1.6340  0.5104
  174SOPE   H4S19744   0.824   6.611  10.501  1.5629 -2.5063 -2.2063
  174SOPE   C2519745   0.939   6.791  10.472  0.9787 -0.2836 -0.5998
  174SOPE   H5R19746   0.849   6.841  10.430 -0.2273 -2.2471 -0.4744
  174SOPE   H5S19747   0.999   6.857  10.537  0.0823 -0.1703  0.1347
  174SOPE   C2619748   1.016   6.756  10.350 -0.0021  0.4186  0.2875
  174SOPE   H6R19749   1.120   6.744  10.385  0.1465 -0.0193 -0.2995
  174SOPE   H6S19750   0.972   6.663  10.310  0.4555  0.1291  0.4569
  174SOPE   C2719751   1.001   6.867  10.239 -0.1508 -0.6797  0.2593
  174SOPE   H7R19752   0.897   6.883  10.203  0.4630 -1.2372 -1.9524
  174SOPE   H7S19753   1.042   6.964  10.274 -2.9530 -0.0242  1.9737
  174SOPE   C2819754   1.080   6.822  10.107 -0.1723 -0.7600 -0.6515
  174SOPE   H8R19755   1.182   6.789  10.135  0.0832  0.4560 -0.0598
  174SOPE   H8S19756   1.024   6.734  10.069 -1.0630 -0.4899 -0.0216
  174SOPE   C2919757   1.081   6.933  10.003  0.2629 -0.4752 -0.0859
  174SOPE   H9119758   1.161   7.008  10.013 -0.5316  0.5206 -0.9709
  174SOPE  C21019759   1.007   6.936   9.890  0.3704 -0.0421  0.1177
  174SOPE  H10119760   1.032   7.026   9.832  0.6603  0.5226  1.1042
  174SOPE  C21119761   0.884   6.857   9.846 -0.1645 -1.0973 -0.5027
  174SOPE  H11R19762   0.808   6.933   9.817  0.1438 -0.4144  0.4582
  174SOPE  H11S19763   0.836   6.804   9.932 -0.2931 -1.7928 -0.9908
  174SOPE  C21219764   0.881   6.762   9.722  0.6770  0.0524 -0.7814
  174SOPE  H12R19765   0.778   6.720   9.712  0.3093  0.8151 -0.3192
  174SOPE  H12S19766   0.934   6.671   9.758 -0.2841  0.8557  3.2315
  174SOPE  C21319767   0.934   6.837   9.598  0.8276  0.0895 -0.2354
  174SOPE  H13R19768   1.043   6.855   9.604  0.5980  1.1430  1.0976
  174SOPE  H13S19769   0.895   6.941   9.593  0.9364  0.1184 -0.4941
  174SOPE  C21419770   0.911   6.766   9.471  0.6410  0.0057  0.4136
  174SOPE  H14R19771   0.931   6.833   9.385 -3.1931 -0.0148 -0.6604
  174SOPE  H14S19772   0.809   6.724   9.462  0.7046 -0.2261  0.7704
  174SOPE  C21519773   1.004   6.645   9.477 -1.1506 -0.8515  0.3219
  174SOPE  H15R19774   0.947   6.575   9.541  0.4276 -0.4665  2.2856
  174SOPE  H15S19775   1.087   6.673   9.546  0.1030 -0.1309 -1.3952
  174SOPE  C21619776   1.051   6.588   9.344 -0.5071  0.0901  0.4175
  174SOPE  H16R19777   1.130   6.511   9.355  0.4107  0.6863 -1.5836
  174SOPE  H16S19778   1.090   6.668   9.277  1.8135  1.2093  2.9062
  174SOPE  C21719779   0.942   6.520   9.268  0.1513  0.7087  0.3904
  174SOPE  H17R19780   0.950   6.542   9.159 -1.3128 -1.5138 -0.2265
  174SOPE  H17S19781   0.843   6.560   9.299 -0.8741  0.0557 -1.8269
  174SOPE  C21819782   0.945   6.367   9.262 -1.0567  0.0571 -0.0672
  174SOPE  H18R19783   0.851   6.331   9.214 -0.3558 -2.7093  0.4774
  174SOPE  H18S19784   0.951   6.329   9.366  0.7252  0.6491  0.0755
  174SOPE  H18T19785   1.026   6.321   9.202 -1.8457  1.5457 -2.4218
  174SOPE   C3319786   1.107   6.364  10.309 -0.9552  0.2603  0.7631
  174SOPE   H3X19787   1.192   6.292  10.319 -0.4090  0.7142 -0.4201
  174SOPE   H3Y19788   1.148   6.463  10.337 -0.1933  0.8365 -2.0941
  174SOPE   C3419789   1.059   6.370  10.171 -0.4037 -0.5262 -0.4931
  174SOPE   H4X19790   0.974   6.439  10.152 -0.7596 -0.3220  1.6073
  174SOPE   H4Y19791   1.024   6.268  10.144 -2.0064 -0.3827  0.8912
  174SOPE   C3519792   1.173   6.402  10.069 -0.8901 -0.6909  0.0817
  174SOPE   H5X19793   1.268   6.359  10.107  0.6044  0.9659 -1.6111
  174SOPE   H5Y19794   1.184   6.512  10.077 -0.7135 -0.7953  1.5942
  174SOPE   C3619795   1.148   6.377   9.920 -0.0983  0.1258  0.5318
  174SOPE   H6X19796   1.045   6.414   9.905 -0.2121  0.6334  2.2752
  174SOPE   H6Y19797   1.146   6.268   9.897  1.6246  0.7057 -2.9609
  174SOPE   C3719798   1.247   6.445   9.820 -0.0336 -0.8773  1.1169
  174SOPE   H7X19799   1.350   6.444   9.861  0.6359  0.1176 -0.4438
  174SOPE   H7Y19800   1.236   6.555   9.810  2.6275 -0.6876 -0.5665
  174SOPE   C3819801   1.258   6.385   9.677  0.0164  0.4260 -0.0901
  174SOPE   H8X19802   1.158   6.378   9.630 -0.1491  2.0848 -0.0695
  174SOPE   H8Y19803   1.304   6.284   9.684  0.8096  0.8204  0.5346
  174SOPE   C3919804   1.346   6.464   9.581 -0.4588 -0.2694 -0.0704
  174SOPE   H9X19805   1.451   6.479   9.614 -1.3389  1.9062  2.1423
  174SOPE   H9Y19806   1.295   6.562   9.568 -0.0815 -0.1077 -0.3267
  174SOPE  C31019807   1.352   6.393   9.450 -0.1264 -0.3614 -0.1259
  174SOPE  H10X19808   1.255   6.362   9.405  0.3002 -0.2592 -1.1410
  174SOPE  H10Y19809   1.404   6.296   9.463 -0.3879 -0.4882 -0.0144
  174SOPE  C31119810   1.424   6.484   9.347 -0.1995 -0.2812 -0.4785
  174SOPE  H11X19811   1.525   6.493   9.393 -0.7296 -2.0033  1.1212
  174SOPE  H11Y19812   1.378   6.585   9.345 -1.3536 -0.7625  0.5156
  174SOPE  C31219813   1.445   6.429   9.207 -0.0033  0.1173  0.0878
  174SOPE  H12X19814   1.499   6.332   9.211  1.0082  0.5816 -1.4222
  174SOPE  H12Y19815   1.510   6.501   9.153 -0.6535  2.0478  1.7569
  174SOPE  C31319816   1.323   6.403   9.127  0.1860 -0.6175 -0.0582
  174SOPE  H13X19817   1.238   6.474   9.128  1.6177  1.1564  1.0751
  174SOPE  H13Y19818   1.266   6.319   9.173 -1.4266  0.0205 -0.8178
  174SOPE  C31419819   1.353   6.357   8.995 -0.3512  0.1810  0.1193
  174SOPE  H14X19820   1.419   6.268   9.000 -0.6503  0.0083  1.8375
  174SOPE  H14Y19821   1.414   6.430   8.939 -0.4051  0.6718  0.6928
  174SOPE  C31519822   1.227   6.307   8.918 -0.4087  0.2647  0.5274
  174SOPE  H15X19823   1.168   6.397   8.890  0.5011  0.6796 -0.0981
  174SOPE  H15Y19824   1.167   6.246   8.989 -3.2082  2.0290 -0.1728
  174SOPE  C31619825   1.267   6.223   8.799 -0.1502 -0.4763  0.1309
  174SOPE  H16X19826   1.170   6.186   8.759 -0.5433  1.2537 -0.5628
  174SOPE  H16Y19827   1.319   6.133   8.838  0.6325 -0.9004 -1.7640
  174SOPE  C31719828   1.343   6.296   8.690  0.1421  0.5459 -0.6982
  174SOPE  H17X19829   1.448   6.322   8.713 -0.0184  3.5161 -2.8227
  174SOPE  H17Y19830   1.292   6.395   8.688 -1.0605 -0.0012  0.5871
  174SOPE  C31819831   1.339   6.235   8.551 -0.5514  0.2628 -0.2115
  174SOPE  H18X19832   1.410   6.286   8.482 -0.0532 -1.1841 -0.8038
  174SOPE  H18Y19833   1.236   6.245   8.510 -0.2497  1.6979 -0.6962
  174SOPE  H18Z19834   1.359   6.127   8.566 -0.2181  0.3770  0.1800
  175SOPE     N19835   4.169   1.719  10.940  0.0364 -1.0298 -0.1894
  175SOPE   HN119836   4.202   1.638  10.997  2.0876 -0.3559 -0.3365
  175SOPE   HN219837   4.220   1.802  10.978 -1.3758 -1.4679  3.0333
  175SOPE   HN319838   4.069   1.729  10.966 -0.2111 -3.6701  0.1626
  175SOPE   C1219839   4.199   1.685  10.791 -0.5222  0.6094 -0.3677
  175SOPE  H12A19840   4.207   1.775  10.726  3.2521  1.0132  0.4081
  175SOPE  H12B19841   4.126   1.608  10.759  1.8091 -1.5876 -0.6917
  175SOPE   C1119842   4.339   1.621  10.777  0.1541  0.4298 -0.0961
  175SOPE  H11A19843   4.346   1.591  10.670 -1.7730 -2.6822  0.5238
  175SOPE  H11B19844   4.347   1.530  10.840 -2.1933  0.6383  0.5775
  175SOPE     P19845   4.522   1.788  10.698 -0.1539 -0.1246  0.3936
  175SOPE   O1319846   4.637   1.851  10.768  0.4068 -0.8794  0.0524
  175SOPE   O1419847   4.423   1.871  10.629  0.5375 -0.2707 -0.3543
  175SOPE   O1219848   4.446   1.706  10.806 -0.2465 -0.3129 -0.1072
  175SOPE   O1119849   4.571   1.680  10.600 -0.1612 -0.6447  0.5273
  175SOPE    C119850   4.609   1.693  10.472  0.1396 -1.0381  0.1967
  175SOPE    HA19851   4.710   1.648  10.464 -0.1489 -1.7367  0.3872
  175SOPE    HB19852   4.608   1.799  10.440 -0.5927 -0.7812  1.0177
  175SOPE    C219853   4.511   1.626  10.374  0.2983  0.3253 -0.6637
  175SOPE    HS19854   4.544   1.627  10.267 -0.8341  0.8128 -1.0178
  175SOPE   O2119855   4.383   1.679  10.381 -0.0991 -0.2823  0.4543
  175SOPE   C2119856   4.370   1.809  10.335  0.6905 -0.0182  0.3445
  175SOPE   O2219857   4.453   1.875  10.281 -0.5246  0.1616  0.1241
  175SOPE   C2219858   4.227   1.856  10.364 -0.3039 -0.4558  0.1937
  175SOPE   H2R19859   4.219   1.884  10.471 -2.1845  0.6463 -0.1985
  175SOPE   H2S19860   4.148   1.782  10.341  0.1403 -0.8453 -0.1090
  175SOPE    C319861   4.490   1.475  10.412 -0.0647 -0.5790  0.5286
  175SOPE    HX19862   4.428   1.461  10.502 -0.8048  4.2090  1.0345
  175SOPE    HY19863   4.596   1.443  10.427  1.6804  1.7652 -4.3859
  175SOPE   O3119864   4.450   1.397  10.298  0.0533  0.1509  0.5037
  175SOPE   C3119865   4.329   1.335  10.295 -0.2701 -0.2490  0.1184
  175SOPE   O3219866   4.247   1.339  10.380 -0.3910 -0.3231 -0.6207
  175SOPE   C3219867   4.296   1.256  10.164 -0.0038 -0.0654  0.1515
  175SOPE   H2X19868   4.225   1.175  10.188  0.7181 -0.4453  1.0668
  175SOPE   H2Y19869   4.395   1.226  10.121 -0.6953 -0.5674 -1.1397
  175SOPE   C2319870   4.194   1.991  10.295 -0.9329 -0.8716 -0.5985
  175SOPE   H3R19871   4.251   2.075  10.341  0.2166  0.5618 -4.2514
  175SOPE   H3S19872   4.090   2.027  10.305 -0.1457  1.9096 -1.4690
  175SOPE   C2419873   4.218   1.993  10.140  0.1219 -0.0261 -0.6684
  175SOPE   H4R19874   4.202   2.093  10.093 -2.0752 -0.1353 -0.2465
  175SOPE   H4S19875   4.322   1.970  10.106 -0.0845  1.2261 -2.2600
  175SOPE   C2519876   4.130   1.883  10.068 -0.1078 -0.3041 -0.7398
  175SOPE   H5R19877   4.167   1.782  10.098 -1.6392 -0.5130  0.6004
  175SOPE   H5S19878   4.032   1.895  10.118  1.0238  2.6963  1.0281
  175SOPE   C2619879   4.106   1.899   9.911  0.1855  0.1932  0.2489
  175SOPE   H6R19880   4.048   1.807   9.892  2.2192 -1.1083  0.1016
  175SOPE   H6S19881   4.037   1.983   9.884 -2.1627 -0.3724  3.7570
  175SOPE   C2719882   4.241   1.916   9.832  0.2918  0.3492 -0.0228
  175SOPE   H7R19883   4.272   2.019   9.858 -2.7348  1.8702 -1.8063
  175SOPE   H7S19884   4.308   1.831   9.857  2.2177  2.2609  1.8060
  175SOPE   C2819885   4.200   1.921   9.680 -0.0135 -0.1862  0.2021
  175SOPE   H8R19886   4.136   2.010   9.664  0.3486 -0.1910 -1.4798
  175SOPE   H8S19887   4.281   1.947   9.608 -0.0489 -1.4190 -0.3060
  175SOPE   C2919888   4.127   1.803   9.631 -0.0609 -0.6326 -0.1427
  175SOPE   H9119889   4.144   1.707   9.682 -1.5314 -0.3807  0.8880
  175SOPE  C21019890   4.042   1.814   9.532  1.0103  0.1219  0.3732
  175SOPE  H10119891   3.997   1.726   9.484  1.4017 -0.5163  1.1475
  175SOPE  C21119892   4.027   1.930   9.439  0.3083 -0.1683 -0.1218
  175SOPE  H11R19893   4.091   2.019   9.456 -1.5464  1.4604 -1.2947
  175SOPE  H11S19894   3.929   1.977   9.458 -0.1101 -0.7207 -0.8556
  175SOPE  C21219895   4.039   1.898   9.286 -0.2377 -0.0044  0.5108
  175SOPE  H12R19896   4.132   1.838   9.274  0.1605 -0.5953  4.9317
  175SOPE  H12S19897   4.055   1.990   9.226 -0.7103  0.7558  1.5226
  175SOPE  C21319898   3.916   1.829   9.219  0.4424  0.0740 -0.8671
  175SOPE  H13R19899   3.824   1.890   9.217  0.3068  0.1795  2.4677
  175SOPE  H13S19900   3.892   1.732   9.267 -1.3432  0.8410 -0.1248
  175SOPE  C21419901   3.955   1.804   9.068  0.2310 -0.6355 -0.3172
  175SOPE  H14R19902   3.887   1.719   9.045  0.1642 -1.0264  1.1958
  175SOPE  H14S19903   4.057   1.759   9.065  0.6747  0.2662  0.6815
  175SOPE  C21519904   3.936   1.918   8.965  0.2572 -0.1513 -0.0050
  175SOPE  H15R19905   3.990   2.006   9.006  1.4446 -0.4794 -0.8216
  175SOPE  H15S19906   3.827   1.943   8.960  0.5140  0.7539 -1.8976
  175SOPE  C21619907   3.998   1.896   8.825 -0.4149  0.2622  0.4111
  175SOPE  H16R19908   3.980   1.792   8.792  1.8028 -0.0933  0.1948
  175SOPE  H16S19909   4.108   1.896   8.838 -0.3666  4.0831  1.1967
  175SOPE  C21719910   3.954   1.987   8.718 -0.0065 -0.4915  0.2011
  175SOPE  H17R19911   4.036   1.995   8.644  1.7477  0.6195  2.1558
  175SOPE  H17S19912   3.953   2.092   8.754  2.5233 -0.2328 -0.2970
  175SOPE  C21819913   3.828   1.965   8.630 -0.6012  0.3910  0.4813
  175SOPE  H18R19914   3.733   1.956   8.687 -1.1270  0.8337 -0.3130
  175SOPE  H18S19915   3.834   1.872   8.569 -0.6886  0.8012 -0.1635
  175SOPE  H18T19916   3.816   2.043   8.552 -0.5696 -2.4265 -2.5567
  175SOPE   C3319917   4.238   1.347  10.050  0.4737 -0.1756 -0.4020
  175SOPE   H3X19918   4.309   1.431  10.034 -1.4904  1.3684 -1.4663
  175SOPE   H3Y19919   4.147   1.392  10.096  0.3073  0.0549 -0.9446
  175SOPE   C3419920   4.199   1.277   9.925 -0.3354 -0.0399 -0.2263
  175SOPE   H4X19921   4.129   1.194   9.948 -0.9530  0.3749 -0.5812
  175SOPE   H4Y19922   4.290   1.231   9.881 -0.2416  0.1359 -0.2199
  175SOPE   C3519923   4.133   1.375   9.823  0.3026 -0.3416 -0.0047
  175SOPE   H5X19924   4.207   1.455   9.800 -2.5391  3.1555  2.0090
  175SOPE   H5Y19925   4.050   1.435   9.866  0.0045 -0.1785 -0.7735
  175SOPE   C3619926   4.077   1.301   9.700  0.3854  0.0010  0.1968
  175SOPE   H6X19927   3.992   1.236   9.729 -0.4040  1.8179  2.2946
  175SOPE   H6Y19928   4.148   1.232   9.651 -0.1849  0.1621 -0.8887
  175SOPE   C3719929   4.027   1.401   9.589 -0.2817 -1.0869 -0.3462
  175SOPE   H7X19930   4.112   1.468   9.565 -0.9374 -0.0869  0.0617
  175SOPE   H7Y19931   3.948   1.463   9.637  0.6157  0.0226 -0.2598
  175SOPE   C3819932   3.998   1.330   9.458 -0.2123  0.1866  0.0184
  175SOPE   H8X19933   3.950   1.231   9.476 -0.3083 -0.2148 -2.2125
  175SOPE   H8Y19934   4.098   1.317   9.411  1.0348  1.2172  2.2474
  175SOPE   C3919935   3.903   1.414   9.364  0.1011 -0.0853  0.0643
  175SOPE   H9X19936   3.950   1.514   9.354 -0.2931 -0.1000 -2.3714
  175SOPE   H9Y19937   3.798   1.419   9.400  0.6941 -0.7299  2.0163
  175SOPE  C31019938   3.897   1.346   9.225 -0.3877 -0.1431 -0.0067
  175SOPE  H10X19939   3.911   1.237   9.236 -0.8074 -0.2149 -0.1596
  175SOPE  H10Y19940   3.984   1.388   9.170  0.2353 -0.7913  0.4732
  175SOPE  C31119941   3.773   1.371   9.140 -0.0707  0.2349  0.8272
  175SOPE  H11X19942   3.763   1.482   9.141 -1.8950  0.0984  0.7677
  175SOPE  H11Y19943   3.676   1.345   9.187  0.9484 -1.3989  2.1257
  175SOPE  C31219944   3.783   1.313   8.992 -0.3704 -0.6623  0.0104
  175SOPE  H12X19945   3.832   1.381   8.920 -0.5811 -2.1779 -1.6334
  175SOPE  H12Y19946   3.679   1.319   8.953 -0.5657  0.6434  0.6972
  175SOPE  C31319947   3.845   1.172   8.984  0.0597  0.9122  0.2537
  175SOPE  H13X19948   3.800   1.119   9.071  0.7179 -1.0749 -0.5486
  175SOPE  H13Y19949   3.952   1.170   9.014 -0.1216  0.2746  0.8715
  175SOPE  C31419950   3.821   1.090   8.858  0.4503  0.1157 -0.2758
  175SOPE  H14X19951   3.712   1.100   8.840 -0.0865 -0.4763  2.3097
  175SOPE  H14Y19952   3.840   0.980   8.863 -1.2287 -0.1695  0.4828
  175SOPE  C31519953   3.889   1.150   8.732 -0.7347  1.0409 -0.2293
  175SOPE  H15X19954   3.980   1.202   8.768 -2.1222  2.8636  0.7866
  175SOPE  H15Y19955   3.813   1.221   8.694 -0.9078 -0.4291 -2.8576
  175SOPE  C31619956   3.938   1.052   8.622 -0.7265 -0.4355  0.0847
  175SOPE  H16X19957   3.854   0.998   8.574 -0.9398  0.8442 -1.0368
  175SOPE  H16Y19958   4.010   0.978   8.663  3.6147  2.8361 -0.8998
  175SOPE  C31719959   4.005   1.130   8.509 -0.6215  0.4252  0.4768
  175SOPE  H17X19960   4.085   1.195   8.551 -1.1662  1.1662  0.3897
  175SOPE  H17Y19961   3.930   1.195   8.460 -0.9492  0.3860  0.9191
  175SOPE  C31819962   4.070   1.035   8.399  0.5121 -0.5259 -0.4501
  175SOPE  H18X19963   4.010   0.955   8.351  3.0686 -1.9191 -1.5677
  175SOPE  H18Y19964   4.157   0.990   8.451  0.8251  1.7453  1.1786
  175SOPE  H18Z19965   4.122   1.097   8.322  3.6373  1.2590  2.7695
  176SOPE     N19966   3.474   0.666  10.845  0.1254 -0.1242  0.0351
  176SOPE   HN119967   3.573   0.683  10.873  0.3563  1.0445 -1.3627
  176SOPE   HN219968   3.437   0.756  10.809  0.3358 -0.6346 -1.5063
  176SOPE   HN319969   3.426   0.631  10.930  0.3118  0.5854  0.4442
  176SOPE   C1219970   3.465   0.561  10.742  0.1962 -0.0569 -0.3104
  176SOPE  H12A19971   3.530   0.582  10.655  1.1059  0.8866  0.5687
  176SOPE  H12B19972   3.358   0.557  10.714  0.3122 -0.8852 -0.6539
  176SOPE   C1119973   3.508   0.428  10.808  0.5173 -0.6567 -0.0505
  176SOPE  H11A19974   3.483   0.342  10.742  1.3208 -1.0554  0.1604
  176SOPE  H11B19975   3.448   0.420  10.901  1.5725  0.9111  0.8196
  176SOPE     P19976   3.765   0.364  10.775 -0.2441  0.0979 -0.0726
  176SOPE   O1319977   3.782   0.224  10.818 -0.1053 -0.2712  0.8541
  176SOPE   O1419978   3.875   0.463  10.792 -0.4166 -0.4640 -0.1041
  176SOPE   O1219979   3.644   0.431  10.852  0.0104 -0.0785  0.2723
  176SOPE   O1119980   3.718   0.377  10.628 -0.3089  0.1077  0.3156
  176SOPE    C119981   3.732   0.252  10.559  0.6904  0.2362 -0.3852
  176SOPE    HA19982   3.661   0.180  10.605  0.9009  1.9950  3.0164
  176SOPE    HB19983   3.837   0.218  10.564  0.4290 -0.7502 -1.3350
  176SOPE    C219984   3.682   0.274  10.416 -0.6742 -0.1254  0.0270
  176SOPE    HS19985   3.759   0.340  10.370  0.5619  1.2755  3.6751
  176SOPE   O2119986   3.549   0.331  10.404  0.3512 -0.1119  0.0207
  176SOPE   C2119987   3.526   0.418  10.310 -0.7103 -0.0612 -0.3220
  176SOPE   O2219988   3.609   0.480  10.244 -0.2353 -0.4913 -0.5506
  176SOPE   C2219989   3.383   0.431  10.280  0.1951  0.6866 -0.7159
  176SOPE   H2R19990   3.371   0.533  10.237  0.5939  0.1309 -2.2330
  176SOPE   H2S19991   3.337   0.438  10.380 -1.1666 -2.1316 -1.0348
  176SOPE    C319992   3.683   0.132  10.357  0.3479 -0.3016 -0.2842
  176SOPE    HX19993   3.605   0.068  10.402  2.4239 -1.3246  2.0722
  176SOPE    HY19994   3.782   0.084  10.372  0.4536 -0.5897 -1.7179
  176SOPE   O3119995   3.665   0.134  10.215 -0.1561 -0.0970  0.3161
  176SOPE   C3119996   3.680   0.023  10.137 -0.1695 -0.6775 -0.3559
  176SOPE   O3219997   3.706  -0.089  10.168  0.1980  0.0545 -0.0756
  176SOPE   C3219998   3.688   0.068   9.989 -0.1194  0.5778  0.1788
  176SOPE   H2X19999   3.797   0.084   9.978  0.5092 -1.7059  2.2293
  176SOPE   H2Y20000   3.641   0.168   9.977 -1.0250 -0.0027 -1.3946
  176SOPE   C2320001   3.331   0.326  10.178 -0.3957  0.8077  0.3907
  176SOPE   H3R20002   3.401   0.334  10.093 -0.3975 -4.2316 -0.4416
  176SOPE   H3S20003   3.240   0.361  10.125  0.3155 -0.6853 -1.9807
  176SOPE   C2420004   3.321   0.178  10.226  1.1499  0.3959  0.3484
  176SOPE   H4R20005   3.418   0.155  10.276  2.2468  0.5005 -1.6088
  176SOPE   H4S20006   3.236   0.174  10.296  1.9880 -0.9120  1.3256
  176SOPE   C2520007   3.285   0.082  10.107  0.3776  0.7583  0.2663
  176SOPE   H5R20008   3.177   0.107  10.095  0.6165  2.3811  1.2517
  176SOPE   H5S20009   3.346   0.099  10.016 -1.4207  2.2222 -0.7268
  176SOPE   C2620010   3.294  -0.062  10.148 -0.1847  0.7158  0.0315
  176SOPE   H6R20011   3.390  -0.091  10.195 -0.1481  3.7839  2.1339
  176SOPE   H6S20012   3.221  -0.084  10.229  1.2910  0.0895  1.2511
  176SOPE   C2720013   3.254  -0.161  10.034 -0.2504  0.8836  0.5814
  176SOPE   H7R20014   3.333  -0.154   9.955  0.7903  0.7945  1.5899
  176SOPE   H7S20015   3.254  -0.265  10.071  1.9210  0.6171 -0.0296
  176SOPE   C2820016   3.124  -0.131   9.957 -0.3216 -0.5267  0.0102
  176SOPE   H8R20017   3.053  -0.107  10.039  0.1133  1.8663 -0.2638
  176SOPE   H8S20018   3.138  -0.036   9.902  3.1883 -1.1666 -0.4646
  176SOPE   C2920019   3.082  -0.242   9.868  0.3088  0.1606 -0.0976
  176SOPE   H9120020   3.051  -0.334   9.919  0.6597  0.1848  0.1554
  176SOPE  C21020021   3.088  -0.246   9.736  0.4712 -0.0439  0.3528
  176SOPE  H10120022   3.056  -0.338   9.684  1.0940  0.5505 -1.1403
  176SOPE  C21120023   3.122  -0.126   9.646  0.0302 -0.8838  0.1465
  176SOPE  H11R20024   3.200  -0.143   9.569  0.5662  3.4149 -0.5058
  176SOPE  H11S20025   3.175  -0.050   9.707  1.1410  1.4760 -3.4399
  176SOPE  C21220026   3.001  -0.061   9.568  0.9891  0.0812 -0.7735
  176SOPE  H12R20027   2.939  -0.010   9.645  0.7031  0.2189 -1.0923
  176SOPE  H12S20028   2.949  -0.145   9.518 -1.8113  0.6468  0.9872
  176SOPE  C21320029   3.044   0.045   9.468  0.0375 -0.2635  0.1791
  176SOPE  H13R20030   3.126   0.007   9.402 -0.9426 -1.2767 -0.4781
  176SOPE  H13S20031   3.081   0.131   9.528 -0.9950  1.3025 -1.3065
  176SOPE  C21420032   2.930   0.100   9.383 -0.5826 -0.1179 -0.6826
  176SOPE  H14R20033   2.851   0.129   9.456  0.9162  2.0078  0.1880
  176SOPE  H14S20034   2.880   0.038   9.305 -0.8232  1.1843 -1.5884
  176SOPE  C21520035   2.956   0.236   9.305 -0.8017 -0.1268 -0.8830
  176SOPE  H15R20036   3.026   0.205   9.225 -1.2781  0.2806 -1.4770
  176SOPE  H15S20037   3.003   0.305   9.379 -1.4049 -0.1799 -0.4415
  176SOPE  C21620038   2.823   0.291   9.250  0.6170 -0.0327 -0.2855
  176SOPE  H16R20039   2.783   0.208   9.188  1.5754 -0.1387 -0.7858
  176SOPE  H16S20040   2.848   0.380   9.189 -1.2014  0.0661 -0.9572
  176SOPE  C21720041   2.714   0.335   9.351 -0.2478 -0.3329  0.4333
  176SOPE  H17R20042   2.685   0.246   9.410  0.9060 -1.1017 -0.1240
  176SOPE  H17S20043   2.629   0.359   9.284  1.0822  0.1035 -1.1759
  176SOPE  C21820044   2.750   0.463   9.428  0.5162 -0.4142  0.2297
  176SOPE  H18R20045   2.659   0.513   9.467  1.5941  1.2122  0.7942
  176SOPE  H18S20046   2.783   0.540   9.355 -0.9954  1.7415  1.7081
  176SOPE  H18T20047   2.822   0.443   9.510  2.5972 -2.1590 -1.8726
  176SOPE   C3320048   3.630  -0.040   9.895 -0.5338 -0.2718 -0.2330
  176SOPE   H3X20049   3.551  -0.101   9.944 -0.1538 -1.2537 -0.7965
  176SOPE   H3Y20050   3.710  -0.116   9.888  0.0471 -0.1826  3.5650
  176SOPE   C3420051   3.602   0.014   9.758 -0.4423  0.3440 -0.0596
  176SOPE   H4X20052   3.692   0.074   9.732 -0.3457  1.4420  2.4529
  176SOPE   H4Y20053   3.517   0.084   9.750 -0.6286  0.4965  2.3977
  176SOPE   C3520054   3.581  -0.096   9.651  0.2105  0.1988 -0.1863
  176SOPE   H5X20055   3.497  -0.152   9.696  0.8107  1.0130  2.0367
  176SOPE   H5Y20056   3.673  -0.158   9.638  0.7124  0.5595  1.5053
  176SOPE   C3620057   3.540  -0.056   9.512 -1.1725  0.7677  0.2568
  176SOPE   H6X20058   3.630   0.002   9.481 -2.0073  3.4421  2.4908
  176SOPE   H6Y20059   3.451   0.009   9.525  0.3688  2.9933  0.0719
  176SOPE   C3720060   3.502  -0.174   9.414 -0.3020  0.1271  0.2446
  176SOPE   H7X20061   3.399  -0.205   9.442  0.5942 -2.5635  0.8611
  176SOPE   H7Y20062   3.561  -0.266   9.429 -1.9860 -0.9467  0.5941
  176SOPE   C3820063   3.509  -0.131   9.262 -0.0104  0.2701  0.4618
  176SOPE   H8X20064   3.599  -0.067   9.245 -0.5626  1.4161  1.7344
  176SOPE   H8Y20065   3.425  -0.062   9.240  1.6168  2.3637  0.4380
  176SOPE   C3920066   3.500  -0.248   9.164 -0.0821  1.2289 -0.9797
  176SOPE   H9X20067   3.444  -0.330   9.213  0.5366  1.6084  0.4169
  176SOPE   H9Y20068   3.601  -0.292   9.167 -0.2061  0.9642 -0.6712
  176SOPE  C31020069   3.441  -0.214   9.027 -0.2362  0.0195  0.1092
  176SOPE  H10X20070   3.503  -0.131   8.987  1.1770 -1.3267 -0.6312
  176SOPE  H10Y20071   3.334  -0.184   9.031  0.2816  2.0080  0.3201
  176SOPE  C31120072   3.469  -0.326   8.919 -0.1725  0.5682  0.1264
  176SOPE  H11X20073   3.409  -0.416   8.946  2.7730 -1.4959  0.1988
  176SOPE  H11Y20074   3.577  -0.350   8.926  0.0749  2.0293  2.3995
  176SOPE  C31220075   3.433  -0.282   8.776 -0.1744 -0.8126  0.3233
  176SOPE  H12X20076   3.324  -0.261   8.772  0.4125  3.2601  1.2983
  176SOPE  H12Y20077   3.445  -0.367   8.706 -1.3224 -1.1514  0.5257
  176SOPE  C31320078   3.498  -0.156   8.717  0.0890  0.3130  0.0632
  176SOPE  H13X20079   3.599  -0.195   8.693 -1.2995 -3.7688 -0.1152
  176SOPE  H13Y20080   3.506  -0.074   8.792  0.8862 -2.6210  3.5063
  176SOPE  C31420081   3.425  -0.138   8.584 -0.4515  0.2513 -0.6131
  176SOPE  H14X20082   3.324  -0.095   8.599 -1.2296 -0.7152 -2.6754
  176SOPE  H14Y20083   3.421  -0.228   8.518  0.3066 -1.9040  2.1021
  176SOPE  C31520084   3.498  -0.028   8.496 -0.4839 -0.3205  0.1356
  176SOPE  H15X20085   3.604  -0.051   8.473 -0.2519 -0.0123  0.8607
  176SOPE  H15Y20086   3.516   0.062   8.559  0.1081 -0.1059 -0.3338
  176SOPE  C31620087   3.422   0.022   8.372 -0.1576 -0.5633  0.1863
  176SOPE  H16X20088   3.313   0.016   8.394  0.0586 -2.3170  0.9338
  176SOPE  H16Y20089   3.436  -0.053   8.291  2.2293  0.8388 -0.7882
  176SOPE  C31720090   3.446   0.170   8.333  0.0463  0.1577  0.3712
  176SOPE  H17X20091   3.554   0.177   8.358 -0.1238 -1.2336  1.6425
  176SOPE  H17Y20092   3.402   0.245   8.401 -0.8155  0.3627 -0.3980
  176SOPE  C31820093   3.409   0.200   8.187 -0.4090 -0.0236 -0.9045
  176SOPE  H18X20094   3.308   0.155   8.172  0.0679 -2.8476  2.7660
  176SOPE  H18Y20095   3.484   0.148   8.124  1.1074  0.3071  0.5611
  176SOPE  H18Z20096   3.421   0.306   8.157  0.7138 -0.5570 -2.4576
  177SOPE     N20097   1.667   5.632  10.742  0.0658  0.0181 -0.4764
  177SOPE   HN120098   1.703   5.535  10.753 -1.2711 -0.3106  1.6212
  177SOPE   HN220099   1.698   5.663  10.647  0.6852  1.2178  0.0987
  177SOPE   HN320100   1.707   5.695  10.814  1.1487 -1.2701  0.1013
  177SOPE   C1220101   1.521   5.635  10.752  0.0434  0.1881  0.0668
  177SOPE  H12A20102   1.492   5.701  10.667 -0.6679 -0.7303 -0.4295
  177SOPE  H12B20103   1.501   5.675  10.853  1.4712 -1.0762  0.9041
  177SOPE   C1120104   1.465   5.491  10.743  0.3944 -0.5301 -0.2117
  177SOPE  H11A20105   1.511   5.438  10.656  2.5002 -1.1321  1.1930
  177SOPE  H11B20106   1.357   5.476  10.723 -0.5233 -0.1405  3.7522
  177SOPE     P20107   1.597   5.315  10.901 -0.6895 -0.0206  0.2452
  177SOPE   O1320108   1.553   5.182  10.845 -0.2952  0.1512 -0.4723
  177SOPE   O1420109   1.621   5.324  11.046  0.5410 -0.1509  0.1231
  177SOPE   O1220110   1.483   5.417  10.861 -0.3181  0.1233  0.4601
  177SOPE   O1120111   1.717   5.368  10.811 -0.6533  0.6180  0.2054
  177SOPE    C120112   1.851   5.356  10.875 -0.4672 -0.4270  0.6284
  177SOPE    HA20113   1.873   5.251  10.905 -0.0171 -0.6988 -0.5855
  177SOPE    HB20114   1.859   5.431  10.957 -1.1860  3.0964 -2.2544
  177SOPE    C220115   1.959   5.392  10.776  0.0312 -0.3170  0.8050
  177SOPE    HS20116   1.953   5.497  10.742  0.1299 -0.9051 -1.1739
  177SOPE   O2120117   1.943   5.309  10.653 -0.4980 -0.0266  0.3742
  177SOPE   C2120118   1.843   5.339  10.575 -0.4885 -0.0963 -0.5254
  177SOPE   O2220119   1.802   5.453  10.555 -0.3651 -0.1126 -0.1710
  177SOPE   C2220120   1.778   5.210  10.530 -0.3248  0.0609  0.0808
  177SOPE   H2R20121   1.674   5.229  10.497 -0.3980  0.1202  0.3436
  177SOPE   H2S20122   1.792   5.133  10.609  1.9002 -1.3213 -1.5243
  177SOPE    C320123   2.106   5.368  10.831  0.5786  0.1992  0.5209
  177SOPE    HX20124   2.110   5.257  10.840  0.9469 -0.1324 -2.4512
  177SOPE    HY20125   2.125   5.410  10.932 -2.4594  1.7724  0.5349
  177SOPE   O3120126   2.206   5.416  10.742  0.3106  0.0669 -0.5706
  177SOPE   C3120127   2.248   5.353  10.642 -0.0004  0.1340  0.3893
  177SOPE   O3220128   2.243   5.232  10.624  0.3697 -0.3506  0.4690
  177SOPE   C3220129   2.302   5.461  10.542  0.5109 -0.5245  0.3925
  177SOPE   H2X20130   2.392   5.505  10.589  0.1855  0.8758 -0.2324
  177SOPE   H2Y20131   2.218   5.532  10.525  2.2427  0.9949 -2.7729
  177SOPE   C2320132   1.843   5.157  10.399  0.5822  0.3835 -0.5383
  177SOPE   H3R20133   1.792   5.061  10.377 -0.3188  0.7200  0.0120
  177SOPE   H3S20134   1.951   5.135  10.411  0.6392  1.1522  0.5181
  177SOPE   C2420135   1.839   5.258  10.286  0.2208 -0.3965  0.2268
  177SOPE   H4R20136   1.731   5.272  10.265  0.3253  0.8232  0.4369
  177SOPE   H4S20137   1.880   5.357  10.312 -0.0518 -0.2232  0.0020
  177SOPE   C2520138   1.897   5.199  10.159 -0.3291 -0.3141  0.3795
  177SOPE   H5R20139   2.006   5.191  10.173  0.1023  2.8282 -0.5120
  177SOPE   H5S20140   1.856   5.096  10.146 -2.3625  0.2992  1.3709
  177SOPE   C2620141   1.880   5.284  10.025  0.3268 -0.2583  0.2220
  177SOPE   H6R20142   1.775   5.276   9.989  0.8570 -0.8732 -1.2593
  177SOPE   H6S20143   1.911   5.388  10.048 -1.3892  0.5103 -0.7316
  177SOPE   C2720144   1.975   5.225   9.921 -0.0677 -0.2405 -0.0696
  177SOPE   H7R20145   2.070   5.218   9.978 -1.0330 -1.1366  1.5189
  177SOPE   H7S20146   1.941   5.120   9.903 -0.5244 -0.1416  0.2002
  177SOPE   C2820147   1.990   5.311   9.794  0.2274  0.1921 -0.7291
  177SOPE   H8R20148   2.025   5.411   9.827  1.0949 -1.1866  2.9744
  177SOPE   H8S20149   2.070   5.265   9.732  1.2589 -0.8066  1.2262
  177SOPE   C2920150   1.867   5.323   9.705 -0.2733  0.2740 -0.2591
  177SOPE   H9120151   1.773   5.331   9.762  0.2128 -1.4715  0.8632
  177SOPE  C21020152   1.856   5.309   9.572  0.4114  0.4811  1.1491
  177SOPE  H10120153   1.756   5.309   9.526  0.6394 -2.9201  0.3884
  177SOPE  C21120154   1.959   5.294   9.468  0.0478  0.0456 -0.4226
  177SOPE  H11R20155   2.060   5.275   9.512 -0.1509 -1.3049 -0.5120
  177SOPE  H11S20156   1.960   5.386   9.405  0.5435  0.2530 -0.1235
  177SOPE  C21220157   1.935   5.178   9.371  0.5929  0.0159 -0.2548
  177SOPE  H12R20158   1.854   5.202   9.299  0.4572 -1.0896 -0.4762
  177SOPE  H12S20159   1.899   5.089   9.427 -0.4002  0.7004  0.2419
  177SOPE  C21320160   2.063   5.148   9.295 -0.1808 -0.1770 -0.6065
  177SOPE  H13R20161   2.136   5.117   9.372 -1.5707  0.3537  0.9994
  177SOPE  H13S20162   2.091   5.246   9.252  1.6550 -0.0786  0.7123
  177SOPE  C21420163   2.043   5.045   9.189  0.9170 -0.2838  0.0972
  177SOPE  H14R20164   1.941   5.066   9.149  1.4298  1.3479 -0.4045
  177SOPE  H14S20165   2.041   4.946   9.240  0.8786 -0.0294  0.5983
  177SOPE  C21520166   2.161   5.052   9.091 -0.3514 -0.2946  0.3365
  177SOPE  H15R20167   2.260   5.016   9.126 -0.2310 -0.2761  0.0219
  177SOPE  H15S20168   2.167   5.158   9.060 -2.6055 -0.1532  0.1901
  177SOPE  C21620169   2.146   4.953   8.973 -0.3615  0.6980 -0.2625
  177SOPE  H16R20170   2.148   4.853   9.021 -0.0526  0.4982 -0.6990
  177SOPE  H16S20171   2.236   4.973   8.912  0.6687 -0.7485  0.7300
  177SOPE  C21720172   2.017   4.963   8.891  0.6961  0.0652  0.6801
  177SOPE  H17R20173   2.014   5.063   8.842 -0.3174  0.0782  0.7345
  177SOPE  H17S20174   1.932   4.962   8.963  2.2027  3.1391  2.7252
  177SOPE  C21820175   2.012   4.857   8.784  0.1492 -0.7348 -0.2080
  177SOPE  H18R20176   2.026   4.760   8.838  1.3828 -0.4289  0.0637
  177SOPE  H18S20177   2.092   4.868   8.708 -1.7321 -0.6781 -2.2684
  177SOPE  H18T20178   1.921   4.860   8.722  0.7249 -0.2437 -1.0462
  177SOPE   C3320179   2.339   5.420  10.398 -0.3178  0.6281  0.1545
  177SOPE   H3X20180   2.263   5.358  10.345  0.7406 -1.7122  1.2327
  177SOPE   H3Y20181   2.440   5.375  10.387 -0.6121  0.3524 -1.6813
  177SOPE   C3420182   2.349   5.547  10.318 -0.6492 -0.6812 -0.3233
  177SOPE   H4X20183   2.434   5.604  10.362 -1.6152  0.7900 -0.3231
  177SOPE   H4Y20184   2.258   5.608  10.333  0.3461  0.3689  2.0529
  177SOPE   C3520185   2.391   5.513  10.174  0.3722  0.0432 -0.3451
  177SOPE   H5X20186   2.490   5.463  10.172 -0.0675 -0.8424 -0.8628
  177SOPE   H5Y20187   2.401   5.606  10.114  0.5977  0.6419  0.6004
  177SOPE   C3620188   2.286   5.428  10.095 -0.0989  0.3404  0.1747
  177SOPE   H6X20189   2.184   5.467  10.116  0.5750  1.2665  1.9856
  177SOPE   H6Y20190   2.288   5.325  10.137  0.9704 -0.2843 -1.3543
  177SOPE   C3720191   2.310   5.432   9.946 -0.1686  0.1482  0.3240
  177SOPE   H7X20192   2.261   5.350   9.890  0.5894  0.0084 -0.1570
  177SOPE   H7Y20193   2.420   5.424   9.930 -0.3577  0.8276 -1.5642
  177SOPE   C3820194   2.259   5.566   9.884 -0.3787  0.5354 -0.5841
  177SOPE   H8X20195   2.323   5.645   9.928  1.0901 -0.5444 -0.6772
  177SOPE   H8Y20196   2.157   5.579   9.925  0.0404 -0.0506  0.7244
  177SOPE   C3920197   2.249   5.580   9.734 -0.0131  0.3528  0.8103
  177SOPE   H9X20198   2.204   5.679   9.713  0.1325  0.4025  0.7282
  177SOPE   H9Y20199   2.186   5.494   9.704  1.0970  0.1630 -1.1361
  177SOPE  C31020200   2.383   5.587   9.652 -1.1379 -0.4050 -0.2277
  177SOPE  H10X20201   2.471   5.609   9.717 -0.6967 -1.3993 -0.4694
  177SOPE  H10Y20202   2.380   5.663   9.571  2.3813 -0.3028 -0.4289
  177SOPE  C31120203   2.418   5.449   9.588  0.6615  0.9341  0.1014
  177SOPE  H11X20204   2.371   5.377   9.658  2.3640  0.1304  0.4892
  177SOPE  H11Y20205   2.528   5.440   9.574  0.5156  0.6544 -1.0079
  177SOPE  C31220206   2.338   5.438   9.451  0.3640  0.7077 -0.1674
  177SOPE  H12X20207   2.241   5.491   9.460 -0.2238 -0.4407  0.5219
  177SOPE  H12Y20208   2.309   5.331   9.438  1.4380  0.1096  1.8229
  177SOPE  C31320209   2.418   5.486   9.331  0.2837  0.7537 -0.0318
  177SOPE  H13X20210   2.521   5.443   9.331  0.0963  0.3102 -0.0593
  177SOPE  H13Y20211   2.424   5.597   9.340  1.1444  0.9343 -2.1843
  177SOPE  C31420212   2.363   5.456   9.193 -0.7057  0.8297 -0.7515
  177SOPE  H14X20213   2.276   5.518   9.163 -0.0715  1.8347 -0.5725
  177SOPE  H14Y20214   2.336   5.348   9.189  1.4599  0.2689 -1.3719
  177SOPE  C31520215   2.472   5.475   9.081 -0.2422 -0.8948  0.6994
  177SOPE  H15X20216   2.426   5.435   8.988  0.4507 -0.0684 -0.0134
  177SOPE  H15Y20217   2.566   5.418   9.093  0.8540  0.5493 -0.7385
  177SOPE  C31620218   2.525   5.621   9.055  0.3070  0.5903  0.3960
  177SOPE  H16X20219   2.617   5.635   9.115  1.7211  0.1514 -1.5496
  177SOPE  H16Y20220   2.446   5.698   9.072  0.0795  0.7529 -1.2293
  177SOPE  C31720221   2.567   5.634   8.908 -0.5621  0.3143  0.0769
  177SOPE  H17X20222   2.474   5.616   8.849  0.6233  0.9589 -2.1188
  177SOPE  H17Y20223   2.639   5.554   8.880 -2.1926 -0.7571 -1.2542
  177SOPE  C31820224   2.624   5.763   8.864  0.1347  0.4794  0.7143
  177SOPE  H18X20225   2.721   5.803   8.903 -0.7664  2.1386  1.3476
  177SOPE  H18Y20226   2.552   5.845   8.886 -0.8555 -0.5789  1.4789
  177SOPE  H18Z20227   2.649   5.768   8.756 -2.5472  3.1311  0.0764
  178SOPE     N20228   6.552   3.502  10.639 -0.0565 -0.2004  0.2189
  178SOPE   HN120229   6.521   3.598  10.663 -2.1163 -1.6985  4.4185
  178SOPE   HN220230   6.482   3.469  10.570 -1.1359 -0.7933  1.5499
  178SOPE   HN320231   6.531   3.449  10.726 -1.4807 -0.5917 -0.3272
  178SOPE   C1220232   6.689   3.484  10.575  0.4336 -0.5573 -0.6478
  178SOPE  H12A20233   6.755   3.536  10.648 -1.4729 -0.6971  1.2894
  178SOPE  H12B20234   6.683   3.543  10.481 -2.7903  0.7470  0.2425
  178SOPE   C1120235   6.731   3.341  10.537 -0.1257 -0.1821  0.0014
  178SOPE  H11A20236   6.736   3.277  10.628  0.2126 -2.9792 -1.8801
  178SOPE  H11B20237   6.836   3.346  10.499 -0.1729 -0.2299 -0.1364
  178SOPE     P20238   6.667   3.135  10.408 -0.0740  0.0440  0.2686
  178SOPE   O1320239   6.572   3.104  10.300 -0.4546  0.3978 -0.0449
  178SOPE   O1420240   6.658   3.051  10.530  0.3233 -0.4466  0.5556
  178SOPE   O1220241   6.633   3.282  10.449  0.1108 -0.9284  0.3259
  178SOPE   O1120242   6.815   3.138  10.361 -0.5746  0.9800  0.4857
  178SOPE    C120243   6.860   3.225  10.250 -0.4483 -0.3383  0.3381
  178SOPE    HA20244   6.967   3.249  10.271 -0.6048 -0.0787  0.8474
  178SOPE    HB20245   6.802   3.319  10.242 -0.6113 -0.5128 -0.7180
  178SOPE    C220246   6.860   3.149  10.103  0.5239 -0.2315 -0.7685
  178SOPE    HS20247   6.932   3.192  10.030  0.6072  1.5066  0.2746
  178SOPE   O2120248   6.725   3.163  10.047  0.4645  0.3498 -0.0043
  178SOPE   C2120249   6.696   3.280  10.001  0.1494 -0.8946 -0.4662
  178SOPE   O2220250   6.773   3.373   9.995  0.0917  0.2447  0.1704
  178SOPE   C2220251   6.553   3.279   9.950 -0.2812  0.1302  0.9826
  178SOPE   H2R20252   6.524   3.382   9.922  0.5007 -0.2379 -1.4055
  178SOPE   H2S20253   6.492   3.249  10.038 -0.3688  3.4671  2.1949
  178SOPE    C320254   6.895   3.004  10.135 -0.2339  0.2340  0.5513
  178SOPE    HX20255   6.817   2.964  10.203  0.4025  1.5519  2.1236
  178SOPE    HY20256   6.991   2.991  10.189  0.6128  0.1513 -0.9063
  178SOPE   O3120257   6.900   2.917  10.016  0.1145 -0.1990 -0.0808
  178SOPE   C3120258   6.789   2.857   9.967 -0.1782  0.0697  0.5388
  178SOPE   O3220259   6.684   2.853  10.027  0.3194  0.1700  0.2458
  178SOPE   C3220260   6.806   2.811   9.817  0.0404 -0.3440 -0.4722
  178SOPE   H2X20261   6.912   2.820   9.783  0.5728  1.8138  1.5370
  178SOPE   H2Y20262   6.737   2.873   9.757  1.2957 -0.8144 -2.4963
  178SOPE   C2320263   6.544   3.185   9.830 -0.5560 -0.5736  0.2061
  178SOPE   H3R20264   6.439   3.148   9.825 -0.6372 -0.2530 -0.4661
  178SOPE   H3S20265   6.603   3.091   9.834 -0.8463 -0.8607 -1.3937
  178SOPE   C2420266   6.568   3.250   9.689 -0.7323  0.4900  0.3142
  178SOPE   H4R20267   6.494   3.332   9.677 -1.4906 -0.0672  1.1138
  178SOPE   H4S20268   6.672   3.288   9.677  0.6404 -2.7911  0.8384
  178SOPE   C2520269   6.543   3.157   9.572  0.2746 -0.0002  0.1636
  178SOPE   H5R20270   6.630   3.088   9.577  0.4441  0.1130 -1.0393
  178SOPE   H5S20271   6.443   3.109   9.585 -0.0742  0.7481  0.2877
  178SOPE   C2620272   6.539   3.237   9.433 -0.2797  0.2635  0.0542
  178SOPE   H6R20273   6.489   3.336   9.437 -0.8602 -0.0131 -0.2097
  178SOPE   H6S20274   6.638   3.268   9.394 -0.1906 -0.1650 -0.0698
  178SOPE   C2720275   6.499   3.147   9.311 -0.0767 -0.6360 -0.4507
  178SOPE   H7R20276   6.556   3.052   9.299 -1.9347 -1.6500 -1.9328
  178SOPE   H7S20277   6.393   3.119   9.327  0.2777 -1.1621  1.1337
  178SOPE   C2820278   6.501   3.236   9.184  0.2752  0.1083  0.1741
  178SOPE   H8R20279   6.445   3.329   9.208 -0.8696  0.0749 -2.0579
  178SOPE   H8S20280   6.606   3.269   9.170 -0.1289  2.3010  1.7835
  178SOPE   C2920281   6.441   3.174   9.062 -0.5386 -0.1745 -0.7802
  178SOPE   H9120282   6.344   3.132   9.090 -0.3996 -0.4354 -0.6753
  178SOPE  C21020283   6.479   3.168   8.938  0.4634  0.6732  0.2412
  178SOPE  H10120284   6.415   3.117   8.865  0.8310 -1.9696  1.6714
  178SOPE  C21120285   6.608   3.210   8.877 -0.4675  0.1351 -1.1069
  178SOPE  H11R20286   6.700   3.161   8.914  0.3459  0.1706 -2.9404
  178SOPE  H11S20287   6.614   3.320   8.892 -2.3121  0.1574 -0.2661
  178SOPE  C21220288   6.605   3.190   8.731  0.7675 -0.3917 -0.4046
  178SOPE  H12R20289   6.505   3.225   8.696  0.6233  1.4609  1.6296
  178SOPE  H12S20290   6.616   3.081   8.712  1.5557 -0.2986 -0.5025
  178SOPE  C21320291   6.716   3.260   8.659 -0.2747  0.0765 -0.4371
  178SOPE  H13R20292   6.811   3.238   8.713 -1.1925  2.4195  2.3224
  178SOPE  H13S20293   6.687   3.365   8.678 -1.5572 -0.5822  1.5958
  178SOPE  C21420294   6.714   3.241   8.502  0.2365 -0.3772 -0.3552
  178SOPE  H14R20295   6.612   3.269   8.470  0.8158  1.2655 -0.8538
  178SOPE  H14S20296   6.728   3.131   8.488 -0.6549 -0.7950  1.7316
  178SOPE  C21520297   6.824   3.313   8.432 -0.8741  0.3979 -0.5022
  178SOPE  H15R20298   6.928   3.284   8.458 -1.3537  0.2604  1.4305
  178SOPE  H15S20299   6.829   3.421   8.456  2.4242  0.1585  0.4521
  178SOPE  C21620300   6.809   3.294   8.279 -0.4186 -0.3557 -0.3333
  178SOPE  H16R20301   6.707   3.319   8.243 -0.0087  0.7347 -0.7887
  178SOPE  H16S20302   6.815   3.184   8.268 -0.6450 -0.3564 -0.4444
  178SOPE  C21720303   6.919   3.357   8.196 -0.0386  0.5697 -0.2310
  178SOPE  H17R20304   7.017   3.326   8.238 -0.7022 -2.7749 -0.8843
  178SOPE  H17S20305   6.898   3.466   8.201 -3.7478 -0.0572  1.1514
  178SOPE  C21820306   6.919   3.316   8.047  0.0630 -1.3091  0.2438
  178SOPE  H18R20307   6.998   3.238   8.045  1.9081  0.4642  0.9185
  178SOPE  H18S20308   6.951   3.408   7.993 -0.3555 -0.1704  1.8619
  178SOPE  H18T20309   6.825   3.277   8.002  0.2577  0.5211 -1.9097
  178SOPE   C3320310   6.763   2.666   9.787  0.5728 -0.0745 -0.2510
  178SOPE   H3X20311   6.667   2.631   9.830  0.2838 -0.6781 -1.3328
  178SOPE   H3Y20312   6.838   2.597   9.832  0.7430  0.9343  1.0634
  178SOPE   C3420313   6.740   2.634   9.637 -0.2241  0.0069 -0.1674
  178SOPE   H4X20314   6.661   2.709   9.616 -0.9043 -0.0327  1.9775
  178SOPE   H4Y20315   6.694   2.533   9.649 -0.6330  0.3034  0.9234
  178SOPE   C3520316   6.862   2.643   9.547  0.2640  1.1880 -1.0916
  178SOPE   H5X20317   6.933   2.568   9.588 -0.9438  0.4113 -0.3583
  178SOPE   H5Y20318   6.893   2.748   9.569 -1.5238  0.7312  5.7207
  178SOPE   C3620319   6.834   2.621   9.398  0.1842 -0.3633  0.1608
  178SOPE   H6X20320   6.808   2.513   9.387 -0.4221 -0.2005 -0.0700
  178SOPE   H6Y20321   6.924   2.632   9.334 -2.6484  0.6725 -4.1221
  178SOPE   C3720322   6.727   2.715   9.330  0.4062 -0.3743  0.4756
  178SOPE   H7X20323   6.746   2.818   9.366  0.5730  0.5732 -2.1455
  178SOPE   H7Y20324   6.626   2.683   9.362  0.4946 -1.2348 -0.0730
  178SOPE   C3820325   6.728   2.708   9.186 -0.3270 -0.6567 -0.0165
  178SOPE   H8X20326   6.721   2.600   9.160 -5.3010 -0.8576  1.1836
  178SOPE   H8Y20327   6.822   2.743   9.140 -0.9005 -1.6531 -2.0740
  178SOPE   C3920328   6.591   2.759   9.131 -0.3125 -0.2723  1.0837
  178SOPE   H9X20329   6.588   2.870   9.129  0.2861 -0.2628 -1.4923
  178SOPE   H9Y20330   6.503   2.722   9.188 -2.0191  2.5772  0.5112
  178SOPE  C31020331   6.566   2.720   8.972 -0.4666  0.4628 -0.9115
  178SOPE  H10X20332   6.461   2.747   8.946 -0.6023 -0.5744 -1.5006
  178SOPE  H10Y20333   6.572   2.609   8.981  1.1938  0.7066  3.5394
  178SOPE  C31120334   6.663   2.763   8.869 -0.0098 -0.3567 -0.1323
  178SOPE  H11X20335   6.761   2.713   8.880  0.5553  0.2411 -2.1026
  178SOPE  H11Y20336   6.673   2.873   8.884  1.5763 -0.5162  0.1613
  178SOPE  C31220337   6.614   2.736   8.729  0.2750  0.2128 -0.9091
  178SOPE  H12X20338   6.612   2.630   8.695 -1.3918 -0.0499 -0.0983
  178SOPE  H12Y20339   6.693   2.792   8.675  1.1595  1.4595  1.5522
  178SOPE  C31320340   6.475   2.797   8.679 -0.0196  0.5073 -0.1110
  178SOPE  H13X20341   6.463   2.899   8.723  1.4883  0.5338  0.3048
  178SOPE  H13Y20342   6.396   2.733   8.723 -0.2670 -0.9261 -2.4602
  178SOPE  C31420343   6.463   2.814   8.532 -0.7731  0.2279  0.4561
  178SOPE  H14X20344   6.448   2.717   8.482 -1.4304  0.9246 -0.7528
  178SOPE  H14Y20345   6.557   2.854   8.487  0.0730 -2.4247 -0.3013
  178SOPE  C31520346   6.335   2.894   8.498  0.0082 -0.4123  0.1031
  178SOPE  H15X20347   6.333   3.000   8.532 -1.9495 -0.3657 -0.0135
  178SOPE  H15Y20348   6.261   2.856   8.571 -0.8505 -2.0456 -1.5337
  178SOPE  C31620349   6.268   2.868   8.365  0.2337 -0.1893 -0.8535
  178SOPE  H16X20350   6.243   2.761   8.346 -2.1883  0.4981 -1.8928
  178SOPE  H16Y20351   6.329   2.907   8.281  1.8640  0.5306  0.6106
  178SOPE  C31720352   6.140   2.955   8.369  0.7014 -0.1590 -0.6035
  178SOPE  H17X20353   6.171   3.060   8.386  0.7597 -0.0320 -1.4485
  178SOPE  H17Y20354   6.080   2.917   8.455  0.5937  0.8858 -0.2085
  178SOPE  C31820355   6.058   2.952   8.239  0.4466 -0.0598  0.2436
  178SOPE  H18X20356   5.954   2.990   8.240  0.3625 -0.2874  0.4209
  178SOPE  H18Y20357   6.053   2.844   8.211 -0.9485 -0.2926  1.2939
  178SOPE  H18Z20358   6.116   3.006   8.161  0.5805 -0.8116 -0.1868
  179SOPE     N20359   4.915   5.760   6.352  0.0634 -0.1692 -0.4976
  179SOPE   HN120360   5.000   5.806   6.313  0.7803 -1.7708 -0.8747
  179SOPE   HN220361   4.939   5.660   6.365  2.0016  0.3932  0.6792
  179SOPE   HN320362   4.848   5.753   6.273 -0.2443 -1.1810 -0.1576
  179SOPE   C1220363   4.875   5.827   6.477 -0.0983  0.1681  0.2730
  179SOPE  H12A20364   4.955   5.817   6.553 -0.0142  1.2760  0.3592
  179SOPE  H12B20365   4.781   5.786   6.518  1.0408 -1.6525  1.1726
  179SOPE   C1120366   4.856   5.978   6.441 -0.1691  0.3969 -0.8770
  179SOPE  H11A20367   4.848   6.017   6.545  2.2747 -2.9638  0.7695
  179SOPE  H11B20368   4.760   5.988   6.386 -1.1132  0.7388  0.7654
  179SOPE     P20369   4.957   6.145   6.289 -0.3036  0.2034  0.3730
  179SOPE   O1320370   4.859   6.245   6.350  0.0381  0.2662  0.0824
  179SOPE   O1420371   4.929   6.092   6.152  0.0531  0.0070 -0.4058
  179SOPE   O1220372   4.974   6.028   6.387 -0.4001 -0.6445  0.4188
  179SOPE   O1120373   5.099   6.210   6.283 -1.1056  0.0428 -0.2976
  179SOPE    C120374   5.201   6.181   6.372  0.3107 -0.1899  0.0720
  179SOPE    HA20375   5.299   6.197   6.323  0.2500  0.2027  0.0722
  179SOPE    HB20376   5.204   6.079   6.416 -2.2090  0.0170  0.8888
  179SOPE    C220377   5.190   6.271   6.494 -0.0570 -0.5170 -0.4855
  179SOPE    HS20378   5.296   6.280   6.528  0.0857 -1.4782 -0.6595
  179SOPE   O2120379   5.104   6.211   6.594  0.2226  0.1537  0.1143
  179SOPE   C2120380   5.170   6.151   6.689  0.2607 -0.6897  0.3915
  179SOPE   O2220381   5.288   6.134   6.682  0.7455  0.7257 -0.3373
  179SOPE   C2220382   5.078   6.105   6.795 -0.0343 -0.2303  0.8899
  179SOPE   H2R20383   5.139   6.091   6.886 -0.4196  0.0136  1.1878
  179SOPE   H2S20384   5.040   6.001   6.781 -0.4816 -0.0768  0.9540
  179SOPE    C320385   5.146   6.418   6.473  0.5109 -0.8253 -0.1703
  179SOPE    HX20386   5.046   6.410   6.424  0.5389 -0.3591 -0.3099
  179SOPE    HY20387   5.213   6.454   6.392 -2.6053 -1.5110 -3.3232
  179SOPE   O3120388   5.145   6.502   6.595 -0.3971  0.9851 -0.0564
  179SOPE   C3120389   5.026   6.523   6.648  0.8565  0.1258  0.6482
  179SOPE   O3220390   4.925   6.458   6.624 -0.3516  0.6054  0.1339
  179SOPE   C3220391   5.027   6.643   6.736 -0.0193 -0.2653 -0.1683
  179SOPE   H2X20392   4.978   6.736   6.701 -0.5016 -1.2494 -2.2609
  179SOPE   H2Y20393   5.131   6.683   6.735  0.1478 -0.6954 -1.4354
  179SOPE   C2320394   4.960   6.204   6.833 -0.3750  0.5356 -0.1329
  179SOPE   H3R20395   4.892   6.229   6.748  0.4628  3.2707 -0.0905
  179SOPE   H3S20396   4.989   6.307   6.863 -0.0554  0.1907  0.7638
  179SOPE   C2420397   4.877   6.141   6.944  0.4698 -0.2728  0.0691
  179SOPE   H4R20398   4.813   6.061   6.902  1.3059 -0.8358 -0.1741
  179SOPE   H4S20399   4.941   6.100   7.025 -0.5262 -1.8662  0.0821
  179SOPE   C2520400   4.781   6.232   7.012 -0.1565  0.0610  0.4602
  179SOPE   H5R20401   4.841   6.322   7.034  1.5848 -0.5062 -1.6674
  179SOPE   H5S20402   4.708   6.274   6.939 -0.9258 -1.0095  0.5828
  179SOPE   C2620403   4.710   6.178   7.139  0.0643  0.0551  0.3612
  179SOPE   H6R20404   4.655   6.084   7.116 -0.9821  0.3606  1.5589
  179SOPE   H6S20405   4.784   6.164   7.221 -0.1755 -3.5169  0.1213
  179SOPE   C2720406   4.606   6.284   7.197 -0.4107 -0.3394 -0.1148
  179SOPE   H7R20407   4.526   6.311   7.125 -0.0015 -0.4010 -0.6034
  179SOPE   H7S20408   4.573   6.239   7.293  2.1276  1.0548  1.5271
  179SOPE   C2820409   4.681   6.418   7.238  0.4219  1.3450  0.6938
  179SOPE   H8R20410   4.754   6.390   7.318  1.3640 -1.6377 -1.0388
  179SOPE   H8S20411   4.740   6.449   7.150 -1.2307  0.8489 -0.6366
  179SOPE   C2920412   4.589   6.530   7.268  0.7651  0.2803 -0.1148
  179SOPE   H9120413   4.556   6.590   7.182  1.6411 -1.7587 -1.9849
  179SOPE  C21020414   4.542   6.560   7.390  0.0404 -0.3021  0.2014
  179SOPE  H10120415   4.460   6.632   7.396  0.2898 -0.0707  0.8691
  179SOPE  C21120416   4.566   6.481   7.517 -0.2393 -0.1638 -0.0718
  179SOPE  H11R20417   4.676   6.470   7.515 -0.3848 -1.6771 -0.9884
  179SOPE  H11S20418   4.523   6.379   7.508  2.6515 -1.6641  1.8298
  179SOPE  C21220419   4.520   6.535   7.655 -0.4659 -0.1767  0.6865
  179SOPE  H12R20420   4.555   6.641   7.657  3.3999 -1.2657 -0.5481
  179SOPE  H12S20421   4.566   6.485   7.743  0.1671 -0.2378  0.3247
  179SOPE  C21320422   4.370   6.532   7.675  0.3685  0.1532  0.8643
  179SOPE  H13R20423   4.331   6.440   7.627  0.5052 -0.1451  1.3161
  179SOPE  H13S20424   4.333   6.616   7.613  0.4931 -0.3830  0.0537
  179SOPE  C21420425   4.309   6.548   7.811 -0.2461 -0.3138  0.9896
  179SOPE  H14R20426   4.198   6.549   7.811 -0.2705  1.5045  0.0921
  179SOPE  H14S20427   4.321   6.654   7.841 -0.7146  0.4477 -1.2592
  179SOPE  C21520428   4.364   6.444   7.911  0.2706  0.3860  0.4540
  179SOPE  H15R20429   4.468   6.471   7.939  0.9275 -0.3275 -1.1858
  179SOPE  H15S20430   4.374   6.351   7.851 -0.2698  0.3799  0.3703
  179SOPE  C21620431   4.273   6.417   8.038  0.7379  0.4013 -0.1717
  179SOPE  H16R20432   4.330   6.352   8.108  2.8594 -0.5411 -2.6011
  179SOPE  H16S20433   4.180   6.363   8.009  1.3027  0.8429 -3.1136
  179SOPE  C21720434   4.235   6.544   8.110  0.7982  0.6611  0.2544
  179SOPE  H17R20435   4.169   6.508   8.192 -1.1799  3.1578 -0.1286
  179SOPE  H17S20436   4.171   6.614   8.051 -0.8847  0.0753  1.2986
  179SOPE  C21820437   4.359   6.613   8.167  0.4436 -0.2875  0.7014
  179SOPE  H18R20438   4.421   6.534   8.215 -1.9547 -1.1371  2.6166
  179SOPE  H18S20439   4.337   6.688   8.246  1.8216  2.2394 -1.1713
  179SOPE  H18T20440   4.425   6.672   8.100  0.5260  0.7803  1.6983
  179SOPE   C3320441   4.972   6.621   6.882  0.0586 -0.0396 -0.0190
  179SOPE   H3X20442   5.001   6.523   6.925  0.4746 -1.5647 -3.4488
  179SOPE   H3Y20443   4.863   6.609   6.866 -0.2312  1.5667  0.4962
  179SOPE   C3420444   4.994   6.738   6.991  0.0566 -0.1806  0.4976
  179SOPE   H4X20445   4.950   6.834   6.956  0.1641  0.7409  2.7647
  179SOPE   H4Y20446   5.102   6.760   6.993 -0.2029  1.0975  1.1551
  179SOPE   C3520447   4.929   6.696   7.121  0.4297 -0.3332 -0.7600
  179SOPE   H5X20448   4.956   6.594   7.155 -2.0289 -1.3677 -1.7214
  179SOPE   H5Y20449   4.818   6.702   7.115  0.2984  2.7884  1.8415
  179SOPE   C3620450   4.982   6.799   7.228 -0.0805  0.6171  0.3042
  179SOPE   H6X20451   4.948   6.899   7.195 -0.2371  0.5131  0.1474
  179SOPE   H6Y20452   5.093   6.797   7.228 -0.0824  0.2278  0.5138
  179SOPE   C3720453   4.919   6.781   7.369  0.0461 -0.5999  0.0713
  179SOPE   H7X20454   4.966   6.690   7.413  0.6389  0.5174  1.8399
  179SOPE   H7Y20455   4.808   6.780   7.365  0.0216  0.1565  0.2992
  179SOPE   C3820456   4.962   6.900   7.459 -0.1382  0.1285 -0.7889
  179SOPE   H8X20457   4.952   7.000   7.412 -0.1444 -0.9864 -3.2773
  179SOPE   H8Y20458   5.070   6.894   7.485  0.0937 -0.5183 -1.8480
  179SOPE   C3920459   4.886   6.893   7.595 -0.5076  0.7919 -0.2215
  179SOPE   H9X20460   4.881   6.788   7.630 -0.5977  0.8653 -0.0124
  179SOPE   H9Y20461   4.791   6.950   7.586 -1.3102  0.0780  2.6345
  179SOPE  C31020462   4.960   6.965   7.712  0.9604 -0.4704 -0.1693
  179SOPE  H10X20463   4.983   7.070   7.684 -1.3520  0.6237  1.7558
  179SOPE  H10Y20464   5.063   6.928   7.730  0.8628 -0.7109 -0.0896
  179SOPE  C31120465   4.886   6.957   7.845 -0.2500  0.2367  0.1790
  179SOPE  H11X20466   4.840   6.856   7.855 -0.3030  0.4508  2.6846
  179SOPE  H11Y20467   4.797   7.024   7.840 -1.6941 -1.6630 -0.6313
  179SOPE  C31220468   4.973   6.981   7.963 -0.0695 -0.6715 -1.2478
  179SOPE  H12X20469   5.035   7.073   7.958 -0.5462 -0.0711  1.8071
  179SOPE  H12Y20470   5.045   6.897   7.970  2.0926  1.1994  0.1402
  179SOPE  C31320471   4.882   6.995   8.090 -0.4311 -0.8054 -0.0680
  179SOPE  H13X20472   4.838   7.097   8.089 -0.0252 -0.6210  0.3969
  179SOPE  H13Y20473   4.957   6.986   8.171  0.0153 -1.6246 -0.5583
  179SOPE  C31420474   4.781   6.885   8.112  0.5095 -0.4018 -0.1413
  179SOPE  H14X20475   4.716   6.855   8.026 -0.8576  1.0593  0.3403
  179SOPE  H14Y20476   4.708   6.929   8.183  1.7514  2.8111 -0.6813
  179SOPE  C31520477   4.848   6.750   8.158  0.5200  0.7009 -0.0135
  179SOPE  H15X20478   4.910   6.771   8.248  0.9699 -0.1154 -0.1194
  179SOPE  H15Y20479   4.913   6.714   8.075 -0.0025 -0.2326 -0.0308
  179SOPE  C31620480   4.750   6.638   8.190 -0.1443  1.0956  0.0534
  179SOPE  H16X20481   4.708   6.600   8.095 -2.0338  0.3134  1.1328
  179SOPE  H16Y20482   4.662   6.675   8.246 -0.5899 -0.0740  0.1616
  179SOPE  C31720483   4.821   6.522   8.265  0.2904  0.2013  0.1979
  179SOPE  H17X20484   4.861   6.556   8.363 -1.0081  2.6204 -0.0221
  179SOPE  H17Y20485   4.908   6.483   8.208 -1.6255 -1.3112 -1.8531
  179SOPE  C31820486   4.721   6.408   8.289 -0.7528 -0.7911  0.3884
  179SOPE  H18X20487   4.763   6.308   8.313  1.6670 -0.1511 -0.8709
  179SOPE  H18Y20488   4.675   6.387   8.191 -1.7646  2.4371  0.0553
  179SOPE  H18Z20489   4.636   6.432   8.357 -0.4419  0.7521  0.2624
  180SOPE     N20490   5.455   5.881   6.106 -0.0135  0.5074 -0.1103
  180SOPE   HN120491   5.484   5.943   6.028 -2.3735 -0.8710 -2.2664
  180SOPE   HN220492   5.537   5.848   6.160 -0.4251 -2.5411 -1.1530
  180SOPE   HN320493   5.416   5.800   6.053  3.2705  0.7624 -3.2872
  180SOPE   C1220494   5.337   5.923   6.200 -0.3021 -0.1546  0.0469
  180SOPE  H12A20495   5.254   5.938   6.126 -1.5038 -2.8157  0.7324
  180SOPE  H12B20496   5.367   6.019   6.247 -3.3258  0.1486  1.6160
  180SOPE   C1120497   5.289   5.824   6.305 -0.4037 -0.2370 -0.6903
  180SOPE  H11A20498   5.259   5.859   6.406  0.6198 -2.9928  0.6997
  180SOPE  H11B20499   5.379   5.760   6.323 -1.3920 -1.4080  0.3478
  180SOPE     P20500   5.218   5.606   6.173 -0.1355 -0.1014  0.0439
  180SOPE   O1320501   5.311   5.644   6.063 -0.6091 -0.2237  0.5134
  180SOPE   O1420502   5.092   5.545   6.130  0.1282  0.3286 -0.1901
  180SOPE   O1220503   5.189   5.736   6.261  0.4449 -0.1449 -0.5278
  180SOPE   O1120504   5.299   5.516   6.272 -0.2441  0.2386  1.0788
  180SOPE    C120505   5.241   5.430   6.368 -0.6181  0.2174 -0.0224
  180SOPE    HA20506   5.317   5.356   6.402  0.0415  0.9535  0.1438
  180SOPE    HB20507   5.160   5.375   6.317 -0.6566  0.1753  0.0822
  180SOPE    C220508   5.188   5.499   6.490 -0.6008 -0.1818 -1.3790
  180SOPE    HS20509   5.121   5.580   6.451 -1.9396 -1.1882 -1.2457
  180SOPE   O2120510   5.299   5.554   6.561  0.1317  0.5876  0.3919
  180SOPE   C2120511   5.291   5.667   6.620 -0.5837 -0.5485 -0.6979
  180SOPE   O2220512   5.195   5.742   6.625  0.0796  0.0437 -0.2576
  180SOPE   C2220513   5.427   5.688   6.698  1.0604  0.6223 -0.1690
  180SOPE   H2R20514   5.503   5.721   6.623  0.6026  2.5246  0.1596
  180SOPE   H2S20515   5.449   5.586   6.737  4.1736  1.2832  0.0950
  180SOPE    C320516   5.107   5.408   6.581 -0.0549  0.1558 -0.4693
  180SOPE    HX20517   5.149   5.305   6.591  0.9248  0.3048 -2.6028
  180SOPE    HY20518   5.008   5.388   6.536 -0.9591  1.6970  0.7437
  180SOPE   O3120519   5.088   5.466   6.719 -0.1594  0.2758  0.4283
  180SOPE   C3120520   4.985   5.550   6.725 -0.7882  0.9095  0.4576
  180SOPE   O3220521   4.912   5.581   6.635  1.0185  0.1132 -0.0150
  180SOPE   C3220522   4.979   5.600   6.871  0.2602  0.1852 -0.1927
  180SOPE   H2X20523   5.076   5.631   6.915 -0.8112  1.9359  1.0834
  180SOPE   H2Y20524   4.945   5.515   6.934 -1.9097  1.2033  0.1087
  180SOPE   C2320525   5.421   5.791   6.808  0.2102 -0.1232  0.0391
  180SOPE   H3R20526   5.341   5.767   6.882  0.4498  2.0317  1.0508
  180SOPE   H3S20527   5.405   5.893   6.768  3.8251  0.9042  0.8951
  180SOPE   C2420528   5.554   5.798   6.880  0.0427 -0.1154  0.1148
  180SOPE   H4R20529   5.583   5.691   6.884  0.5118 -0.2315 -3.3398
  180SOPE   H4S20530   5.623   5.853   6.812 -0.4587  1.2978  0.7081
  180SOPE   C2520531   5.556   5.874   7.013  0.9848 -0.3195 -0.2530
  180SOPE   H5R20532   5.660   5.899   7.042  0.5725  1.8360 -0.4637
  180SOPE   H5S20533   5.512   5.975   6.997  0.3984 -0.2235  1.6821
  180SOPE   C2620534   5.482   5.807   7.130  0.4219 -0.0540  0.3160
  180SOPE   H6R20535   5.391   5.756   7.092  1.7903 -2.3931  0.0327
  180SOPE   H6S20536   5.545   5.727   7.174 -1.3546 -0.4003  2.4085
  180SOPE   C2720537   5.447   5.909   7.240  0.8405  0.6704  0.2392
  180SOPE   H7R20538   5.534   5.897   7.308  1.2211 -0.8795 -0.4683
  180SOPE   H7S20539   5.456   6.014   7.205 -0.5875  1.5791  2.3617
  180SOPE   C2820540   5.307   5.896   7.311 -0.8678  0.1233 -0.4169
  180SOPE   H8R20541   5.286   5.797   7.358  1.5728 -0.5027 -0.5100
  180SOPE   H8S20542   5.323   5.964   7.397 -2.0246  2.3162 -1.8593
  180SOPE   C2920543   5.195   5.943   7.223  0.2248  0.1783  0.1410
  180SOPE   H9120544   5.189   5.906   7.120 -1.3541  0.1689  0.2155
  180SOPE  C21020545   5.087   6.012   7.256 -0.1130 -0.1232 -0.0336
  180SOPE  H10120546   5.017   6.031   7.174  1.3238  0.9558 -1.0651
  180SOPE  C21120547   5.055   6.056   7.395  0.0682 -0.1922  0.0144
  180SOPE  H11R20548   5.027   6.163   7.389 -2.5685 -0.8701 -1.6283
  180SOPE  H11S20549   5.128   6.033   7.476  0.0560 -0.0954  0.0534
  180SOPE  C21220550   4.935   5.990   7.453  0.7652 -0.3746 -0.5100
  180SOPE  H12R20551   4.971   5.885   7.460  0.1936 -0.4727  1.4843
  180SOPE  H12S20552   4.853   5.998   7.379 -0.1120  2.3108  0.6495
  180SOPE  C21320553   4.902   6.052   7.589  0.5282  1.2726  0.0333
  180SOPE  H13R20554   4.992   6.081   7.648  2.5302 -2.0496 -1.1522
  180SOPE  H13S20555   4.862   5.976   7.660 -0.6956  2.1359  0.3017
  180SOPE  C21420556   4.795   6.158   7.591 -0.3519  0.6409  0.9023
  180SOPE  H14R20557   4.700   6.122   7.544  0.0490 -0.4375  0.8810
  180SOPE  H14S20558   4.815   6.250   7.532 -2.6176  2.1717  2.3524
  180SOPE  C21520559   4.766   6.207   7.729  0.7291 -0.3580 -0.4113
  180SOPE  H15R20560   4.730   6.312   7.725  0.6826 -0.1421  2.7839
  180SOPE  H15S20561   4.849   6.205   7.803 -1.5836 -1.7791  2.3661
  180SOPE  C21620562   4.650   6.136   7.804  0.3394  0.0999 -0.5332
  180SOPE  H16R20563   4.670   6.027   7.800 -2.1048 -0.6969  3.1120
  180SOPE  H16S20564   4.554   6.156   7.751  1.4260  0.7891 -2.3020
  180SOPE  C21720565   4.638   6.177   7.947  0.1184 -0.6922  0.7738
  180SOPE  H17R20566   4.618   6.286   7.937 -0.4334 -0.8560 -0.0492
  180SOPE  H17S20567   4.742   6.168   7.986  0.3267  1.4274  0.8487
  180SOPE  C21820568   4.522   6.117   8.031  0.1724  0.4200 -0.4697
  180SOPE  H18R20569   4.430   6.155   7.982 -0.6204  1.4136  1.6722
  180SOPE  H18S20570   4.530   6.163   8.132 -1.4920  0.1549 -0.1964
  180SOPE  H18T20571   4.531   6.007   8.043 -3.6591  0.1019  1.1151
  180SOPE   C3320572   4.878   5.716   6.885 -0.1526 -0.3360 -0.3602
  180SOPE   H3X20573   4.776   5.683   6.856  0.1217 -0.3699 -1.3215
  180SOPE   H3Y20574   4.894   5.812   6.830 -0.2718  0.1066  0.3608
  180SOPE   C3420575   4.848   5.763   7.034 -1.0626  0.5984  0.4267
  180SOPE   H4X20576   4.775   5.846   7.026  0.7490  2.1423 -1.2212
  180SOPE   H4Y20577   4.944   5.790   7.083  0.5646 -3.7590  0.0616
  180SOPE   C3520578   4.785   5.652   7.121  0.2445 -0.5479  0.0352
  180SOPE   H5X20579   4.858   5.569   7.132  0.3882 -0.2546  1.5021
  180SOPE   H5Y20580   4.699   5.604   7.070 -1.7437  2.3060  0.4399
  180SOPE   C3620581   4.755   5.707   7.255 -0.2075 -0.0843  0.5634
  180SOPE   H6X20582   4.826   5.792   7.269  0.7908 -0.8328  0.1935
  180SOPE   H6Y20583   4.775   5.628   7.331  1.3333 -0.0691  0.2169
  180SOPE   C3720584   4.618   5.766   7.277 -0.1409  0.5468  0.3206
  180SOPE   H7X20585   4.538   5.696   7.245 -1.2482  0.8104  2.3699
  180SOPE   H7Y20586   4.601   5.846   7.201  0.0037  0.3554  0.0857
  180SOPE   C3820587   4.599   5.815   7.423  0.1687 -0.9101  0.2616
  180SOPE   H8X20588   4.528   5.899   7.417 -0.0859 -1.2129 -2.0235
  180SOPE   H8Y20589   4.690   5.874   7.446  0.6585 -0.3412 -2.6401
  180SOPE   C3920590   4.564   5.708   7.525 -0.6787 -0.1403  0.4177
  180SOPE   H9X20591   4.633   5.622   7.510 -0.8466  0.2838 -3.8901
  180SOPE   H9Y20592   4.458   5.675   7.510 -0.4096  0.2191 -2.9422
  180SOPE  C31020593   4.582   5.756   7.673  0.2136 -0.6082  0.7242
  180SOPE  H10X20594   4.535   5.857   7.671  1.2636 -0.1158 -0.6780
  180SOPE  H10Y20595   4.689   5.762   7.699 -0.0792 -0.2783  1.9229
  180SOPE  C31120596   4.514   5.656   7.770  0.0339  0.0258 -0.9604
  180SOPE  H11X20597   4.568   5.560   7.763  0.6424  0.3306 -0.5288
  180SOPE  H11Y20598   4.406   5.637   7.753 -0.2593  0.5743  0.1788
  180SOPE  C31220599   4.513   5.716   7.920  0.0229  0.0478 -0.3351
  180SOPE  H12X20600   4.421   5.777   7.936  0.0079  0.3467 -1.4864
  180SOPE  H12Y20601   4.594   5.791   7.925 -0.0787  0.1270  0.2810
  180SOPE  C31320602   4.543   5.608   8.024  0.3938 -0.6130 -0.1546
  180SOPE  H13X20603   4.624   5.545   7.981 -0.9393 -1.2214 -1.8564
  180SOPE  H13Y20604   4.455   5.541   8.020 -1.7562  2.1175 -1.4993
  180SOPE  C31420605   4.556   5.662   8.174  0.4441 -0.1888  0.1003
  180SOPE  H14X20606   4.630   5.745   8.171 -0.0163  0.2439  0.5475
  180SOPE  H14Y20607   4.586   5.579   8.241 -0.4957  0.7348  1.7223
  180SOPE  C31520608   4.432   5.733   8.234  0.0631 -0.1141  0.7783
  180SOPE  H15X20609   4.351   5.658   8.229 -1.0518  1.0732  0.6512
  180SOPE  H15Y20610   4.396   5.812   8.165 -2.0404  0.1450  2.0748
  180SOPE  C31620611   4.465   5.788   8.373  0.2905 -0.3927  0.0567
  180SOPE  H16X20612   4.560   5.846   8.374 -0.1098  0.2713  1.3198
  180SOPE  H16Y20613   4.487   5.704   8.442  0.3730  0.2606  0.8444
  180SOPE  C31720614   4.361   5.877   8.436  0.1819 -0.3090  0.0640
  180SOPE  H17X20615   4.290   5.804   8.481 -0.7007 -1.3288 -2.7404
  180SOPE  H17Y20616   4.301   5.932   8.360  0.7989 -1.7805 -1.5481
  180SOPE  C31820617   4.414   5.977   8.543 -0.0760  0.5495 -0.4488
  180SOPE  H18X20618   4.470   6.058   8.490  0.0926  0.3306 -0.6064
  180SOPE  H18Y20619   4.481   5.934   8.620 -1.0864 -0.6530 -0.2168
  180SOPE  H18Z20620   4.340   6.041   8.596 -0.2579 -0.2778  0.3183
  181SOPE     N20621   5.270   4.039   5.767 -0.1537 -0.2323  0.3798
  181SOPE   HN120622   5.335   4.119   5.758  1.8413 -1.3354  3.4397
  181SOPE   HN220623   5.331   3.958   5.789 -1.7434 -2.2008 -1.8368
  181SOPE   HN320624   5.221   4.021   5.676 -0.0532 -1.4159  0.5400
  181SOPE   C1220625   5.178   4.081   5.877 -0.5934  0.6658 -0.6309
  181SOPE  H12A20626   5.096   4.007   5.869  0.9844 -1.3143  0.6318
  181SOPE  H12B20627   5.141   4.184   5.856 -2.3403  0.2622  0.3343
  181SOPE   C1120628   5.259   4.080   6.010  0.3410 -0.6979  0.9177
  181SOPE  H11A20629   5.198   4.111   6.097 -3.0132 -0.5508 -1.2698
  181SOPE  H11B20630   5.323   4.170   5.999 -1.4760  0.4205 -1.3941
  181SOPE     P20631   5.260   3.844   6.107  0.4663  0.0965 -0.0524
  181SOPE   O1320632   5.364   3.757   6.174  0.8459 -0.2111  0.9602
  181SOPE   O1420633   5.154   3.792   6.020 -0.8365  0.1590  0.1004
  181SOPE   O1220634   5.331   3.960   6.034 -0.3755 -0.4792 -0.2625
  181SOPE   O1120635   5.189   3.923   6.231 -0.2356  0.4815  0.2065
  181SOPE    C120636   5.274   3.964   6.345 -0.4812  0.8731  0.6507
  181SOPE    HA20637   5.273   4.075   6.358  2.3697  1.1552 -0.7744
  181SOPE    HB20638   5.383   3.950   6.331 -0.5170  1.0886  0.0962
  181SOPE    C220639   5.238   3.895   6.480  0.3382 -0.1462 -0.1521
  181SOPE    HS20640   5.216   3.787   6.464 -1.4445  0.0618  0.6671
  181SOPE   O2120641   5.117   3.960   6.525 -0.5558 -0.1704 -0.4816
  181SOPE   C2120642   5.039   3.897   6.615  0.0059  0.6362  0.6470
  181SOPE   O2220643   5.052   3.781   6.647 -0.1445 -0.2637  0.0340
  181SOPE   C2220644   4.932   3.988   6.660  0.4608  1.1640  0.9122
  181SOPE   H2R20645   4.894   3.939   6.752  0.0274 -2.0216 -0.8496
  181SOPE   H2S20646   4.857   3.991   6.578 -0.6245  1.2323  1.8926
  181SOPE    C320647   5.354   3.916   6.584 -0.2372 -0.2069  0.2659
  181SOPE    HX20648   5.354   4.025   6.608 -0.1366 -0.1520  0.0249
  181SOPE    HY20649   5.442   3.880   6.526 -0.2234  0.7428 -0.3286
  181SOPE   O3120650   5.333   3.840   6.702 -0.2499 -0.3667  0.2876
  181SOPE   C3120651   5.441   3.788   6.772  0.0317 -0.0767  0.3376
  181SOPE   O3220652   5.560   3.809   6.745 -0.0532 -0.2676  0.3588
  181SOPE   C3220653   5.383   3.714   6.892  0.2361  0.0377  0.1648
  181SOPE   H2X20654   5.272   3.718   6.893  0.1827 -0.6372  2.5369
  181SOPE   H2Y20655   5.416   3.775   6.978  1.0143  0.8257 -0.6659
  181SOPE   C2320656   4.972   4.135   6.702 -0.2593  0.2866  1.0642
  181SOPE   H3R20657   4.882   4.200   6.703 -1.0208 -0.7329  0.0607
  181SOPE   H3S20658   5.043   4.173   6.625 -0.3693 -2.3900 -0.4570
  181SOPE   C2420659   5.022   4.143   6.850  0.0594 -0.1194 -0.4696
  181SOPE   H4R20660   5.047   4.251   6.857 -0.2927 -0.1466  2.7030
  181SOPE   H4S20661   4.940   4.120   6.922  1.4754  0.5636  1.4457
  181SOPE   C2520662   5.155   4.080   6.891  0.2601 -0.3110 -0.5788
  181SOPE   H5R20663   5.143   3.970   6.894  0.7870 -0.3611  1.9253
  181SOPE   H5S20664   5.231   4.092   6.811 -0.1579 -0.5963 -1.0222
  181SOPE   C2620665   5.216   4.134   7.023 -0.1113  0.2126 -0.4655
  181SOPE   H6R20666   5.325   4.115   7.037  0.0585  0.8553 -0.8636
  181SOPE   H6S20667   5.217   4.244   7.005 -0.1731  0.2486 -0.2512
  181SOPE   C2720668   5.123   4.103   7.139 -0.3815  0.1829 -0.3455
  181SOPE   H7R20669   5.014   4.101   7.114 -0.1449 -0.2364 -1.4259
  181SOPE   H7S20670   5.148   4.000   7.172  0.9059  0.9248  1.0900
  181SOPE   C2820671   5.136   4.184   7.272  0.0729 -0.4970 -0.7941
  181SOPE   H8R20672   5.079   4.134   7.353 -1.3142  0.9010 -0.8599
  181SOPE   H8S20673   5.243   4.182   7.301 -0.0709  2.8908  0.4225
  181SOPE   C2920674   5.093   4.331   7.258 -0.6427  1.1048 -0.1126
  181SOPE   H9120675   5.134   4.381   7.169 -0.5455  0.2988 -0.5259
  181SOPE  C21020676   5.034   4.411   7.356  0.3430  0.0543  0.0764
  181SOPE  H10120677   5.000   4.511   7.326 -0.7704 -0.5373 -0.6924
  181SOPE  C21120678   4.972   4.359   7.485  0.4068 -0.2140 -0.9880
  181SOPE  H11R20679   4.915   4.265   7.469 -0.2646  0.3309 -1.9124
  181SOPE  H11S20680   4.902   4.436   7.524 -0.9831 -1.1058 -1.6094
  181SOPE  C21220681   5.080   4.329   7.593 -0.1695 -0.4696 -0.2914
  181SOPE  H12R20682   5.139   4.240   7.561 -1.2676 -0.1912 -3.5022
  181SOPE  H12S20683   5.038   4.311   7.694  0.1895 -0.8783 -0.2118
  181SOPE  C21320684   5.189   4.437   7.598 -0.0485 -0.6224  0.4589
  181SOPE  H13R20685   5.141   4.534   7.575  2.3377  0.7442  0.9389
  181SOPE  H13S20686   5.271   4.397   7.535 -1.1372 -1.4716 -0.4640
  181SOPE  C21420687   5.237   4.447   7.735  0.4090 -0.1252  0.3726
  181SOPE  H14R20688   5.274   4.346   7.761  2.5132 -0.3411 -2.8341
  181SOPE  H14S20689   5.156   4.478   7.804 -0.4598  0.0412 -0.6942
  181SOPE  C21520690   5.343   4.551   7.763  0.1200 -0.0951  0.4812
  181SOPE  H15R20691   5.314   4.654   7.733 -2.3200 -0.4353  1.4010
  181SOPE  H15S20692   5.437   4.537   7.706 -0.7447  0.7991 -1.2378
  181SOPE  C21620693   5.390   4.548   7.911  0.0726  0.6115 -0.5177
  181SOPE  H16R20694   5.316   4.586   7.984  2.1940  0.3900  1.8972
  181SOPE  H16S20695   5.477   4.617   7.919  1.0474 -0.7073  1.0177
  181SOPE  C21720696   5.447   4.402   7.949  1.0848  0.2191 -0.2202
  181SOPE  H17R20697   5.528   4.384   7.875  1.2316 -3.5527  0.6386
  181SOPE  H17S20698   5.376   4.320   7.922  1.3128  0.2763 -1.0312
  181SOPE  C21820699   5.504   4.389   8.095 -0.0711 -0.1940 -0.3718
  181SOPE  H18R20700   5.584   4.466   8.104 -0.8716  0.6980 -0.7148
  181SOPE  H18S20701   5.559   4.293   8.103  0.6563  0.3064  0.7863
  181SOPE  H18T20702   5.424   4.396   8.171  3.5317 -0.3474  3.8315
  181SOPE   C3320703   5.444   3.565   6.917  0.8224  0.2134 -0.3372
  181SOPE   H3X20704   5.555   3.569   6.912  0.8366 -0.6844 -0.9686
  181SOPE   H3Y20705   5.409   3.500   6.833 -0.2211  1.2597 -0.7422
  181SOPE   C3420706   5.395   3.520   7.049  0.1331  0.3144 -0.0173
  181SOPE   H4X20707   5.395   3.409   7.058 -0.9812  0.0753 -2.2554
  181SOPE   H4Y20708   5.289   3.549   7.060 -0.4814 -1.8334  0.1819
  181SOPE   C3520709   5.482   3.569   7.171 -0.7934  0.7125 -0.8688
  181SOPE   H5X20710   5.521   3.672   7.166 -2.3141  1.5598  2.0483
  181SOPE   H5Y20711   5.578   3.514   7.175 -2.0841 -1.6482 -0.0270
  181SOPE   C3620712   5.403   3.564   7.302  0.1690 -0.5092 -0.5244
  181SOPE   H6X20713   5.377   3.459   7.330 -0.0594 -0.2038  0.4667
  181SOPE   H6Y20714   5.313   3.628   7.291  1.8339  2.1409  0.3385
  181SOPE   C3720715   5.477   3.620   7.428  0.2373 -0.5406  0.0192
  181SOPE   H7X20716   5.567   3.556   7.439 -0.7008 -1.6985  1.1836
  181SOPE   H7Y20717   5.412   3.607   7.517  0.8880  0.5067  0.6714
  181SOPE   C3820718   5.503   3.772   7.414  0.4239  0.0910 -0.5423
  181SOPE   H8X20719   5.410   3.819   7.376 -1.2688 -1.0905  1.9173
  181SOPE   H8Y20720   5.582   3.780   7.336  0.5142 -0.3326 -0.4916
  181SOPE   C3920721   5.524   3.836   7.549 -0.9204 -0.0111  0.0129
  181SOPE   H9X20722   5.575   3.761   7.613 -1.9591 -2.2724 -1.6658
  181SOPE   H9Y20723   5.422   3.852   7.591 -1.5244  0.2418 -1.5107
  181SOPE  C31020724   5.596   3.973   7.542 -0.3804  0.0121  0.0959
  181SOPE  H10X20725   5.696   3.948   7.499 -0.1236  0.4446  0.4367
  181SOPE  H10Y20726   5.597   3.999   7.650 -0.1614  2.5440 -0.4615
  181SOPE  C31120727   5.521   4.076   7.453 -0.7393 -0.2027  0.0920
  181SOPE  H11X20728   5.415   4.092   7.481 -0.7141  0.6909 -0.2723
  181SOPE  H11Y20729   5.517   4.039   7.349 -1.1454 -0.6313  0.2570
  181SOPE  C31220730   5.602   4.208   7.462 -0.3691  0.3915 -0.4746
  181SOPE  H12X20731   5.712   4.193   7.460 -0.5457 -1.7028  1.3079
  181SOPE  H12Y20732   5.583   4.253   7.562  0.3383  2.5922 -1.2536
  181SOPE  C31320733   5.553   4.323   7.368 -0.1322  0.3131 -0.6560
  181SOPE  H13X20734   5.579   4.426   7.400 -0.4019  0.0618  0.3802
  181SOPE  H13Y20735   5.444   4.324   7.388  0.4165 -0.0122  2.9885
  181SOPE  C31420736   5.576   4.301   7.219  0.2660 -0.5229 -0.1426
  181SOPE  H14X20737   5.496   4.355   7.164  0.4496 -2.0030 -1.9249
  181SOPE  H14Y20738   5.575   4.195   7.189 -2.0993  0.5748 -4.9140
  181SOPE  C31520739   5.708   4.347   7.166 -0.4394  0.2068 -0.6816
  181SOPE  H15X20740   5.793   4.333   7.237 -2.4079  0.9408  1.9803
  181SOPE  H15Y20741   5.717   4.456   7.151 -1.2351  0.0515 -2.5330
  181SOPE  C31620742   5.758   4.285   7.038 -0.6153 -0.1911  0.8772
  181SOPE  H16X20743   5.797   4.186   7.069  0.3558 -0.7610 -1.8762
  181SOPE  H16Y20744   5.833   4.358   7.001 -0.9104  0.4862  1.5705
  181SOPE  C31720745   5.651   4.275   6.934 -0.5341  0.7686 -0.1147
  181SOPE  H17X20746   5.620   4.377   6.905 -0.1747  0.4622 -1.6398
  181SOPE  H17Y20747   5.556   4.230   6.972 -0.7370  0.7374 -0.6434
  181SOPE  C31820748   5.710   4.202   6.808 -0.1988  0.1410  0.1725
  181SOPE  H18X20749   5.810   4.234   6.772  1.0966 -2.7697  0.8814
  181SOPE  H18Y20750   5.636   4.205   6.725 -0.2468  0.3311  0.2208
  181SOPE  H18Z20751   5.727   4.093   6.812  2.4211  0.5129  0.8135
  182SOPE     N20752   5.520   5.358   5.974  0.0242 -0.7328  0.1467
  182SOPE   HN120753   5.594   5.316   5.915 -0.4487  0.2619 -1.2068
  182SOPE   HN220754   5.454   5.412   5.914 -0.1205  1.1094  1.8641
  182SOPE   HN320755   5.570   5.422   6.039 -2.1713  0.4584  0.7658
  182SOPE   C1220756   5.451   5.256   6.068  0.1854  0.7587  0.6013
  182SOPE  H12A20757   5.414   5.182   5.994  2.1487 -0.4069  0.7133
  182SOPE  H12B20758   5.364   5.306   6.116 -1.2138  1.7127 -2.6398
  182SOPE   C1120759   5.540   5.202   6.177 -0.0208 -1.0573 -0.7128
  182SOPE  H11A20760   5.499   5.113   6.229  0.9682 -1.0139  0.1693
  182SOPE  H11B20761   5.539   5.276   6.260  0.7642 -1.5558 -0.2514
  182SOPE     P20762   5.765   5.071   6.176 -0.1700 -0.1399 -0.1518
  182SOPE   O1320763   5.900   5.078   6.110  0.0089 -0.6741  0.0964
  182SOPE   O1420764   5.703   4.942   6.161  0.6158 -0.0186  0.5358
  182SOPE   O1220765   5.671   5.183   6.126 -0.4066  0.5212  0.2603
  182SOPE   O1120766   5.784   5.103   6.337 -0.2264 -0.7266  0.1772
  182SOPE    C120767   5.822   5.238   6.373 -0.1537  0.7496  0.0813
  182SOPE    HA20768   5.741   5.312   6.355 -0.4699  0.6853  1.2180
  182SOPE    HB20769   5.914   5.272   6.319  0.7354 -2.6622 -0.7790
  182SOPE    C220770   5.866   5.236   6.525  0.2807 -0.9295 -0.3661
  182SOPE    HS20771   5.784   5.182   6.577  0.9323 -0.9252  0.6846
  182SOPE   O2120772   5.897   5.373   6.564 -0.3766  0.0495  0.1987
  182SOPE   C2120773   5.791   5.437   6.606 -0.2978  0.5104  0.0724
  182SOPE   O2220774   5.678   5.396   6.614 -0.2516  0.3392  0.5191
  182SOPE   C2220775   5.817   5.587   6.630 -0.2381  0.0068  0.2856
  182SOPE   H2R20776   5.721   5.630   6.668 -0.6248 -1.1011  0.5925
  182SOPE   H2S20777   5.837   5.636   6.532 -1.0694 -0.6033 -0.2012
  182SOPE    C320778   5.989   5.154   6.550  0.2825  0.1656  0.0805
  182SOPE    HX20779   6.087   5.183   6.505  0.6219  0.7708  1.1677
  182SOPE    HY20780   5.971   5.053   6.506  1.2480 -0.0994  0.2727
  182SOPE   O3120781   6.011   5.137   6.688 -0.0304  0.1334  0.2599
  182SOPE   C3120782   6.124   5.196   6.751  0.5036 -0.2141 -0.2566
  182SOPE   O3220783   6.207   5.256   6.694 -0.4053  0.1074  0.1004
  182SOPE   C3220784   6.116   5.166   6.896  0.1177 -0.0880 -0.5405
  182SOPE   H2X20785   6.086   5.060   6.911 -0.3435  0.0192 -0.7156
  182SOPE   H2Y20786   6.038   5.235   6.934  0.5390  0.4502 -0.6447
  182SOPE   C2320787   5.931   5.629   6.729  0.1711  0.4091 -0.1048
  182SOPE   H3R20788   5.944   5.739   6.726  4.5583  0.1123  1.1825
  182SOPE   H3S20789   6.026   5.587   6.689 -0.1945 -1.5443  0.9319
  182SOPE   C2420790   5.906   5.594   6.875 -0.5470  0.4128  0.0793
  182SOPE   H4R20791   5.829   5.669   6.904 -0.5047 -0.2614  2.0269
  182SOPE   H4S20792   5.869   5.490   6.883 -0.0883  0.3097  0.9125
  182SOPE   C2520793   6.036   5.601   6.958  0.5028  0.4059 -0.1934
  182SOPE   H5R20794   6.104   5.521   6.924  3.3190  2.6940 -0.3523
  182SOPE   H5S20795   6.073   5.700   6.922  1.2708  0.1309 -0.1765
  182SOPE   C2620796   6.007   5.609   7.105 -0.5305 -0.1620 -0.1377
  182SOPE   H6R20797   5.918   5.672   7.123  0.3920  0.7851  1.2987
  182SOPE   H6S20798   5.985   5.506   7.140 -0.4480  0.1063  0.7495
  182SOPE   C2720799   6.124   5.671   7.188 -0.2995  0.2138 -0.0659
  182SOPE   H7R20800   6.210   5.601   7.181  1.1952  1.8673  1.0003
  182SOPE   H7S20801   6.158   5.762   7.133  0.9774 -0.9761 -1.3409
  182SOPE   C2820802   6.093   5.696   7.332  0.5388 -0.0661  0.5730
  182SOPE   H8R20803   6.131   5.791   7.375 -3.4769  2.1638 -0.3410
  182SOPE   H8S20804   5.984   5.715   7.337  0.8076  1.5037  0.8803
  182SOPE   C2920805   6.139   5.571   7.409 -0.3325 -0.3549 -0.3307
  182SOPE   H9120806   6.183   5.499   7.338 -1.7616  0.6250 -2.3413
  182SOPE  C21020807   6.119   5.545   7.540  0.2153  0.0363 -0.2327
  182SOPE  H10120808   6.139   5.443   7.576 -0.8925  0.0380  0.4256
  182SOPE  C21120809   6.043   5.627   7.643  0.5797 -0.5203  0.2633
  182SOPE  H11R20810   5.947   5.583   7.678 -1.2023  2.0284 -1.1355
  182SOPE  H11S20811   6.013   5.719   7.590  0.3547 -0.3086  0.7639
  182SOPE  C21220812   6.119   5.670   7.770  0.2621 -0.1567 -0.5695
  182SOPE  H12R20813   6.219   5.707   7.740  0.2469  0.0935 -0.3114
  182SOPE  H12S20814   6.149   5.585   7.835  2.6516  0.6407 -0.5576
  182SOPE  C21320815   6.038   5.776   7.845  0.0629 -0.1620 -0.2590
  182SOPE  H13R20816   5.933   5.742   7.857  0.5360 -1.0135  2.0560
  182SOPE  H13S20817   6.043   5.876   7.796 -0.4955  0.8961  1.6969
  182SOPE  C21420818   6.108   5.818   7.974 -0.2606  0.1589 -0.4070
  182SOPE  H14R20819   6.213   5.840   7.944  0.6596 -0.5625  2.0652
  182SOPE  H14S20820   6.112   5.727   8.038 -1.5203  1.6267  1.8903
  182SOPE  C21520821   6.051   5.934   8.053 -0.1663  0.5877 -0.8910
  182SOPE  H15R20822   5.941   5.943   8.048 -0.3203  0.9077  1.6227
  182SOPE  H15S20823   6.085   6.031   8.010 -0.3492  1.3799  0.6782
  182SOPE  C21620824   6.077   5.920   8.205  0.2338 -0.8685  0.1809
  182SOPE  H16R20825   6.028   6.010   8.249 -0.4038 -2.1838  2.3427
  182SOPE  H16S20826   6.186   5.938   8.216 -0.0354  1.8989 -0.7166
  182SOPE  C21720827   6.035   5.792   8.284 -0.2267 -0.0707 -0.3200
  182SOPE  H17R20828   6.116   5.717   8.278 -1.0312 -1.0700  0.8418
  182SOPE  H17S20829   5.941   5.758   8.235  1.4167 -2.0339 -2.3190
  182SOPE  C21820830   6.010   5.832   8.425  0.1654 -0.1497  0.0766
  182SOPE  H18R20831   5.912   5.883   8.436 -0.3011 -1.2227  1.1746
  182SOPE  H18S20832   6.088   5.897   8.471  0.3584 -0.3554  0.0423
  182SOPE  H18T20833   6.010   5.734   8.477 -0.2724 -0.2887 -0.1754
  182SOPE   C3320834   6.249   5.177   6.965 -0.7064 -0.2983 -0.9433
  182SOPE   H3X20835   6.271   5.286   6.961  2.1104 -0.8285 -2.5142
  182SOPE   H3Y20836   6.325   5.119   6.908  0.5520  0.1218  0.2476
  182SOPE   C3420837   6.233   5.130   7.110  0.2223  0.4083 -0.0902
  182SOPE   H4X20838   6.327   5.120   7.168 -0.9719 -0.6908  1.7591
  182SOPE   H4Y20839   6.186   5.030   7.115 -0.9040  0.9292  0.1199
  182SOPE   C3520840   6.139   5.217   7.203  0.1946 -0.6937  0.2471
  182SOPE   H5X20841   6.031   5.198   7.183 -0.1172 -0.4384  1.5362
  182SOPE   H5Y20842   6.159   5.319   7.164  1.6905 -0.2890  1.9497
  182SOPE   C3620843   6.166   5.201   7.354  0.0331  0.7436  0.0262
  182SOPE   H6X20844   6.110   5.277   7.411 -0.7865 -1.3273  2.1648
  182SOPE   H6Y20845   6.275   5.210   7.376 -0.0768 -0.4955  1.2637
  182SOPE   C3720846   6.137   5.056   7.394  0.3528  0.2730  0.0098
  182SOPE   H7X20847   6.193   4.987   7.327  1.4657  0.5868  0.5939
  182SOPE   H7Y20848   6.031   5.030   7.375  0.8217 -2.3398  0.6026
  182SOPE   C3820849   6.158   5.016   7.538 -0.3355  1.0917 -0.0215
  182SOPE   H8X20850   6.266   5.006   7.559 -0.2859 -0.6023 -0.9217
  182SOPE   H8Y20851   6.125   4.911   7.558  0.0608  0.8495 -0.6116
  182SOPE   C3920852   6.106   5.109   7.636  0.1834  0.0527 -0.4319
  182SOPE   H9X20853   6.170   5.199   7.633 -0.6321  0.6175 -2.7927
  182SOPE   H9Y20854   6.120   5.060   7.735 -0.7109  1.2484  0.3210
  182SOPE  C31020855   5.966   5.167   7.636  0.3792  0.3109  0.3168
  182SOPE  H10X20856   5.888   5.088   7.645  1.3635 -1.0464 -1.9912
  182SOPE  H10Y20857   5.950   5.204   7.532  0.3219 -0.5725  0.0024
  182SOPE  C31120858   5.950   5.282   7.737  0.1205  0.0674  0.1876
  182SOPE  H11X20859   5.865   5.340   7.695  0.8141  1.9505  1.2937
  182SOPE  H11Y20860   6.036   5.353   7.735  0.4716 -0.3633 -0.4790
  182SOPE  C31220861   5.926   5.225   7.880 -0.0098  0.0038 -0.5433
  182SOPE  H12X20862   6.019   5.177   7.916  0.6993  2.5587  1.3365
  182SOPE  H12Y20863   5.841   5.156   7.863 -2.1004  2.3344 -0.2693
  182SOPE  C31320864   5.900   5.346   7.972 -0.0374  0.1716  0.1797
  182SOPE  H13X20865   5.836   5.419   7.919 -1.5539 -1.1595  0.0906
  182SOPE  H13Y20866   5.985   5.415   7.991  0.3090  0.3391 -1.7545
  182SOPE  C31420867   5.811   5.311   8.090 -0.2331  0.4088 -0.7762
  182SOPE  H14X20868   5.864   5.251   8.167  0.2707 -1.6552 -2.6541
  182SOPE  H14Y20869   5.741   5.233   8.053 -1.2297  0.8897  0.0319
  182SOPE  C31520870   5.745   5.434   8.149  0.1677 -0.1708  0.2489
  182SOPE  H15X20871   5.710   5.499   8.066 -0.4236  0.0193  0.6417
  182SOPE  H15Y20872   5.819   5.483   8.215  1.2493  0.4593 -1.3666
  182SOPE  C31620873   5.627   5.388   8.229 -0.5629 -0.1709 -0.0616
  182SOPE  H16X20874   5.661   5.322   8.311 -0.2203  0.7544  0.5575
  182SOPE  H16Y20875   5.544   5.329   8.183 -0.3951 -0.4741  0.0270
  182SOPE  C31720876   5.559   5.509   8.293  0.3706 -0.5337 -0.5602
  182SOPE  H17X20877   5.509   5.560   8.207  1.4484  0.3600 -0.6764
  182SOPE  H17Y20878   5.640   5.572   8.334  1.1191 -0.7445 -1.6629
  182SOPE  C31820879   5.452   5.475   8.401  0.2003 -0.5906 -0.4930
  182SOPE  H18X20880   5.488   5.411   8.484 -2.1443  1.4345  2.2632
  182SOPE  H18Y20881   5.368   5.417   8.358  0.3786 -1.6322  0.5163
  182SOPE  H18Z20882   5.409   5.566   8.447  2.5921 -0.2631  1.3023
  183SOPE     N20883   2.025   2.719   5.905  0.1602  0.2066  0.1632
  183SOPE   HN120884   1.961   2.790   5.945 -0.9308  0.3803 -1.7701
  183SOPE   HN220885   2.045   2.752   5.808 -1.5089 -1.3497 -0.7712
  183SOPE   HN320886   1.959   2.639   5.898  1.5023 -0.9145 -0.2103
  183SOPE   C1220887   2.150   2.693   5.981 -0.9771  0.3073  0.1532
  183SOPE  H12A20888   2.217   2.781   5.973 -0.1530 -0.2785  0.4440
  183SOPE  H12B20889   2.193   2.597   5.946 -1.9395  0.5353 -1.7824
  183SOPE   C1120890   2.118   2.683   6.136 -0.0340  0.3349  0.8200
  183SOPE  H11A20891   2.077   2.784   6.161  1.0492  0.7262  1.0660
  183SOPE  H11B20892   2.214   2.671   6.190 -0.0618 -2.7321  0.3539
  183SOPE     P20893   1.927   2.556   6.267 -0.4502 -0.3345 -0.3955
  183SOPE   O1320894   1.917   2.409   6.289 -0.0490 -0.5418 -0.2871
  183SOPE   O1420895   1.809   2.631   6.213 -0.0555  0.2555  0.1945
  183SOPE   O1220896   2.043   2.571   6.163  0.9496  0.3177 -0.5967
  183SOPE   O1120897   1.994   2.635   6.385 -0.7625 -0.0818 -0.1124
  183SOPE    C120898   2.089   2.571   6.474  0.2566 -0.0032  0.0890
  183SOPE    HA20899   2.172   2.638   6.504  0.4263 -0.7940  1.4896
  183SOPE    HB20900   2.133   2.479   6.429 -2.7569 -0.9778 -1.1320
  183SOPE    C220901   2.024   2.519   6.604  0.2903 -0.0612  0.5836
  183SOPE    HS20902   1.954   2.438   6.571  0.6039 -0.0687 -0.0746
  183SOPE   O2120903   1.965   2.625   6.674 -0.1227 -0.0144 -0.0349
  183SOPE   C2120904   1.840   2.614   6.719 -0.0727 -0.4260 -0.0926
  183SOPE   O2220905   1.767   2.518   6.694  0.2086 -0.2320 -0.4117
  183SOPE   C2220906   1.795   2.735   6.797 -0.4954 -0.1475 -0.2033
  183SOPE   H2R20907   1.730   2.802   6.737 -3.4595 -0.2599  2.5845
  183SOPE   H2S20908   1.881   2.790   6.840 -1.4902 -0.7772  2.8726
  183SOPE    C320909   2.126   2.453   6.692  0.3999 -0.1580 -0.1793
  183SOPE    HX20910   2.219   2.512   6.693  0.0636  0.3749  0.8365
  183SOPE    HY20911   2.148   2.351   6.655 -0.9695 -1.3256  2.0014
  183SOPE   O3120912   2.080   2.440   6.833 -0.1437  0.6125  0.6454
  183SOPE   C3120913   2.132   2.347   6.912 -0.3492 -0.5707 -0.7795
  183SOPE   O3220914   2.214   2.260   6.880  0.4537 -0.0470 -0.4451
  183SOPE   C3220915   2.077   2.372   7.057  0.2980  0.4942  0.0029
  183SOPE   H2X20916   1.967   2.354   7.066 -0.0726  2.4386 -0.2214
  183SOPE   H2Y20917   2.078   2.481   7.080 -0.4557  1.1938 -2.8858
  183SOPE   C2320918   1.700   2.700   6.913 -0.2771 -0.0486 -0.0787
  183SOPE   H3R20919   1.640   2.607   6.899  1.6738 -1.3194 -0.4212
  183SOPE   H3S20920   1.623   2.779   6.926  0.6921  1.3025 -2.1278
  183SOPE   C2420921   1.775   2.697   7.044 -0.0215 -0.0569  0.1664
  183SOPE   H4R20922   1.858   2.622   7.045 -1.3352 -1.5895  1.8101
  183SOPE   H4S20923   1.828   2.793   7.062 -1.1427  0.9081 -1.4308
  183SOPE   C2520924   1.687   2.647   7.162  0.1775 -0.9722  0.1423
  183SOPE   H5R20925   1.613   2.723   7.196 -0.8931 -1.7743 -0.3189
  183SOPE   H5S20926   1.643   2.557   7.115  1.4603 -1.9382  0.7404
  183SOPE   C2620927   1.775   2.599   7.278 -1.1259 -0.5364  0.8667
  183SOPE   H6R20928   1.865   2.551   7.235 -1.0062 -0.6799  1.2757
  183SOPE   H6S20929   1.808   2.682   7.344  2.1593  0.4191 -1.6821
  183SOPE   C2720930   1.698   2.500   7.372 -1.0949 -0.0471  0.3735
  183SOPE   H7R20931   1.604   2.541   7.414 -0.5515  2.8158 -0.9513
  183SOPE   H7S20932   1.669   2.406   7.322  0.9014 -1.1771  1.1954
  183SOPE   C2820933   1.788   2.464   7.492 -0.9754 -0.0127  0.4898
  183SOPE   H8R20934   1.878   2.400   7.473  0.9272  2.0746  1.9445
  183SOPE   H8S20935   1.830   2.562   7.522  2.2985 -1.0756 -0.1397
  183SOPE   C2920936   1.718   2.390   7.602 -0.1181 -0.2782 -0.1771
  183SOPE   H9120937   1.687   2.287   7.579 -2.5010  0.1758  0.6691
  183SOPE  C21020938   1.689   2.437   7.726  0.1021 -0.5161  0.0060
  183SOPE  H10120939   1.643   2.367   7.797 -1.0491  1.0480  0.8723
  183SOPE  C21120940   1.710   2.579   7.778  0.3313  0.0846 -0.3301
  183SOPE  H11R20941   1.774   2.636   7.708  0.6600  1.0366  0.7057
  183SOPE  H11S20942   1.774   2.575   7.869  0.5598 -0.3203 -0.5087
  183SOPE  C21220943   1.573   2.654   7.796 -0.2253  0.4676 -0.3320
  183SOPE  H12R20944   1.517   2.650   7.700 -2.4673 -0.9758  0.9470
  183SOPE  H12S20945   1.601   2.761   7.810  1.4219 -0.1848  2.0117
  183SOPE  C21320946   1.480   2.608   7.910  0.3277  0.1301 -0.4838
  183SOPE  H13R20947   1.466   2.498   7.902  1.0976 -0.1643  1.6090
  183SOPE  H13S20948   1.381   2.660   7.913 -0.6630 -1.7044  0.5071
  183SOPE  C21420949   1.551   2.628   8.041 -0.3034 -0.7439 -0.1871
  183SOPE  H14R20950   1.569   2.737   8.058  0.8739 -0.4929 -2.6999
  183SOPE  H14S20951   1.650   2.581   8.027  0.7270  1.8572 -2.5033
  183SOPE  C21520952   1.474   2.567   8.160  0.4279  0.3863  0.1487
  183SOPE  H15R20953   1.452   2.462   8.132 -0.9346  0.6482  0.1657
  183SOPE  H15S20954   1.375   2.615   8.173 -0.0586 -0.3358 -0.7903
  183SOPE  C21620955   1.543   2.570   8.296 -0.5842  0.1515 -0.0935
  183SOPE  H16R20956   1.572   2.670   8.334  0.3579 -0.2156  0.1707
  183SOPE  H16S20957   1.637   2.512   8.297 -0.7902 -0.1828  0.6064
  183SOPE  C21720958   1.458   2.511   8.411 -0.2081  0.3094 -0.3426
  183SOPE  H17R20959   1.445   2.401   8.408 -0.2765  0.2551  1.1205
  183SOPE  H17S20960   1.356   2.555   8.411 -0.6157 -0.6093  0.0602
  183SOPE  C21820961   1.524   2.534   8.552  0.3217 -0.7066  0.1179
  183SOPE  H18R20962   1.562   2.638   8.562  2.2853 -1.3352 -0.4508
  183SOPE  H18S20963   1.612   2.469   8.568  1.1173  0.6844  1.7921
  183SOPE  H18T20964   1.442   2.518   8.625 -1.6262 -0.0383 -1.7887
  183SOPE   C3320965   2.145   2.290   7.169 -0.6585  0.0546 -0.4056
  183SOPE   H3X20966   2.249   2.328   7.184 -1.9197  3.2258  1.3874
  183SOPE   H3Y20967   2.134   2.185   7.134 -0.2499 -0.7249  1.6882
  183SOPE   C3420968   2.077   2.293   7.307 -0.0372  0.3964  0.4369
  183SOPE   H4X20969   1.971   2.263   7.297 -0.0053  0.7563 -1.2031
  183SOPE   H4Y20970   2.082   2.398   7.341  0.0239  0.3344  0.6217
  183SOPE   C3520971   2.138   2.201   7.411 -0.0309 -0.0630  0.1701
  183SOPE   H5X20972   2.248   2.213   7.411 -0.0950  0.5912  1.0819
  183SOPE   H5Y20973   2.123   2.093   7.387  1.2786 -0.3810  0.6820
  183SOPE   C3620974   2.078   2.240   7.544 -0.1051  1.1609 -0.6969
  183SOPE   H6X20975   1.969   2.222   7.530 -0.0920  1.1385 -0.7709
  183SOPE   H6Y20976   2.090   2.349   7.560  3.7062  1.0178 -1.6835
  183SOPE   C3720977   2.118   2.156   7.660 -0.8816  0.3107  0.8505
  183SOPE   H7X20978   2.227   2.153   7.645 -0.8652 -1.6515  1.0716
  183SOPE   H7Y20979   2.082   2.051   7.656  2.5715 -0.9302 -0.6742
  183SOPE   C3820980   2.069   2.221   7.785  0.3848 -0.1765 -0.8029
  183SOPE   H8X20981   1.958   2.219   7.779  0.3786  2.1388 -3.9772
  183SOPE   H8Y20982   2.092   2.330   7.787 -3.1583  0.6679 -0.8584
  183SOPE   C3920983   2.123   2.158   7.909 -0.4096  0.0421 -0.1683
  183SOPE   H9X20984   2.229   2.127   7.895 -0.6776 -0.7640 -0.5112
  183SOPE   H9Y20985   2.064   2.064   7.917 -0.3336  0.0310  0.2486
  183SOPE  C31020986   2.129   2.232   8.045  0.1786 -0.8599  0.3096
  183SOPE  H10X20987   2.024   2.255   8.071 -0.1433 -1.0593 -0.7812
  183SOPE  H10Y20988   2.178   2.330   8.024 -0.0847 -0.6364  0.7202
  183SOPE  C31120989   2.185   2.139   8.155  0.7655 -0.1039  0.0681
  183SOPE  H11X20990   2.285   2.110   8.117  0.2916  1.3147 -2.4933
  183SOPE  H11Y20991   2.122   2.048   8.151 -0.7594  0.9388 -0.3980
  183SOPE  C31220992   2.186   2.210   8.288 -0.0889 -0.2755 -0.1667
  183SOPE  H12X20993   2.101   2.282   8.297  2.8379  3.5614 -0.3920
  183SOPE  H12Y20994   2.273   2.277   8.306  0.4669 -1.5094  2.1882
  183SOPE  C31320995   2.186   2.127   8.419  0.0092 -0.2636  0.2629
  183SOPE  H13X20996   2.251   2.039   8.395 -1.3539 -1.0675 -0.6187
  183SOPE  H13Y20997   2.084   2.091   8.444  0.7844 -2.0708  1.0209
  183SOPE  C31420998   2.249   2.190   8.543  0.2144  0.6190 -0.6204
  183SOPE  H14X20999   2.219   2.296   8.557 -0.4522  0.5588 -1.5603
  183SOPE  H14Y21000   2.358   2.174   8.532  0.2244 -1.5740  1.7706
  183SOPE  C31521001   2.193   2.128   8.678 -0.1981 -0.4216  0.5139
  183SOPE  H15X21002   2.259   2.161   8.762 -1.1013  0.4165  0.9197
  183SOPE  H15Y21003   2.197   2.017   8.668 -0.7154 -0.4225  0.2800
  183SOPE  C31621004   2.046   2.168   8.714 -0.1258  0.0776  0.3885
  183SOPE  H16X21005   1.978   2.126   8.637  0.4546  0.4021 -0.3109
  183SOPE  H16Y21006   2.034   2.278   8.708 -0.2333  0.1540  1.5935
  183SOPE  C31721007   2.000   2.109   8.848  0.0721 -0.0393  0.0695
  183SOPE  H17X21008   2.082   2.096   8.921 -0.4051 -0.1965  0.5886
  183SOPE  H17Y21009   1.972   2.002   8.844 -0.1281  0.0303 -0.5947
  183SOPE  C31821010   1.891   2.198   8.907  0.9312 -0.1106 -0.8551
  183SOPE  H18X21011   1.809   2.224   8.836 -0.3745 -2.7445 -0.4126
  183SOPE  H18Y21012   1.929   2.299   8.935 -0.4025 -0.0250  0.8429
  183SOPE  H18Z21013   1.854   2.148   8.999  0.3918  1.0964 -0.3875
  184SOPE     N21014   1.644   2.690   6.014 -0.6633 -0.2358 -0.7642
  184SOPE   HN121015   1.696   2.698   5.923  0.3953 -0.9526 -0.2483
  184SOPE   HN221016   1.710   2.696   6.094 -2.6988  1.0494  0.8988
  184SOPE   HN321017   1.601   2.595   6.017  0.8787 -0.9467  0.9904
  184SOPE   C1221018   1.542   2.792   6.030 -0.1701 -0.3235 -0.9922
  184SOPE  H12A21019   1.488   2.786   6.128 -0.6881  1.9899 -1.0603
  184SOPE  H12B21020   1.469   2.796   5.946 -0.8055 -1.4032 -0.5097
  184SOPE   C1121021   1.606   2.936   6.038  1.4312  0.4553 -0.0377
  184SOPE  H11A21022   1.523   3.010   6.030  1.2936  0.2191 -0.9879
  184SOPE  H11B21023   1.680   2.943   5.955  1.3764  0.5281 -0.0807
  184SOPE     P21024   1.743   3.071   6.209 -0.1600  0.0633  0.1680
  184SOPE   O1321025   1.813   3.132   6.093  0.1454 -0.3763 -0.3828
  184SOPE   O1421026   1.835   3.036   6.320  0.2492  0.3905  0.2514
  184SOPE   O1221027   1.682   2.936   6.157  0.4696 -0.1088 -0.2556
  184SOPE   O1121028   1.627   3.159   6.259 -0.2310 -0.3056  0.1257
  184SOPE    C121029   1.501   3.107   6.289  0.0572 -0.0743  0.0649
  184SOPE    HA21030   1.483   2.999   6.271  1.4122 -0.8107  2.6719
  184SOPE    HB21031   1.425   3.161   6.228 -0.4841 -2.7519 -1.8071
  184SOPE    C221032   1.453   3.137   6.435 -0.2185 -0.5200 -0.0686
  184SOPE    HS21033   1.422   3.243   6.450 -2.4296 -1.3079  1.5809
  184SOPE   O2121034   1.555   3.089   6.528  0.6077  0.1610 -0.3489
  184SOPE   C2121035   1.624   3.187   6.580  1.0623  0.4555  0.0936
  184SOPE   O2221036   1.594   3.307   6.573  0.0207 -0.0008 -0.0665
  184SOPE   C2221037   1.744   3.121   6.654 -0.7788  0.5481 -0.2667
  184SOPE   H2R21038   1.818   3.092   6.577 -0.2061  1.1969  0.0288
  184SOPE   H2S21039   1.707   3.030   6.707 -3.5515  1.8264  0.1911
  184SOPE    C321040   1.329   3.051   6.462  0.0206  0.5709  0.3090
  184SOPE    HX21041   1.361   2.944   6.466 -0.5616  0.4336  1.5296
  184SOPE    HY21042   1.264   3.052   6.372  0.0377 -1.3211  0.2217
  184SOPE   O3121043   1.258   3.092   6.579  0.1116  0.3204  0.5983
  184SOPE   C3121044   1.299   3.049   6.697 -0.7883  0.0176  0.6780
  184SOPE   O3221045   1.405   2.991   6.709 -0.5248 -0.1580 -0.0314
  184SOPE   C3221046   1.202   3.104   6.805  0.0015 -0.2774 -0.0761
  184SOPE   H2X21047   1.101   3.070   6.777 -0.2748 -0.8287  1.5099
  184SOPE   H2Y21048   1.198   3.215   6.814 -0.9245 -0.2115 -1.0642
  184SOPE   C2321049   1.811   3.228   6.747 -0.6443  0.2423  0.0416
  184SOPE   H3R21050   1.728   3.274   6.804 -2.0996 -0.4025 -1.4720
  184SOPE   H3S21051   1.859   3.313   6.693 -1.0404  0.8924  0.7026
  184SOPE   C2421052   1.903   3.173   6.850  0.3129 -0.4029 -0.5966
  184SOPE   H4R21053   1.852   3.078   6.875 -0.7501  0.6288  1.4371
  184SOPE   H4S21054   2.003   3.143   6.812  1.0436 -0.1295  1.0411
  184SOPE   C2521055   1.910   3.249   6.985  0.2768 -0.1845 -0.0471
  184SOPE   H5R21056   1.966   3.343   6.967 -1.6024  0.8141 -0.9569
  184SOPE   H5S21057   1.805   3.261   7.020  0.2201 -0.1608 -0.2264
  184SOPE   C2621058   1.983   3.174   7.096  0.5268 -0.1077  0.5444
  184SOPE   H6R21059   2.068   3.120   7.050  1.1092  0.1406  1.3230
  184SOPE   H6S21060   2.020   3.248   7.170  0.4427  1.4150 -0.8604
  184SOPE   C2721061   1.900   3.060   7.147 -0.4990 -0.0394 -0.3888
  184SOPE   H7R21062   1.831   3.023   7.068 -0.2746  1.4539 -1.3301
  184SOPE   H7S21063   1.978   2.982   7.154  1.1874  1.5999 -0.1238
  184SOPE   C2821064   1.833   3.087   7.286 -0.3727  0.3682  0.3798
  184SOPE   H8R21065   1.912   3.118   7.359  0.6199  0.1046 -0.5656
  184SOPE   H8S21066   1.762   3.170   7.265 -0.2776  0.2227 -0.5423
  184SOPE   C2921067   1.771   2.969   7.351 -0.0366  0.3752 -0.0762
  184SOPE   H9121068   1.727   2.894   7.283  1.1976 -0.4506 -0.0058
  184SOPE  C21021069   1.746   2.946   7.481  0.3714  0.5478  0.1169
  184SOPE  H10121070   1.713   2.845   7.508  1.2875  0.2539  0.1655
  184SOPE  C21121071   1.779   3.039   7.593 -0.1451 -0.1960 -0.0212
  184SOPE  H11R21072   1.686   3.091   7.625  0.3664  0.2270  0.8239
  184SOPE  H11S21073   1.851   3.121   7.573 -0.7334  0.5429  0.8087
  184SOPE  C21221074   1.848   2.969   7.714  0.6290  0.5969 -0.2127
  184SOPE  H12R21075   1.954   2.954   7.687  0.3391  0.8219 -1.5511
  184SOPE  H12S21076   1.800   2.874   7.746 -3.3712  2.5195  0.1182
  184SOPE  C21321077   1.834   3.055   7.835 -0.8848 -0.0650  0.2848
  184SOPE  H13R21078   1.870   3.158   7.814 -1.0424 -0.4822 -2.3987
  184SOPE  H13S21079   1.905   3.023   7.914 -1.3411 -0.7400  0.4328
  184SOPE  C21421080   1.686   3.056   7.898  0.1385  0.6234 -0.7031
  184SOPE  H14R21081   1.657   2.955   7.932  0.5720  0.7347  0.0108
  184SOPE  H14S21082   1.608   3.090   7.827 -0.7548  0.8017  0.3319
  184SOPE  C21521083   1.675   3.146   8.027  1.0035  0.4713  0.8228
  184SOPE  H15R21084   1.568   3.162   8.051  0.3955 -0.9815 -0.7139
  184SOPE  H15S21085   1.716   3.247   8.006  1.3439  0.0188 -0.9086
  184SOPE  C21621086   1.763   3.104   8.147 -0.3298  0.1042 -0.2927
  184SOPE  H16R21087   1.866   3.076   8.115 -0.3894  0.0738 -0.4590
  184SOPE  H16S21088   1.720   3.010   8.186  0.5684 -0.3778 -0.4435
  184SOPE  C21721089   1.776   3.200   8.277  0.1762  0.2752  0.3497
  184SOPE  H17R21090   1.853   3.147   8.337 -0.2055 -0.9644 -0.2378
  184SOPE  H17S21091   1.681   3.206   8.334  0.5156  1.1636  0.8474
  184SOPE  C21821092   1.848   3.335   8.251  0.3792 -0.5661  0.3976
  184SOPE  H18R21093   1.938   3.330   8.186  0.5369  0.6229  0.4909
  184SOPE  H18S21094   1.887   3.382   8.344  0.3403 -0.6121  0.4380
  184SOPE  H18T21095   1.786   3.405   8.192 -0.8190  0.2660  2.5253
  184SOPE   C3321096   1.225   3.032   6.939 -0.5353  0.3927 -0.0708
  184SOPE   H3X21097   1.240   2.924   6.917 -2.3503 -0.6381  2.9659
  184SOPE   H3Y21098   1.138   3.048   7.006 -1.2336 -1.3000 -0.5149
  184SOPE   C3421099   1.355   3.080   7.012  0.2941  0.4231  0.5215
  184SOPE   H4X21100   1.357   3.188   7.039 -1.0037  0.7151 -0.4251
  184SOPE   H4Y21101   1.438   3.071   6.938 -1.2494  0.1534 -1.2633
  184SOPE   C3521102   1.388   2.992   7.135  0.2944  0.6198  0.0122
  184SOPE   H5X21103   1.486   3.032   7.169  0.7926 -0.6760  0.1711
  184SOPE   H5Y21104   1.406   2.887   7.102 -2.2159  0.4492 -1.0101
  184SOPE   C3621105   1.279   3.004   7.248  0.0313 -0.4323 -0.4547
  184SOPE   H6X21106   1.197   2.929   7.243  0.6245 -1.0749 -0.6148
  184SOPE   H6Y21107   1.226   3.102   7.242  0.1323 -0.3330  0.2322
  184SOPE   C3721108   1.349   2.989   7.384 -0.5570 -0.1216 -0.2328
  184SOPE   H7X21109   1.449   3.036   7.372 -0.0324 -1.8445 -3.8576
  184SOPE   H7Y21110   1.378   2.882   7.385  0.3668  0.0869 -1.3536
  184SOPE   C3821111   1.271   3.024   7.510  0.4042  0.1716 -0.1180
  184SOPE   H8X21112   1.185   2.955   7.527 -0.0658  1.0809  1.3848
  184SOPE   H8Y21113   1.217   3.118   7.487 -0.4054 -0.4900 -1.0002
  184SOPE   C3921114   1.354   3.039   7.639 -0.0119 -0.6868  0.0033
  184SOPE   H9X21115   1.437   3.112   7.628 -1.5770  1.4691  1.5134
  184SOPE   H9Y21116   1.399   2.941   7.664  0.0895 -0.4840  0.6264
  184SOPE  C31021117   1.274   3.088   7.759 -0.2720  0.6037 -0.3638
  184SOPE  H10X21118   1.205   3.170   7.729  0.2760  1.5845  0.9493
  184SOPE  H10Y21119   1.353   3.119   7.831  0.5650 -1.2774 -0.4167
  184SOPE  C31121120   1.184   2.980   7.828  0.2181  0.1474  1.0874
  184SOPE  H11X21121   1.243   2.893   7.865 -0.1355 -1.4474 -1.7521
  184SOPE  H11Y21122   1.110   2.939   7.756 -0.2136  0.4248  1.3736
  184SOPE  C31221123   1.099   3.036   7.947 -0.1355 -0.2329  0.9290
  184SOPE  H12X21124   1.168   3.072   8.027  1.1305 -1.5167  0.4584
  184SOPE  H12Y21125   1.032   2.955   7.984 -2.8449  1.8493  0.8564
  184SOPE  C31321126   1.017   3.153   7.902  0.4404  0.0221  0.1793
  184SOPE  H13X21127   0.962   3.118   7.812  1.0415  1.2255 -0.6797
  184SOPE  H13Y21128   1.081   3.238   7.871 -0.2944  0.6297  0.3177
  184SOPE  C31421129   0.909   3.199   8.000  0.3656 -0.3719 -0.7315
  184SOPE  H14X21130   0.861   3.109   8.044 -1.4569  1.7746  2.0205
  184SOPE  H14Y21131   0.851   3.269   7.936  0.9598  1.1767  0.3754
  184SOPE  C31521132   0.965   3.293   8.118  0.0606  0.2666  0.0868
  184SOPE  H15X21133   1.025   3.236   8.193 -0.0240  1.5142  1.1469
  184SOPE  H15Y21134   0.873   3.330   8.168  0.9977  3.1039 -0.1127
  184SOPE  C31621135   1.050   3.413   8.081  0.3105 -0.2874  0.7762
  184SOPE  H16X21136   1.003   3.461   7.993 -0.0866 -1.5526  0.2876
  184SOPE  H16Y21137   1.155   3.394   8.051  0.6141  3.4962 -1.2401
  184SOPE  C31721138   1.058   3.517   8.190 -0.4683  0.1217  0.0962
  184SOPE  H17X21139   0.951   3.544   8.205 -1.1227 -0.8480 -2.3479
  184SOPE  H17Y21140   1.119   3.605   8.161  0.9263 -1.2233 -1.1825
  184SOPE  C31821141   1.112   3.463   8.323  0.1638  0.7606 -0.4958
  184SOPE  H18X21142   1.221   3.475   8.342  0.0088  0.6726  0.5093
  184SOPE  H18Y21143   1.089   3.356   8.340  0.7581  0.3518 -2.0462
  184SOPE  H18Z21144   1.069   3.526   8.404 -0.1476  2.9575 -2.2651
  185SAPI   C1221145   1.368   6.128  11.009  0.1407 -0.6647  0.3646
  185SAPI    H221146   1.343   6.024  11.039  1.1063 -1.5825 -1.7744
  185SAPI    O221147   1.263   6.216  11.046  0.5280 -0.4063 -0.4623
  185SAPI   HO221148   1.285   6.308  11.028  0.8113 -0.0536  1.4127
  185SAPI   C1321149   1.499   6.172  11.073  0.1108  0.0608 -0.8681
  185SAPI    H321150   1.577   6.098  11.046 -0.0086 -0.0091 -1.0209
  185SAPI    O321151   1.493   6.169  11.217 -0.7532  0.5152 -0.6523
  185SAPI   HO321152   1.414   6.217  11.243 -1.4925 -1.0584  0.1731
  185SAPI   C1421153   1.544   6.307  11.013  0.1695 -0.1793 -0.5856
  185SAPI    H421154   1.508   6.388  11.079  0.9151 -1.5808  1.6700
  185SAPI    O421155   1.681   6.332  11.025  0.2510 -0.0256  0.2433
  185SAPI   HO421156   1.725   6.265  10.973  0.8728  1.1770 -0.8393
  185SAPI   C1521157   1.509   6.337  10.870  0.9779 -0.3539  0.1352
  185SAPI    H521158   1.598   6.319  10.806 -0.6196 -2.0316 -1.7729
  185SAPI    O521159   1.489   6.481  10.854 -0.0598  0.5937  0.0147
  185SAPI   HO521160   1.410   6.506  10.903  0.3887  0.4154  0.8597
  185SAPI   C1621161   1.407   6.256  10.793  0.3454 -0.1056  0.4514
  185SAPI    H621162   1.309   6.307  10.805  0.0156 -0.6644  0.1773
  185SAPI    O621163   1.429   6.249  10.656 -0.1687 -0.1363  0.0155
  185SAPI   HO621164   1.344   6.263  10.613 -0.5843  0.1344  0.8992
  185SAPI   C1121165   1.379   6.118  10.851 -0.0634  0.1915  0.0634
  185SAPI    H121166   1.463   6.052  10.822  0.0013 -0.8921  2.5113
  185SAPI     P21167   1.236   5.898  10.786  0.1450  0.5245 -0.1008
  185SAPI   O1321168   1.093   5.875  10.820  0.1807  0.2888  0.1208
  185SAPI   O1421169   1.333   5.843  10.879  0.1563  0.0500  0.4000
  185SAPI   O1221170   1.264   6.057  10.782  0.3975 -0.1147  0.2218
  185SAPI   O1121171   1.263   5.828  10.640  0.4153 -0.5379  0.3751
  185SAPI    C121172   1.199   5.892  10.528 -0.1959 -0.0145  1.2765
  185SAPI    HA21173   1.090   5.904  10.546 -0.4976  0.8833 -0.7904
  185SAPI    HB21174   1.239   5.993  10.504  0.5310 -0.9888 -2.2463
  185SAPI    C221175   1.228   5.811  10.392  0.9281 -0.1891 -1.3290
  185SAPI    HS21176   1.156   5.727  10.387 -1.1469  1.4755 -1.3058
  185SAPI   O2121177   1.367   5.779  10.386 -0.2595 -0.3149  0.0423
  185SAPI   C2121178   1.396   5.651  10.413 -0.2552 -0.1104 -0.5480
  185SAPI   O2221179   1.317   5.566  10.460  0.1034 -0.7312 -0.2978
  185SAPI   C2221180   1.540   5.623  10.379 -0.1971  0.1709  0.1683
  185SAPI   H2R21181   1.574   5.701  10.308 -1.1767  2.2630  1.8900
  185SAPI   H2S21182   1.594   5.631  10.476 -0.2878  0.2899  0.2097
  185SAPI    C321183   1.184   5.890  10.262  1.1006  0.2756  0.2333
  185SAPI    HX21184   1.214   5.831  10.173  4.0248 -1.2403  2.0477
  185SAPI    HY21185   1.230   5.991  10.261 -1.2118  1.4850  3.0052
  185SAPI   O3121186   1.040   5.908  10.272  0.0646 -0.4944  0.6812
  185SAPI   C3121187   0.958   5.821  10.212  0.0842 -0.1843  0.4311
  185SAPI   O3221188   0.985   5.711  10.168 -0.2506  0.1473 -0.5959
  185SAPI   C3221189   0.818   5.883  10.230 -0.7760  0.3254  0.1241
  185SAPI   H2X21190   0.834   5.974  10.292  2.3371  1.6822 -2.3456
  185SAPI   H2Y21191   0.758   5.815  10.293  1.7355 -0.8400  1.3986
  185SAPI   C2321192   1.569   5.482  10.317  0.1709 -0.0557 -0.7353
  185SAPI   H3R21193   1.531   5.397  10.378  1.7279 -0.3961 -0.1790
  185SAPI   H3S21194   1.678   5.470  10.337  0.3463  1.4743 -0.6453
  185SAPI   C2421195   1.552   5.472  10.166  0.3422 -0.3575 -1.4583
  185SAPI   H4R21196   1.601   5.378  10.135  1.8957  1.3511 -4.6644
  185SAPI   H4S21197   1.613   5.551  10.118 -0.1080  1.3243  0.5787
  185SAPI   C2521198   1.409   5.480  10.133 -0.0042  0.2180  0.4415
  185SAPI   H5R21199   1.344   5.429  10.205  0.8351 -1.7454 -0.1274
  185SAPI   C2621200   1.354   5.574  10.052  0.6996 -0.2788  0.9971
  185SAPI   H6R21201   1.246   5.572  10.033  1.3034  0.6178 -4.0919
  185SAPI   C2721202   1.439   5.663   9.967 -0.0849  0.2526  0.2324
  185SAPI   H7R21203   1.527   5.613   9.921 -1.1842 -0.7443 -0.8875
  185SAPI   H7S21204   1.491   5.718  10.047 -0.9610 -1.2146  1.8849
  185SAPI   C2821205   1.384   5.746   9.856 -0.3696 -0.3239 -0.2018
  185SAPI   H8R21206   1.329   5.837   9.886  0.3668  0.4577 -1.1156
  185SAPI   C2921207   1.401   5.722   9.723  0.4657 -0.4814 -0.3666
  185SAPI   H9R21208   1.351   5.797   9.660  2.5711  1.3736  0.0008
  185SAPI  C21021209   1.452   5.602   9.654 -0.1302  0.0163 -0.3431
  185SAPI  H10R21210   1.540   5.560   9.707 -0.4409 -0.0366  0.1351
  185SAPI  H10S21211   1.484   5.645   9.556  0.0335  1.8601  0.4802
  185SAPI  C21121212   1.349   5.496   9.647 -0.1859  0.1941 -0.4234
  185SAPI  H11R21213   1.293   5.477   9.740  0.2561 -1.1188 -0.4008
  185SAPI  C21221214   1.300   5.444   9.536  1.2025 -0.5518  0.3126
  185SAPI  H12R21215   1.218   5.371   9.550 -0.3675  0.9277 -0.7401
  185SAPI  C21321216   1.356   5.454   9.397 -0.0340  0.6872  0.0348
  185SAPI  H13R21217   1.342   5.556   9.356  0.3941  1.1041  0.8969
  185SAPI  H13S21218   1.298   5.391   9.326  2.4279  0.2987 -1.7808
  185SAPI  C21421219   1.505   5.425   9.389  0.6284 -0.5531  0.1827
  185SAPI  H14R21220   1.537   5.338   9.447  0.1775  0.4498  2.0195
  185SAPI  C21521221   1.593   5.497   9.320  0.1407 -0.5595 -0.4656
  185SAPI  H15R21222   1.700   5.472   9.329  0.3359  0.4974  0.5976
  185SAPI  C21621223   1.567   5.601   9.215 -1.2432 -0.5595  0.1672
  185SAPI  H16R21224   1.538   5.692   9.271  0.7665 -0.5768  1.3360
  185SAPI  H16S21225   1.483   5.566   9.150 -0.8245  0.1086 -0.7529
  185SAPI  C21721226   1.680   5.624   9.118 -0.1719  0.1271 -0.1878
  185SAPI  H17R21227   1.768   5.669   9.168 -0.5961 -1.8033  2.4590
  185SAPI  H17S21228   1.649   5.691   9.035  1.0553  0.8848 -0.0506
  185SAPI  C21821229   1.727   5.497   9.045  0.5223  0.3905  0.2464
  185SAPI  H18R21230   1.641   5.468   8.980 -0.0304 -2.0640  1.9004
  185SAPI  H18S21231   1.755   5.410   9.108  1.8489  0.5395 -0.1250
  185SAPI  C21921232   1.854   5.517   8.952 -0.0039  0.1470  0.2018
  185SAPI  H19R21233   1.835   5.607   8.890  1.3277  0.2855 -0.0329
  185SAPI  H19S21234   1.840   5.426   8.891 -0.5162 -0.7568  1.6133
  185SAPI  C22021235   1.974   5.522   9.046 -0.0555 -0.5815 -0.4402
  185SAPI  H20R21236   2.059   5.574   8.997 -0.4291  0.8004  0.3168
  185SAPI  H20S21237   2.001   5.421   9.084  1.6947 -1.0990 -2.8262
  185SAPI  H20T21238   1.945   5.594   9.126 -1.9294 -1.9249  0.1539
  185SAPI   C3321239   0.748   5.923  10.099 -0.4140  0.1024  0.3981
  185SAPI   H3X21240   0.817   5.992  10.045  0.9409 -2.5708 -1.5150
  185SAPI   H3Y21241   0.653   5.975  10.124 -1.3527 -1.0057 -0.7655
  185SAPI   C3421242   0.709   5.811   9.997 -0.8348 -0.1633  0.5713
  185SAPI   H4X21243   0.802   5.758   9.968  0.4190  1.3146  1.7290
  185SAPI   H4Y21244   0.670   5.868   9.910 -1.4455 -0.0238  0.9315
  185SAPI   C3521245   0.589   5.730  10.034  0.0427 -0.2722 -0.4157
  185SAPI   H5X21246   0.490   5.772  10.007 -0.2345 -1.0843 -0.6878
  185SAPI   H5Y21247   0.589   5.736  10.145 -0.6488  0.7883 -0.4585
  185SAPI   C3621248   0.592   5.582   9.980 -0.1502  0.0991 -0.2024
  185SAPI   H6X21249   0.521   5.522  10.041  0.6078 -0.5338  0.0723
  185SAPI   H6Y21250   0.693   5.542  10.004  0.1480  0.7968 -0.2363
  185SAPI   C3721251   0.571   5.570   9.834 -0.1006  0.1167  0.1605
  185SAPI   H7X21252   0.646   5.638   9.788 -0.2617 -0.0407 -0.3409
  185SAPI   H7Y21253   0.474   5.613   9.804 -0.5011 -0.3133  0.8140
  185SAPI   C3821254   0.586   5.436   9.771 -0.3475  0.3940 -0.0158
  185SAPI   H8X21255   0.513   5.368   9.820 -0.6547  0.0186 -0.9668
  185SAPI   H8Y21256   0.686   5.398   9.801 -0.8237 -0.2029  0.8519
  185SAPI   C3921257   0.572   5.415   9.621  0.3010 -0.8111  0.4353
  185SAPI   H9X21258   0.470   5.432   9.581 -0.1370 -0.9807  1.4453
  185SAPI   H9Y21259   0.604   5.317   9.582 -0.6898 -1.0160  0.1188
  185SAPI  C31021260   0.657   5.514   9.539  0.0871 -0.1639 -0.4688
  185SAPI  H10X21261   0.761   5.515   9.578  0.0552 -1.4568 -0.2971
  185SAPI  H10Y21262   0.602   5.610   9.548 -1.0294 -0.6548 -1.6402
  185SAPI  C31121263   0.663   5.482   9.397 -0.5727  0.7988  0.5705
  185SAPI  H11X21264   0.715   5.385   9.386 -1.3424  0.3312  0.9618
  185SAPI  H11Y21265   0.731   5.556   9.349  1.3800 -1.6189 -0.6166
  185SAPI  C31221266   0.526   5.478   9.333 -0.2020  0.1280 -0.4815
  185SAPI  H12X21267   0.468   5.563   9.374 -1.4387  0.4413 -2.7271
  185SAPI  H12Y21268   0.476   5.383   9.360  0.6151 -0.1761  0.0208
  185SAPI  C31321269   0.515   5.502   9.179  0.4762  0.6927  0.0615
  185SAPI  H13X21270   0.556   5.602   9.155  0.2445  0.3501 -1.9831
  185SAPI  H13Y21271   0.409   5.484   9.148 -0.5078 -3.3605  4.5850
  185SAPI  C31421272   0.600   5.408   9.100 -0.4155  0.1841 -0.8167
  185SAPI  H14X21273   0.564   5.308   9.134  1.0987 -0.1050  0.0095
  185SAPI  H14Y21274   0.705   5.398   9.133 -0.9699 -1.6137  0.5850
  185SAPI  C31521275   0.590   5.415   8.946  0.2590  0.1651  0.3281
  185SAPI  H15X21276   0.638   5.321   8.912 -1.9244 -1.5174  1.6983
  185SAPI  H15Y21277   0.655   5.497   8.907 -0.1193  0.3962  0.1781
  185SAPI  C31621278   0.450   5.414   8.882  1.1249 -0.4591  0.0640
  185SAPI  H16X21279   0.419   5.521   8.881 -1.2068 -1.0294  2.2325
  185SAPI  H16Y21280   0.390   5.365   8.961  1.4866 -0.4481  0.3490
  185SAPI  C31721281   0.440   5.352   8.747 -0.2280  0.2650  0.1875
  185SAPI  H17X21282   0.333   5.363   8.719 -0.7215 -0.2848  1.6999
  185SAPI  H17Y21283   0.477   5.247   8.757  0.5144  0.5218  0.1601
  185SAPI  C31821284   0.525   5.424   8.642  0.3686 -0.0823  0.5663
  185SAPI  H18X21285   0.633   5.429   8.668  0.0543  1.6301  1.7038
  185SAPI  H18Y21286   0.494   5.530   8.631  0.7610 -0.0391 -0.1686
  185SAPI  H18Z21287   0.521   5.370   8.545 -1.1309  0.0117  0.5569
  186SAPI   C1221288   3.679   4.398  10.675 -0.0979 -0.0708  0.4204
  186SAPI    H221289   3.603   4.387  10.594  0.4901 -0.6030 -0.0669
  186SAPI    O221290   3.752   4.280  10.686 -0.3810  0.6488 -0.7575
  186SAPI   HO221291   3.843   4.307  10.698 -0.4361  0.4021  0.2562
  186SAPI   C1321292   3.762   4.521  10.651  0.4295 -0.1050 -0.1650
  186SAPI    H321293   3.691   4.607  10.646 -0.4528 -0.7418  0.7597
  186SAPI    O321294   3.832   4.519  10.527  0.4170  0.2805 -0.0906
  186SAPI   HO321295   3.910   4.465  10.540  1.2560  1.2811 -0.8313
  186SAPI   C1421296   3.855   4.558  10.767 -0.2694  0.8412 -0.8029
  186SAPI    H421297   3.950   4.504  10.748 -1.0151  0.3606 -3.4819
  186SAPI    O421298   3.896   4.699  10.758  0.0092 -0.1922 -0.2756
  186SAPI   HO421299   3.964   4.725  10.820  1.3578  2.2512 -2.5840
  186SAPI   C1521300   3.805   4.517  10.905  0.1213 -0.2823 -0.8640
  186SAPI    H521301   3.766   4.610  10.953 -0.5739 -0.2144 -1.5497
  186SAPI    O521302   3.916   4.484  10.999 -0.3585  0.5306  0.6867
  186SAPI   HO521303   3.934   4.390  11.000  2.6283  0.9890 -0.1844
  186SAPI   C1621304   3.683   4.424  10.918  0.0558  0.3249  0.1849
  186SAPI    H621305   3.736   4.327  10.923  0.6311  0.6578  0.6755
  186SAPI    O621306   3.610   4.445  11.033 -0.0592 -0.4226 -0.7093
  186SAPI   HO621307   3.517   4.427  11.020 -0.4854 -1.2442  2.5115
  186SAPI   C1121308   3.586   4.421  10.796 -0.0964 -0.6494 -1.0097
  186SAPI    H121309   3.539   4.520  10.784 -0.0878 -0.5723 -0.4200
  186SAPI     P21310   3.336   4.328  10.856  0.1241  0.6005 -0.1227
  186SAPI   O1321311   3.335   4.431  10.953 -0.1292 -0.3953 -0.2565
  186SAPI   O1421312   3.300   4.197  10.909  0.6668 -0.4359 -0.2670
  186SAPI   O1221313   3.481   4.316  10.793 -0.2383 -0.0017 -0.4021
  186SAPI   O1121314   3.241   4.364  10.729  0.2781  0.5977 -0.3225
  186SAPI    C121315   3.261   4.480  10.650 -1.0221  0.3594  0.0313
  186SAPI    HA21316   3.268   4.569  10.717  0.4182 -0.6312  1.2590
  186SAPI    HB21317   3.363   4.470  10.606 -0.4032  1.8870  1.0118
  186SAPI    C221318   3.142   4.508  10.550  0.2313  0.0670  0.4652
  186SAPI    HS21319   3.052   4.528  10.611 -0.5016  1.5398 -1.0182
  186SAPI   O2121320   3.121   4.402  10.456  0.3966 -0.3262 -0.2924
  186SAPI   C2121321   3.016   4.406  10.374 -0.4406 -0.4220 -0.6179
  186SAPI   O2221322   2.923   4.484  10.390 -0.4832  0.5034  0.7669
  186SAPI   C2221323   3.016   4.292  10.276 -0.0893 -0.2202 -0.0057
  186SAPI   H2R21324   3.118   4.246  10.277 -0.0975 -0.2205  0.9802
  186SAPI   H2S21325   2.942   4.224  10.322  1.1870 -0.5014  1.7264
  186SAPI    C321326   3.162   4.648  10.477  0.3731 -0.3268 -0.4975
  186SAPI    HX21327   3.191   4.720  10.557 -0.4241  0.3436 -0.7950
  186SAPI    HY21328   3.067   4.680  10.430 -0.0724  0.9590  1.1618
  186SAPI   O3121329   3.271   4.637  10.381 -0.2097  0.0643 -0.1274
  186SAPI   C3121330   3.397   4.670  10.431 -0.4027  0.2424  0.9330
  186SAPI   O3221331   3.418   4.720  10.538 -0.4170 -0.7658 -0.0551
  186SAPI   C3221332   3.508   4.633  10.332  0.0035  0.5656 -0.0619
  186SAPI   H2X21333   3.556   4.535  10.351  1.0418  1.0670 -0.0311
  186SAPI   H2Y21334   3.585   4.710  10.354 -0.0938  1.4561 -2.5134
  186SAPI   C2321335   2.995   4.349  10.139  0.2351 -0.0759  0.1346
  186SAPI   H3R21336   2.902   4.410  10.145  0.7660  0.6524  4.5785
  186SAPI   H3S21337   2.983   4.265  10.068  3.2758  0.1892 -0.8398
  186SAPI   C2421338   3.111   4.440  10.083 -0.0450 -0.3723 -0.6439
  186SAPI   H4R21339   3.171   4.367  10.025 -1.7090 -1.7579 -0.7112
  186SAPI   H4S21340   3.171   4.473  10.170  0.8161 -0.1713 -1.3022
  186SAPI   C2521341   3.072   4.561   9.999  0.5530  0.0291  0.4173
  186SAPI   H5R21342   3.031   4.651  10.046 -1.3298  0.2980 -1.6090
  186SAPI   C2621343   3.060   4.570   9.862 -0.5062  0.6511  0.3510
  186SAPI   H6R21344   3.009   4.659   9.824  0.1195  0.6626 -0.5139
  186SAPI   C2721345   3.096   4.469   9.757 -0.1349  0.8035  0.8643
  186SAPI   H7R21346   3.010   4.415   9.712  0.6037  1.5566 -1.5868
  186SAPI   H7S21347   3.160   4.385   9.791 -2.9138 -2.3587 -1.0724
  186SAPI   C2821348   3.166   4.530   9.635  0.3322 -0.8389 -0.4110
  186SAPI   H8R21349   3.275   4.539   9.643  0.2129  0.6135 -0.1566
  186SAPI   C2921350   3.114   4.589   9.526  0.7765  0.0741  0.3382
  186SAPI   H9R21351   3.181   4.642   9.457  1.9934 -0.2278  1.2516
  186SAPI  C21021352   2.967   4.598   9.490 -0.6810  0.2603 -0.2693
  186SAPI  H10R21353   2.952   4.708   9.479 -0.1306  0.2595 -1.0879
  186SAPI  H10S21354   2.889   4.564   9.562  0.6350  1.1445  1.6727
  186SAPI  C21121355   2.953   4.519   9.366 -0.8168 -0.2795  0.8063
  186SAPI  H11R21356   2.966   4.410   9.377 -1.7951 -0.5889 -0.8310
  186SAPI  C21221357   2.894   4.561   9.248 -0.7091  0.8777 -0.3966
  186SAPI  H12R21358   2.907   4.492   9.162 -1.1461  0.3007 -0.0084
  186SAPI  C21321359   2.841   4.693   9.208  0.7258 -0.7456  0.5384
  186SAPI  H13R21360   2.848   4.696   9.097  1.3762 -2.2676  0.5208
  186SAPI  H13S21361   2.912   4.773   9.238 -0.3094  1.5774 -2.6094
  186SAPI  C21421362   2.707   4.716   9.267  1.1209 -0.1239 -0.0330
  186SAPI  H14R21363   2.705   4.710   9.377 -0.3721  0.0497 -0.0291
  186SAPI  C21521364   2.597   4.762   9.202  0.2158 -0.6122  0.2729
  186SAPI  H15R21365   2.507   4.778   9.263 -0.5323 -0.5041 -0.8251
  186SAPI  C21621366   2.587   4.805   9.057  0.3594  1.3176 -0.8397
  186SAPI  H16R21367   2.503   4.746   9.015 -1.4952  1.0497  2.8458
  186SAPI  H16S21368   2.682   4.791   9.000  0.7754 -3.7247  0.6670
  186SAPI  C21721369   2.560   4.955   9.047 -0.3788 -0.2352  0.3180
  186SAPI  H17R21370   2.650   5.007   9.085 -0.1658  3.0777 -3.9296
  186SAPI  H17S21371   2.466   4.970   9.104  0.1165 -1.2907  1.4647
  186SAPI  C21821372   2.534   5.007   8.907  0.1968 -0.6056  0.0987
  186SAPI  H18R21373   2.498   5.112   8.911  2.7492  0.3498 -0.2211
  186SAPI  H18S21374   2.457   4.967   8.837  0.2273  0.0460 -0.3209
  186SAPI  C21921375   2.662   5.000   8.824  0.6581 -0.3839 -0.7046
  186SAPI  H19R21376   2.659   4.905   8.767 -1.4909 -1.4446  1.0318
  186SAPI  H19S21377   2.751   4.994   8.890  0.8558  0.6784 -0.8459
  186SAPI  C22021378   2.672   5.119   8.730  0.1682  0.4193  0.2576
  186SAPI  H20R21379   2.611   5.101   8.639 -0.4013 -2.5175  1.1155
  186SAPI  H20S21380   2.778   5.134   8.701  0.5644  0.8124  1.8364
  186SAPI  H20T21381   2.652   5.212   8.787 -0.8906 -1.1594  2.6418
  186SAPI   C3321382   3.470   4.635  10.176 -0.2476  0.0256 -0.0445
  186SAPI   H3X21383   3.408   4.726  10.161  0.4839  0.6565  0.6508
  186SAPI   H3Y21384   3.414   4.541  10.157  0.2406 -0.4378  0.7481
  186SAPI   C3421385   3.596   4.636  10.087  0.2728  0.5405  0.6364
  186SAPI   H4X21386   3.677   4.570  10.124  0.2101 -0.3534 -0.7614
  186SAPI   H4Y21387   3.647   4.735  10.086 -1.5359  1.5200 -0.6625
  186SAPI   C3521388   3.554   4.600   9.942 -0.6839  0.0273 -0.0109
  186SAPI   H5X21389   3.487   4.511   9.942  2.2183 -2.4425  3.6277
  186SAPI   H5Y21390   3.646   4.569   9.889  0.5408  3.4715 -0.1053
  186SAPI   C3621391   3.502   4.728   9.879 -0.8198  0.6463 -0.0867
  186SAPI   H6X21392   3.573   4.814   9.885  1.2681 -1.0881  1.8112
  186SAPI   H6Y21393   3.405   4.760   9.923 -1.1912 -2.7094  1.8276
  186SAPI   C3721394   3.496   4.720   9.722  0.5291 -0.4307 -0.5092
  186SAPI   H7X21395   3.412   4.782   9.684 -0.1829  1.6028  3.7797
  186SAPI   H7Y21396   3.473   4.613   9.705 -1.5674 -0.1705  0.3664
  186SAPI   C3821397   3.633   4.755   9.661 -0.3399 -0.1450  0.9799
  186SAPI   H8X21398   3.712   4.686   9.698 -1.5292 -1.7237  0.6796
  186SAPI   H8Y21399   3.652   4.862   9.686 -0.4815  0.1558 -0.1507
  186SAPI   C3921400   3.630   4.761   9.510 -0.4027  0.5082  0.1849
  186SAPI   H9X21401   3.719   4.805   9.460 -1.2726  1.7707 -0.2910
  186SAPI   H9Y21402   3.550   4.824   9.466 -0.5253 -0.0432 -0.3995
  186SAPI  C31021403   3.615   4.620   9.452  0.7896 -0.2001 -0.2980
  186SAPI  H10X21404   3.521   4.578   9.493 -0.9763  2.1807 -1.6373
  186SAPI  H10Y21405   3.702   4.555   9.476  0.0351 -0.8831  0.6629
  186SAPI  C31121406   3.605   4.631   9.305 -0.2704 -0.5110  0.1297
  186SAPI  H11X21407   3.710   4.633   9.267 -0.2167  0.7453  0.2993
  186SAPI  H11Y21408   3.562   4.730   9.276 -3.3524 -1.5463  0.8291
  186SAPI  C31221409   3.509   4.526   9.246 -0.4237  0.4930  0.3717
  186SAPI  H12X21410   3.527   4.422   9.280  2.9001  0.6932 -0.4241
  186SAPI  H12Y21411   3.534   4.528   9.138 -1.4672 -1.7002  0.0539
  186SAPI  C31321412   3.357   4.569   9.263 -0.4122  0.0759 -1.0670
  186SAPI  H13X21413   3.342   4.676   9.234  0.3218  0.7615  0.9422
  186SAPI  H13Y21414   3.354   4.562   9.373  3.7111  0.3393 -0.7749
  186SAPI  C31421415   3.253   4.486   9.186 -0.2274  0.4015 -0.4785
  186SAPI  H14X21416   3.152   4.532   9.198 -0.4742  0.5076 -2.6081
  186SAPI  H14Y21417   3.263   4.388   9.238 -1.5898  0.6319  0.2750
  186SAPI  C31521418   3.280   4.470   9.033 -0.1102 -0.6116 -0.1978
  186SAPI  H15X21419   3.366   4.401   9.019  1.5566  1.2006  0.7482
  186SAPI  H15Y21420   3.316   4.559   8.977 -0.3883 -1.0821 -1.1500
  186SAPI  C31621421   3.163   4.404   8.960 -0.2963  0.3571  0.6918
  186SAPI  H16X21422   3.079   4.477   8.948 -2.8766 -2.6153 -0.8336
  186SAPI  H16Y21423   3.130   4.314   9.016  0.9251 -1.5359 -1.4942
  186SAPI  C31721424   3.197   4.352   8.820  0.1389 -0.0053  0.0915
  186SAPI  H17X21425   3.246   4.433   8.761  0.6015 -1.6804 -1.9211
  186SAPI  H17Y21426   3.103   4.341   8.764  0.7451  1.3343 -1.2599
  186SAPI  C31821427   3.275   4.222   8.808 -0.5541  0.2061  0.0479
  186SAPI  H18X21428   3.205   4.141   8.838  0.2538  0.5632  3.2669
  186SAPI  H18Y21429   3.365   4.222   8.873 -1.6722 -2.2303  1.7376
  186SAPI  H18Z21430   3.302   4.196   8.703  2.6305 -0.9012  1.0214
  187SAPI   C1221431   1.501   0.392   6.112 -0.3408  0.1294 -0.2098
  187SAPI    H221432   1.517   0.446   6.208 -2.0823  0.7880 -0.2477
  187SAPI    O221433   1.585   0.458   6.016  0.0964  0.2181  0.8592
  187SAPI   HO221434   1.523   0.515   5.970 -0.8945 -0.6423  1.0782
  187SAPI   C1321435   1.557   0.245   6.139  0.2528 -0.5407 -0.4120
  187SAPI    H321436   1.476   0.196   6.197 -0.6802  0.3373 -0.9425
  187SAPI    O321437   1.681   0.255   6.216  0.4362  0.3259  0.3852
  187SAPI   HO321438   1.717   0.336   6.177 -2.5062  1.3014 -0.5677
  187SAPI   C1421439   1.572   0.174   6.007 -0.0161  0.0931 -0.0435
  187SAPI    H421440   1.645   0.237   5.953 -2.8688  4.5776  0.7532
  187SAPI    O421441   1.617   0.038   6.037  0.0150 -0.4235 -0.1078
  187SAPI   HO421442   1.654   0.001   5.957 -0.0394  1.7876 -1.2220
  187SAPI   C1521443   1.440   0.172   5.933  0.2802 -0.3880  0.3956
  187SAPI    H521444   1.382   0.092   5.984  0.5387 -1.2220 -0.5869
  187SAPI    O521445   1.464   0.131   5.801  0.9217 -0.0314 -0.4777
  187SAPI   HO521446   1.426   0.043   5.788  1.9209 -0.4570 -0.6345
  187SAPI   C1621447   1.342   0.295   5.943  0.6603  0.3125 -0.2799
  187SAPI    H621448   1.383   0.365   5.868  1.6674 -0.7744 -0.7750
  187SAPI    O621449   1.206   0.258   5.908  0.4168 -0.1970  0.0620
  187SAPI   HO621450   1.143   0.325   5.935  0.0899 -0.1014 -0.9209
  187SAPI   C1121451   1.359   0.376   6.075  0.1648 -0.9935  0.5782
  187SAPI    H121452   1.306   0.326   6.159 -1.9040 -0.3217 -0.2498
  187SAPI     P21453   1.143   0.549   6.076 -0.4772  0.2205 -0.0590
  187SAPI   O1321454   1.057   0.458   5.997  0.1991  0.0003  0.0259
  187SAPI   O1421455   1.129   0.698   6.057 -0.0578 -0.1666  0.2672
  187SAPI   O1221456   1.301   0.510   6.058 -0.2564 -0.0881  0.3880
  187SAPI   O1121457   1.131   0.501   6.224  0.3351 -0.2588 -0.1781
  187SAPI    C121458   0.998   0.485   6.276  0.1678 -0.0465  0.1037
  187SAPI    HA21459   0.935   0.412   6.221  0.9717  0.5309 -1.6385
  187SAPI    HB21460   0.993   0.452   6.382 -1.0255 -1.9750 -0.5078
  187SAPI    C221461   0.920   0.616   6.272  0.3941  0.1181  0.4901
  187SAPI    HS21462   0.883   0.641   6.171  1.0783  3.6091  0.9492
  187SAPI   O2121463   0.999   0.718   6.339  0.0762 -0.1222 -0.5036
  187SAPI   C2121464   0.976   0.845   6.311  0.4232 -0.5600  0.6327
  187SAPI   O2221465   0.899   0.890   6.227  0.0829  0.0643 -0.0698
  187SAPI   C2221466   1.075   0.926   6.394 -0.2035 -0.0226  0.9617
  187SAPI   H2R21467   1.015   0.936   6.487 -0.4649  0.4442  0.7467
  187SAPI   H2S21468   1.176   0.886   6.418  1.5889  3.2366 -0.4475
  187SAPI    C321469   0.786   0.594   6.355 -0.2509 -0.4584  0.2357
  187SAPI    HX21470   0.745   0.522   6.281  0.6198 -1.2609  0.5090
  187SAPI    HY21471   0.719   0.682   6.358  1.4680  0.8629  2.1165
  187SAPI   O3121472   0.810   0.519   6.482 -0.5076  0.1199  0.6460
  187SAPI   C3121473   0.837   0.598   6.587 -0.2768 -0.1060 -0.0774
  187SAPI   O3221474   0.832   0.721   6.578  1.1501  0.9557 -0.0752
  187SAPI   C3221475   0.876   0.525   6.716  0.5516  0.5931  0.1945
  187SAPI   H2X21476   0.801   0.448   6.741  0.3601  0.6000 -0.3436
  187SAPI   H2Y21477   0.890   0.594   6.801  1.1698 -1.7928  2.1340
  187SAPI   C2321478   1.102   1.069   6.332  0.2916 -0.1032 -0.2206
  187SAPI   H3R21479   1.017   1.126   6.288 -1.4541 -0.6626  2.2456
  187SAPI   H3S21480   1.185   1.054   6.259 -0.3734  0.3897 -1.0963
  187SAPI   C2421481   1.162   1.166   6.440  0.5155  0.5214 -0.0034
  187SAPI   H4R21482   1.259   1.136   6.482 -0.2000  0.7643  1.9082
  187SAPI   H4S21483   1.087   1.158   6.522  0.8052  0.9875  0.3124
  187SAPI   C2521484   1.173   1.308   6.379 -0.1142 -0.1843  0.0687
  187SAPI   H5R21485   1.220   1.317   6.280 -0.4077 -0.3050 -0.0834
  187SAPI   C2621486   1.117   1.425   6.428 -0.1735  0.5557 -0.0252
  187SAPI   H6R21487   1.152   1.515   6.377  0.7844 -0.5866 -1.4775
  187SAPI   C2721488   1.032   1.435   6.551 -0.4094 -0.1491 -0.0162
  187SAPI   H7R21489   1.068   1.355   6.619 -0.1213 -0.9408 -1.0713
  187SAPI   H7S21490   0.927   1.405   6.531 -0.5934  0.3843  0.1491
  187SAPI   C2821491   1.041   1.575   6.613 -0.3899 -0.2202 -0.6260
  187SAPI   H8R21492   1.035   1.665   6.550  1.2083 -1.1831 -2.2581
  187SAPI   C2921493   1.062   1.587   6.744 -0.6012  0.5409 -0.3070
  187SAPI   H9R21494   1.082   1.690   6.778 -2.2327  0.8579 -0.2189
  187SAPI  C21021495   1.078   1.480   6.855  0.0932  0.0482 -1.0863
  187SAPI  H10R21496   0.999   1.403   6.841  0.7656 -0.8947  0.0802
  187SAPI  H10S21497   1.052   1.523   6.955  0.5907  1.3940 -1.5114
  187SAPI  C21121498   1.208   1.405   6.846 -0.2860  0.1280 -0.2190
  187SAPI  H11R21499   1.241   1.381   6.744  0.4905  2.2318 -0.5125
  187SAPI  C21221500   1.283   1.368   6.946  0.1942  0.0065  0.5630
  187SAPI  H12R21501   1.378   1.320   6.920  0.8883  1.0833  1.0150
  187SAPI  C21321502   1.250   1.373   7.092  0.6081  0.3974 -0.0724
  187SAPI  H13R21503   1.140   1.372   7.104  0.6026  1.0132 -0.0148
  187SAPI  H13S21504   1.278   1.476   7.124  0.7772 -0.0226  1.1659
  187SAPI  C21421505   1.319   1.280   7.180  0.2657  0.1309 -0.1909
  187SAPI  H14R21506   1.380   1.200   7.135 -0.6946 -0.9610  0.3871
  187SAPI  C21521507   1.299   1.276   7.313  0.3560  0.0572  0.1708
  187SAPI  H15R21508   1.355   1.193   7.358  0.5736  0.3877  0.5168
  187SAPI  C21621509   1.209   1.360   7.401  0.5021  0.3256  0.8313
  187SAPI  H16R21510   1.105   1.321   7.394  0.5661  0.1287  0.9548
  187SAPI  H16S21511   1.212   1.467   7.370 -0.8909  0.1060 -0.1584
  187SAPI  C21721512   1.259   1.352   7.545 -0.5163  0.4035  0.4877
  187SAPI  H17R21513   1.357   1.404   7.547 -0.2344 -0.1424  0.9607
  187SAPI  H17S21514   1.267   1.244   7.571  2.6058  0.7979  1.5658
  187SAPI  C21821515   1.159   1.421   7.635 -0.5939 -0.0561 -0.4741
  187SAPI  H18R21516   1.068   1.360   7.615 -0.5381 -0.0532 -0.7435
  187SAPI  H18S21517   1.143   1.522   7.594 -0.0941  0.8237  1.3799
  187SAPI  C21921518   1.207   1.443   7.780 -0.1820 -0.0088 -0.3815
  187SAPI  H19R21519   1.138   1.518   7.825 -0.1355 -1.1698  1.7411
  187SAPI  H19S21520   1.310   1.481   7.794 -1.2624  2.1079  2.8180
  187SAPI  C22021521   1.204   1.314   7.865  0.1162 -0.2921 -0.1163
  187SAPI  H20R21522   1.131   1.241   7.824 -1.1318 -0.4310  2.2101
  187SAPI  H20S21523   1.169   1.345   7.965 -1.7707  0.2082 -0.9017
  187SAPI  H20T21524   1.303   1.263   7.867 -0.3993 -1.3078  0.1090
  187SAPI   C3321525   1.009   0.444   6.706 -0.3832  0.5380 -0.0970
  187SAPI   H3X21526   1.095   0.504   6.667  1.7398 -2.2171  0.0162
  187SAPI   H3Y21527   0.996   0.366   6.628 -0.3438  0.9955 -0.5694
  187SAPI   C3421528   1.036   0.369   6.834 -0.5317 -0.1013 -0.3069
  187SAPI   H4X21529   1.121   0.302   6.811 -0.3315  0.7550 -2.2147
  187SAPI   H4Y21530   0.939   0.320   6.855 -0.3275  0.2681  1.7047
  187SAPI   C3521531   1.092   0.453   6.956  0.0675  0.1078  0.5789
  187SAPI   H5X21532   1.060   0.556   6.984 -1.4531  0.0490 -0.7639
  187SAPI   H5Y21533   1.197   0.473   6.926  0.3613  0.0631  1.5584
  187SAPI   C3621534   1.106   0.366   7.077 -0.3635  0.7746 -1.1739
  187SAPI   H6X21535   1.201   0.311   7.064  0.5160  1.9502  0.0468
  187SAPI   H6Y21536   1.016   0.301   7.082 -0.6051  1.1781 -0.1547
  187SAPI   C3721537   1.134   0.454   7.206 -0.0354  0.4372 -0.0534
  187SAPI   H7X21538   1.051   0.527   7.202 -2.6317 -2.3278 -1.3701
  187SAPI   H7Y21539   1.223   0.509   7.170  0.5859  1.0076  2.2468
  187SAPI   C3821540   1.127   0.371   7.337  0.3894 -0.2183 -0.5037
  187SAPI   H8X21541   1.164   0.267   7.334 -1.6894 -1.0959  1.3498
  187SAPI   H8Y21542   1.019   0.357   7.358  0.7189 -1.1765  0.6460
  187SAPI   C3921543   1.185   0.450   7.454  0.2970 -0.1788  0.5387
  187SAPI   H9X21544   1.128   0.545   7.450 -1.0045 -0.9664 -1.5858
  187SAPI   H9Y21545   1.294   0.461   7.439  0.4073 -1.2078  0.4915
  187SAPI  C31021546   1.152   0.389   7.593 -0.9831  0.4525  0.0075
  187SAPI  H10X21547   1.205   0.291   7.590  2.7439  2.2054  1.7136
  187SAPI  H10Y21548   1.045   0.365   7.608 -1.0046  0.8285  0.4376
  187SAPI  C31121549   1.193   0.476   7.715 -0.2596  0.3312 -0.4364
  187SAPI  H11X21550   1.122   0.562   7.716 -1.5051 -0.6678  0.4045
  187SAPI  H11Y21551   1.300   0.506   7.708  0.0506 -0.9057 -1.2588
  187SAPI  C31221552   1.185   0.389   7.837 -0.8553 -0.7733  0.6627
  187SAPI  H12X21553   1.243   0.297   7.812 -0.0799 -0.2034  0.3002
  187SAPI  H12Y21554   1.078   0.372   7.859 -1.2316  0.2528 -0.2541
  187SAPI  C31321555   1.249   0.447   7.958  0.6268 -0.6122  0.1460
  187SAPI  H13X21556   1.210   0.547   7.986 -0.5023 -1.6610  2.5906
  187SAPI  H13Y21557   1.355   0.472   7.934  0.3695 -0.3217 -0.7359
  187SAPI  C31421558   1.235   0.357   8.077  0.4839  0.4025 -0.2343
  187SAPI  H14X21559   1.281   0.256   8.074 -1.0222 -0.4349  1.7658
  187SAPI  H14Y21560   1.126   0.337   8.089  1.1166 -1.8670  3.7875
  187SAPI  C31521561   1.289   0.424   8.211  0.2248  0.5394  0.6370
  187SAPI  H15X21562   1.250   0.528   8.210 -0.7828  0.1730  1.0120
  187SAPI  H15Y21563   1.397   0.434   8.185 -0.1716  0.1731 -1.3011
  187SAPI  C31621564   1.265   0.341   8.337 -0.2366 -0.3203  0.5209
  187SAPI  H16X21565   1.309   0.239   8.336  0.6792  0.0028  2.6380
  187SAPI  H16Y21566   1.157   0.323   8.352 -0.5014 -1.8658 -2.4288
  187SAPI  C31721567   1.331   0.404   8.457  0.0620 -0.2490 -0.0614
  187SAPI  H17X21568   1.287   0.505   8.470  1.9022  0.2967  2.6256
  187SAPI  H17Y21569   1.441   0.417   8.453 -0.0070  0.0419 -1.7459
  187SAPI  C31821570   1.302   0.323   8.580 -0.7961 -0.4719 -0.0249
  187SAPI  H18X21571   1.358   0.357   8.669 -0.5173 -2.2957  0.5421
  187SAPI  H18Y21572   1.327   0.216   8.562 -0.2749 -0.4028  0.2775
  187SAPI  H18Z21573   1.194   0.333   8.605 -0.5275  1.1833  0.5630
  188SAPI   C1221574   3.053   2.194   6.417 -0.3988  0.1326  0.4579
  188SAPI    H221575   3.063   2.274   6.493  2.0488 -0.3604  0.7263
  188SAPI    O221576   2.943   2.237   6.335  0.4451  0.1530  0.0796
  188SAPI   HO221577   2.860   2.238   6.384 -0.8391 -2.6411 -1.7960
  188SAPI   C1321578   3.180   2.194   6.341  0.3271  0.3718 -0.1537
  188SAPI    H321579   3.264   2.177   6.411 -1.4492  0.3885  2.1344
  188SAPI    O321580   3.202   2.323   6.284 -0.5944 -0.1673 -0.1634
  188SAPI   HO321581   3.124   2.369   6.253 -0.4338  1.2375  1.4195
  188SAPI   C1421582   3.165   2.105   6.224  0.1656 -0.3503 -0.0112
  188SAPI    H421583   3.095   2.148   6.149  1.5942  1.0996 -0.5834
  188SAPI    O421584   3.283   2.087   6.138 -0.5651  0.2653 -0.7116
  188SAPI   HO421585   3.245   2.099   6.051 -0.5916 -0.3173 -0.7852
  188SAPI   C1521586   3.104   1.962   6.258  0.0563 -0.2872 -0.3040
  188SAPI    H521587   3.198   1.904   6.273  0.7377 -0.1274 -3.2909
  188SAPI    O521588   3.033   1.904   6.148 -0.4016 -0.1904 -0.5499
  188SAPI   HO521589   3.021   1.809   6.155 -3.3143  0.1454  0.2899
  188SAPI   C1621590   3.025   1.948   6.393 -0.0036  0.2582 -0.1025
  188SAPI    H621591   2.921   1.958   6.355  0.4452  0.9890 -1.1968
  188SAPI    O621592   3.037   1.822   6.458 -0.3022  0.1416  0.8037
  188SAPI   HO621593   2.951   1.780   6.466 -0.8322  0.8251 -0.9094
  188SAPI   C1121594   3.030   2.063   6.489 -0.9148 -0.0629 -0.0949
  188SAPI    H121595   3.119   2.060   6.555 -1.0115 -0.5045  0.0208
  188SAPI     P21596   2.911   2.011   6.720  0.1449 -0.3812  0.1423
  188SAPI   O1321597   2.788   2.062   6.780  0.5153  0.1517  0.7460
  188SAPI   O1421598   3.037   2.042   6.795  0.8697 -0.3434 -0.1767
  188SAPI   O1221599   2.915   2.074   6.565 -0.3704 -0.0794  0.2221
  188SAPI   O1121600   2.902   1.849   6.696  0.2252  0.6296 -0.8833
  188SAPI    C121601   2.805   1.769   6.765  0.1613  0.2466 -0.0678
  188SAPI    HA21602   2.720   1.832   6.800 -0.6670  1.0586 -3.1644
  188SAPI    HB21603   2.760   1.698   6.692  0.6054 -0.9967  0.8420
  188SAPI    C221604   2.854   1.684   6.883 -0.3894  0.1565  0.0883
  188SAPI    HS21605   2.762   1.642   6.930 -1.3198  2.1499  0.1420
  188SAPI   O2121606   2.932   1.759   6.978  0.6697  0.0702  0.1330
  188SAPI   C2121607   2.845   1.830   7.055 -0.5029 -0.5428  0.4930
  188SAPI   O2221608   2.729   1.803   7.071  0.1691  0.0220  0.1736
  188SAPI   C2221609   2.928   1.939   7.126  0.5055 -0.6539  0.1825
  188SAPI   H2R21610   3.029   1.899   7.151  1.0544  2.1213  3.0828
  188SAPI   H2S21611   2.938   2.024   7.054 -2.6498 -0.9946 -0.7864
  188SAPI    C321612   2.934   1.560   6.843  0.2241  0.0724 -0.3857
  188SAPI    HX21613   3.008   1.594   6.767  1.0672 -1.8487 -0.4812
  188SAPI    HY21614   2.866   1.492   6.788  1.0258 -0.1157 -1.1622
  188SAPI   O3121615   2.991   1.502   6.958 -0.7206  0.3176  0.5363
  188SAPI   C3121616   2.943   1.381   6.995  0.1127 -0.3180 -0.0152
  188SAPI   O3221617   2.842   1.325   6.942  0.1453 -0.4584 -0.0366
  188SAPI   C3221618   3.020   1.330   7.110 -0.3383 -0.4454  0.3311
  188SAPI   H2X21619   3.023   1.399   7.197 -3.4768  0.0106  0.2104
  188SAPI   H2Y21620   3.120   1.321   7.063 -0.9892  2.3000 -1.8617
  188SAPI   C2321621   2.857   1.987   7.254 -0.5100 -0.3263 -1.0148
  188SAPI   H3R21622   2.746   1.998   7.257 -0.3977  0.7269  0.0927
  188SAPI   H3S21623   2.904   2.080   7.292 -2.6756 -0.1594  1.6047
  188SAPI   C2421624   2.897   1.891   7.373  0.3338  0.2725  0.1174
  188SAPI   H4R21625   3.007   1.893   7.367  0.3278  3.0371 -0.4167
  188SAPI   H4S21626   2.861   1.793   7.335  1.6541 -1.3346  2.7445
  188SAPI   C2521627   2.839   1.934   7.505  0.4357 -0.4425 -0.5539
  188SAPI   H5R21628   2.737   1.974   7.505  0.3190 -0.6041 -2.8976
  188SAPI   C2621629   2.896   1.909   7.624  0.1490 -0.2489  0.1434
  188SAPI   H6R21630   2.848   1.960   7.709  1.6285  0.4904  0.5535
  188SAPI   C2721631   3.028   1.850   7.654  0.2626  0.8100 -0.2791
  188SAPI   H7R21632   3.067   1.907   7.741 -2.5220  0.8333  1.0913
  188SAPI   H7S21633   3.099   1.831   7.572  0.6640 -0.7721  0.4021
  188SAPI   C2821634   2.987   1.712   7.703 -0.1802 -0.3513  0.0751
  188SAPI   H8R21635   2.945   1.660   7.616  0.1983  1.7210 -1.4269
  188SAPI   C2921636   3.000   1.646   7.817 -0.2450 -0.3421 -0.3453
  188SAPI   H9R21637   2.955   1.546   7.829  0.7246 -0.9181 -1.2907
  188SAPI  C21021638   3.049   1.710   7.946 -0.8201  0.5966  0.5913
  188SAPI  H10R21639   3.113   1.798   7.923 -1.0771  0.6832  0.1965
  188SAPI  H10S21640   3.122   1.637   7.986 -0.3261  0.5351 -0.3769
  188SAPI  C21121641   2.942   1.750   8.050  0.6955  0.9300 -0.1050
  188SAPI  H11R21642   2.849   1.785   8.002 -0.7946 -0.6705  1.4312
  188SAPI  C21221643   2.957   1.768   8.187  0.7908  1.2409  0.2865
  188SAPI  H12R21644   2.866   1.794   8.244 -0.6852 -0.4823 -1.1558
  188SAPI  C21321645   3.093   1.749   8.257  1.4553  0.1075 -0.3327
  188SAPI  H13R21646   3.171   1.686   8.210  1.4598  1.3585 -2.1127
  188SAPI  H13S21647   3.066   1.693   8.349 -0.7190 -1.2119 -1.6842
  188SAPI  C21421648   3.166   1.879   8.283 -0.1139 -0.1370 -0.4369
  188SAPI  H14R21649   3.153   1.960   8.209 -0.2717  0.6697  0.4586
  188SAPI  C21521650   3.266   1.897   8.378  0.2191  0.0375  0.0370
  188SAPI  H15R21651   3.312   1.997   8.380  0.2366  0.0307 -0.0072
  188SAPI  C21621652   3.303   1.788   8.469 -0.7494 -0.1959 -0.1310
  188SAPI  H16R21653   3.324   1.698   8.408  1.1473  0.2919 -0.2933
  188SAPI  H16S21654   3.225   1.747   8.536  0.4470 -0.3873  1.1923
  188SAPI  C21721655   3.421   1.822   8.572  0.2215  0.7365  0.5873
  188SAPI  H17R21656   3.395   1.897   8.650  0.7311 -0.2129  1.6985
  188SAPI  H17S21657   3.507   1.854   8.509  0.3479  0.2092  0.4887
  188SAPI  C21821658   3.456   1.704   8.662 -0.1166 -0.3952  0.9931
  188SAPI  H18R21659   3.462   1.607   8.609  0.2400  1.2511 -2.2061
  188SAPI  H18S21660   3.397   1.702   8.756  0.4683 -2.4795  1.3630
  188SAPI  C21921661   3.605   1.708   8.702  0.9184  0.2592  0.2672
  188SAPI  H19R21662   3.615   1.794   8.772  2.7025 -1.5345  2.3796
  188SAPI  H19S21663   3.669   1.723   8.613  0.7678 -1.6097 -0.1963
  188SAPI  C22021664   3.649   1.577   8.781  0.2584 -0.7083  0.3984
  188SAPI  H20R21665   3.633   1.494   8.710  1.6713 -0.1729 -0.5905
  188SAPI  H20S21666   3.587   1.569   8.873 -3.4414  1.6474 -1.6487
  188SAPI  H20T21667   3.747   1.580   8.835  0.6079 -0.6829 -0.2262
  188SAPI   C3321668   2.972   1.195   7.167  0.3745 -0.2039 -0.0673
  188SAPI   H3X21669   3.044   1.137   7.227 -1.0285 -2.6168 -0.6047
  188SAPI   H3Y21670   2.933   1.134   7.083  3.3733 -0.9354 -1.0739
  188SAPI   C3421671   2.862   1.214   7.276  0.5736 -0.4310  0.4276
  188SAPI   H4X21672   2.770   1.240   7.220  0.4888  1.0342  1.2113
  188SAPI   H4Y21673   2.876   1.279   7.365 -1.0467  0.6607 -0.0701
  188SAPI   C3521674   2.816   1.075   7.319  0.3876  1.3172 -0.4585
  188SAPI   H5X21675   2.905   1.029   7.369 -0.2910 -0.7578 -1.0305
  188SAPI   H5Y21676   2.792   1.009   7.232  0.5432 -1.0090  1.1596
  188SAPI   C3621677   2.710   1.067   7.433  0.4693  0.3227 -0.3713
  188SAPI   H6X21678   2.610   1.092   7.391  0.1484  1.8536  1.2199
  188SAPI   H6Y21679   2.730   1.150   7.504  1.0636 -0.8074  0.8162
  188SAPI   C3721680   2.699   0.938   7.517  0.2909 -0.2312 -0.1529
  188SAPI   H7X21681   2.792   0.912   7.572  0.0385  0.2673  0.5230
  188SAPI   H7Y21682   2.689   0.843   7.461  0.0450 -0.9917  1.1578
  188SAPI   C3821683   2.589   0.945   7.625 -0.9461  0.6903 -0.2277
  188SAPI   H8X21684   2.488   0.935   7.581 -1.4679  1.3668  0.7892
  188SAPI   H8Y21685   2.587   1.030   7.696 -1.0522 -0.6456  1.4493
  188SAPI   C3921686   2.597   0.823   7.718 -0.2519  0.2596  0.1984
  188SAPI   H9X21687   2.691   0.820   7.778  0.6296  2.0608 -0.9934
  188SAPI   H9Y21688   2.604   0.736   7.648  0.2978  0.2121  0.3043
  188SAPI  C31021689   2.474   0.812   7.806 -0.1429  0.4682 -0.2257
  188SAPI  H10X21690   2.386   0.782   7.745 -0.4391 -0.5161  0.6678
  188SAPI  H10Y21691   2.449   0.913   7.847 -1.4216 -0.2799  0.9213
  188SAPI  C31121692   2.495   0.722   7.930  0.0994 -0.2891 -0.9046
  188SAPI  H11X21693   2.535   0.620   7.917 -0.6268 -0.7246  0.1058
  188SAPI  H11Y21694   2.397   0.697   7.977  0.7994 -1.6012 -0.1019
  188SAPI  C31221695   2.577   0.793   8.036  0.1513  0.1226 -0.1673
  188SAPI  H12X21696   2.556   0.900   8.055  2.1762  0.4420  0.4991
  188SAPI  H12Y21697   2.677   0.803   7.987  0.3388  1.3769  0.4313
  188SAPI  C31321698   2.583   0.709   8.169  0.5725  1.2024  0.4009
  188SAPI  H13X21699   2.625   0.609   8.141  0.3086  1.1971  0.0166
  188SAPI  H13Y21700   2.481   0.686   8.207  0.8417 -3.9768 -1.1060
  188SAPI  C31421701   2.673   0.769   8.283 -0.4324 -1.0634 -0.2097
  188SAPI  H14X21702   2.780   0.756   8.256 -0.7733 -1.0018 -1.6676
  188SAPI  H14Y21703   2.670   0.712   8.379  0.3338 -1.0541 -0.1799
  188SAPI  C31521704   2.636   0.917   8.318  0.4652  0.1348 -0.6263
  188SAPI  H15X21705   2.535   0.960   8.297  0.6459  0.1547 -1.5065
  188SAPI  H15Y21706   2.696   0.989   8.259  0.5147  1.0613  0.5107
  188SAPI  C31621707   2.662   0.941   8.465 -0.2676  0.7692  0.0438
  188SAPI  H16X21708   2.772   0.931   8.480 -0.6981 -1.1217  2.4900
  188SAPI  H16Y21709   2.625   0.849   8.515  3.9184 -1.2853 -0.1582
  188SAPI  C31721710   2.594   1.068   8.530 -0.0217 -0.2004  0.0701
  188SAPI  H17X21711   2.488   1.034   8.537  0.6141 -2.1147  1.1547
  188SAPI  H17Y21712   2.611   1.155   8.464  1.9868  0.2423  1.0902
  188SAPI  C31821713   2.648   1.101   8.667  0.1742 -0.2207 -0.1242
  188SAPI  H18X21714   2.621   1.202   8.702  1.2994  0.0788 -0.0686
  188SAPI  H18Y21715   2.759   1.089   8.667  0.2827  0.6948  0.5690
  188SAPI  H18Z21716   2.608   1.022   8.734  1.6664 -0.7537  0.1925
  189POPC     N21717   1.280   2.512  10.866 -0.3032  0.1225 -0.6007
  189POPC   C1221718   1.428   2.529  10.830  0.2359  0.1084 -0.0644
  189POPC  H12A21719   1.449   2.482  10.735 -0.6336  0.2291 -0.3218
  189POPC  H12B21720   1.482   2.476  10.907 -0.4093 -1.1120 -0.4420
  189POPC   C1321721   1.257   2.589  10.987 -0.1516  0.1013  0.1129
  189POPC  H13A21722   1.285   2.692  10.969 -0.7492  0.4136  0.9059
  189POPC  H13B21723   1.152   2.588  11.015 -0.2233  0.8270 -0.0920
  189POPC  H13C21724   1.310   2.553  11.073  2.9774  0.7199 -1.4314
  189POPC   C1421725   1.198   2.560  10.754 -0.0778 -0.1749 -0.2127
  189POPC  H14A21726   1.096   2.544  10.786 -0.1769 -2.4891 -1.4487
  189POPC  H14B21727   1.229   2.663  10.744  2.0585 -0.8638 -1.2376
  189POPC  H14C21728   1.206   2.504  10.662 -2.7651 -0.6116 -0.2840
  189POPC   C1521729   1.249   2.369  10.903  0.2220 -0.2943  0.3589
  189POPC  H15A21730   1.314   2.345  10.986  2.2729  3.5727  0.0996
  189POPC  H15B21731   1.272   2.299  10.824  0.3029 -1.0634  1.0508
  189POPC  H15C21732   1.144   2.364  10.926 -0.0382  0.6906 -0.5260
  189POPC   C1121733   1.497   2.667  10.815 -0.5470 -0.7243 -0.1883
  189POPC  H11A21734   1.605   2.642  10.814 -0.6408 -1.1740 -1.8570
  189POPC  H11B21735   1.468   2.733  10.899  1.2494  2.3758 -1.8601
  189POPC     P21736   1.392   2.872  10.676 -0.1201 -0.0135  0.2014
  189POPC   O1321737   1.499   2.966  10.686  0.1406  0.0610  0.3542
  189POPC   O1421738   1.282   2.885  10.775 -0.1162  0.2391 -0.6412
  189POPC   O1221739   1.456   2.728  10.698 -0.2014 -0.4144 -0.5632
  189POPC   O1121740   1.326   2.867  10.533 -0.0631  0.5386  0.2790
  189POPC    C121741   1.333   2.760  10.443 -0.5276 -1.2316  0.0471
  189POPC    HA21742   1.255   2.790  10.370  1.4010  1.6100 -1.0776
  189POPC    HB21743   1.307   2.665  10.492  1.5720 -1.6622  0.4334
  189POPC    C221744   1.469   2.758  10.365 -0.1643  0.1568 -0.8340
  189POPC    HS21745   1.550   2.748  10.441  0.3279 -1.6526 -1.5476
  189POPC   O2121746   1.488   2.882  10.287  0.3745 -0.0948 -0.2239
  189POPC   C2121747   1.611   2.915  10.250  0.3754  0.2504 -1.0489
  189POPC   O2221748   1.711   2.858  10.286 -0.6474 -0.0418 -0.2053
  189POPC   C2221749   1.605   3.031  10.153 -0.5087 -0.4352 -0.9065
  189POPC   H2R21750   1.709   3.027  10.114 -1.0038 -2.5526 -2.1386
  189POPC   H2S21751   1.591   3.129  10.203  0.4879  1.1518 -3.5336
  189POPC    C321752   1.480   2.635  10.271  0.3903  0.4787 -0.4224
  189POPC    HX21753   1.448   2.553  10.338  1.1396  0.1871 -0.4169
  189POPC    HY21754   1.583   2.614  10.238 -0.1080  0.2701 -1.9394
  189POPC   O3121755   1.388   2.659  10.156  0.0123 -0.5693 -0.2862
  189POPC   C3121756   1.268   2.596  10.147  0.4852 -0.2710  0.4719
  189POPC   O3221757   1.224   2.521  10.227  0.4181 -0.3944 -0.2164
  189POPC   C3221758   1.181   2.635  10.028 -0.0833  0.1384  0.4711
  189POPC   H2X21759   1.130   2.733  10.044 -0.9768 -0.2728  0.2129
  189POPC   H2Y21760   1.109   2.550  10.021  0.6838 -0.6304  1.7333
  189POPC   C2321761   1.489   3.012  10.055 -0.4608  0.4360  0.0659
  189POPC   H3R21762   1.397   3.026  10.115 -0.9120 -0.8357 -0.2887
  189POPC   H3S21763   1.487   2.910  10.009  3.6877 -0.4312  1.3801
  189POPC   C2421764   1.476   3.113   9.939  0.6467 -0.9200  0.2569
  189POPC   H4R21765   1.456   3.215   9.977  0.2289  0.0097 -2.2704
  189POPC   H4S21766   1.393   3.083   9.871  1.1673 -1.7982 -0.0090
  189POPC   C2521767   1.605   3.133   9.853 -0.5165  0.0121  0.6668
  189POPC   H5R21768   1.624   3.035   9.805  0.3248  0.1816  0.6374
  189POPC   H5S21769   1.696   3.152   9.914 -0.9610 -1.2338  1.7657
  189POPC   C2621770   1.595   3.243   9.745 -0.2103  0.4776  0.5275
  189POPC   H6R21771   1.700   3.271   9.721 -0.0244  0.3031  1.1167
  189POPC   H6S21772   1.536   3.323   9.793  0.2722  1.0544  0.1750
  189POPC   C2721773   1.520   3.205   9.615  0.5200  0.1250  0.1059
  189POPC   H7R21774   1.422   3.160   9.640  1.0371 -0.4827  1.0930
  189POPC   H7S21775   1.583   3.127   9.568  1.0151  0.0013  0.9419
  189POPC   C2821776   1.495   3.315   9.512 -0.4132 -0.0324  0.2452
  189POPC   H8R21777   1.594   3.360   9.491 -1.3156  1.3691 -1.2348
  189POPC   H8S21778   1.429   3.394   9.554 -0.5800 -0.5763  1.0214
  189POPC   C2921779   1.441   3.268   9.379  0.2170 -0.3079 -0.3611
  189POPC   H9121780   1.331   3.277   9.374  0.3395  2.0992  0.4580
  189POPC  C21021781   1.504   3.193   9.285 -0.0744 -0.0110  0.8459
  189POPC  H10121782   1.455   3.159   9.193 -0.2113  0.1834  0.8466
  189POPC  C21121783   1.650   3.159   9.294 -0.1940  0.0089 -0.1948
  189POPC  H11R21784   1.662   3.085   9.377 -1.9060  1.0325  1.0189
  189POPC  H11S21785   1.706   3.247   9.331 -2.5286  1.4034  0.1728
  189POPC  C21221786   1.733   3.104   9.172  0.5361 -0.5317  0.0931
  189POPC  H12R21787   1.723   3.181   9.092  0.7432  0.5902  1.1084
  189POPC  H12S21788   1.706   3.000   9.145 -1.9938 -0.1904  0.9987
  189POPC  C21321789   1.881   3.103   9.201  0.2677  0.0225  0.3007
  189POPC  H13R21790   1.905   3.042   9.291 -0.3394 -0.8196 -0.0898
  189POPC  H13S21791   1.916   3.206   9.219 -1.0037  0.7686 -1.2598
  189POPC  C21421792   1.962   3.046   9.080  0.2190  0.3177  0.0808
  189POPC  H14R21793   1.938   2.939   9.059 -0.2485  0.6244 -1.0226
  189POPC  H14S21794   2.067   3.048   9.114  0.1238  0.9909  0.3417
  189POPC  C21521795   1.962   3.130   8.955  0.8455  0.4781 -0.4581
  189POPC  H15R21796   1.994   3.232   8.984  1.3972  0.6472 -1.5897
  189POPC  H15S21797   1.862   3.128   8.905  0.3504  1.4160  0.4669
  189POPC  C21621798   2.072   3.106   8.853  0.0910  0.5178 -0.8802
  189POPC  H16R21799   2.035   3.021   8.793 -2.2540 -0.1988  1.4200
  189POPC  H16S21800   2.157   3.071   8.915 -0.0897  0.3439 -0.7295
  189POPC  C21721801   2.106   3.230   8.770 -0.1388 -0.2452 -0.4006
  189POPC  H17R21802   2.153   3.301   8.842  0.1575 -0.1383 -0.6977
  189POPC  H17S21803   2.011   3.276   8.735 -0.7193 -2.8489 -2.5496
  189POPC  C21821804   2.191   3.202   8.640 -0.3307  0.0375  0.8339
  189POPC  H18R21805   2.212   3.305   8.603  1.6189 -0.4869  0.3803
  189POPC  H18S21806   2.138   3.139   8.565 -0.0635  0.3940  0.3355
  189POPC  H18T21807   2.284   3.151   8.671  1.2711  2.1107 -0.2920
  189POPC   C3321808   1.261   2.650   9.892 -0.6417 -0.5510 -0.7235
  189POPC   H3X21809   1.301   2.549   9.870  2.3237  0.3269  0.0602
  189POPC   H3Y21810   1.349   2.713   9.918 -2.6032  1.5804  1.2154
  189POPC   C3421811   1.177   2.709   9.777 -0.2034 -0.8015 -0.0337
  189POPC   H4X21812   1.142   2.811   9.805  1.7121  0.0363 -0.5270
  189POPC   H4Y21813   1.096   2.633   9.770 -1.9439  0.9779 -0.2001
  189POPC   C3521814   1.243   2.726   9.637 -0.3189  0.2682 -0.2080
  189POPC   H5X21815   1.166   2.781   9.579 -1.7619 -0.3441  1.0502
  189POPC   H5Y21816   1.252   2.626   9.590 -0.9090 -1.7426  3.5007
  189POPC   C3621817   1.371   2.806   9.633  0.3482  0.1125  1.0484
  189POPC   H6X21818   1.456   2.754   9.682  1.0384  0.3625  0.1448
  189POPC   H6Y21819   1.353   2.900   9.690 -0.5044 -0.5876  1.9851
  189POPC   C3721820   1.417   2.847   9.481  0.7022 -0.1065 -0.1199
  189POPC   H7X21821   1.519   2.889   9.495  0.7713 -0.6540  1.2012
  189POPC   H7Y21822   1.351   2.928   9.441 -0.4708  0.3982  2.6205
  189POPC   C3821823   1.424   2.744   9.369 -0.0539  0.8023  1.0397
  189POPC   H8X21824   1.323   2.716   9.334 -0.0270  1.1525  0.6726
  189POPC   H8Y21825   1.469   2.651   9.408 -0.9532  0.2648  0.8256
  189POPC   C3921826   1.502   2.792   9.246 -0.1023 -0.4502 -0.5599
  189POPC   H9X21827   1.579   2.868   9.271 -0.5106  0.7882 -2.7680
  189POPC   H9Y21828   1.426   2.842   9.182 -1.2991  0.5264  1.5084
  189POPC  C31021829   1.567   2.677   9.170 -0.3242 -0.0611 -0.2249
  189POPC  H10X21830   1.483   2.613   9.137 -1.1556  0.2679  1.1476
  189POPC  H10Y21831   1.631   2.628   9.246  1.4674  2.7149  0.2062
  189POPC  C31121832   1.670   2.721   9.063 -0.0768 -0.2351  0.0876
  189POPC  H11X21833   1.714   2.634   9.008 -1.7431 -0.2945 -1.2435
  189POPC  H11Y21834   1.757   2.767   9.115 -0.0653 -1.3372  1.0801
  189POPC  C31221835   1.615   2.815   8.955 -0.0131 -0.2549  0.1804
  189POPC  H12X21836   1.586   2.911   9.002  0.8778 -0.0494  0.3459
  189POPC  H12Y21837   1.523   2.765   8.920  0.9364 -1.9321 -0.0493
  189POPC  C31321838   1.713   2.860   8.841  0.4099  0.3547 -0.3839
  189POPC  H13X21839   1.719   2.771   8.775 -2.3321 -1.1937  1.2398
  189POPC  H13Y21840   1.815   2.887   8.875  0.2110 -1.6895  2.1378
  189POPC  C31421841   1.670   2.968   8.742  0.3051  0.3445 -0.4648
  189POPC  H14X21842   1.674   3.058   8.808  3.5467 -0.9811  1.4345
  189POPC  H14Y21843   1.565   2.946   8.716 -0.1870  1.7535  0.1901
  189POPC  C31521844   1.748   2.993   8.614 -0.1265 -0.7584 -0.2198
  189POPC  H15X21845   1.856   3.009   8.639 -0.6589 -0.5202  2.2254
  189POPC  H15Y21846   1.697   3.080   8.569 -1.2371 -0.1710  2.0408
  189POPC  C31621847   1.740   2.877   8.513 -0.1243  0.1868  0.0158
  189POPC  H16X21848   1.768   2.779   8.558 -1.3355  0.7601  2.1741
  189POPC  H16Y21849   1.808   2.895   8.427  0.0637 -0.4201  0.0329
  189POPC  H16Z21850   1.637   2.862   8.475  0.6555  0.2922 -2.2962
  190POPC     N21851   3.889   5.167  10.706  0.9079  0.8296 -0.6756
  190POPC   C1221852   3.886   5.284  10.802  0.4011 -0.0728 -0.3492
  190POPC  H12A21853   3.902   5.371  10.740  0.4639  1.4989  1.7580
  190POPC  H12B21854   3.966   5.290  10.874  0.6807  0.0605 -0.6680
  190POPC   C1321855   3.861   5.035  10.778 -0.4629  0.1933 -0.0422
  190POPC  H13A21856   3.860   4.954  10.707  2.0929  2.2203 -2.6353
  190POPC  H13B21857   3.937   5.021  10.853 -2.3143 -0.6708  1.7608
  190POPC  H13C21858   3.769   5.038  10.835  0.6952  0.1083  1.8894
  190POPC   C1421859   3.791   5.181  10.593  0.3028  0.2796 -0.2189
  190POPC  H14A21860   3.811   5.283  10.563  1.8014  0.0692  0.0225
  190POPC  H14B21861   3.805   5.102  10.521 -1.1869  0.9485 -1.3092
  190POPC  H14C21862   3.688   5.176  10.626 -0.5575  2.1813 -2.3427
  190POPC   C1521863   4.021   5.153  10.646  0.0703 -0.3036  0.2731
  190POPC  H15A21864   4.033   5.236  10.578 -2.0372  0.7141  1.0637
  190POPC  H15B21865   4.042   5.058  10.599  1.0854  0.1341 -0.1814
  190POPC  H15C21866   4.099   5.165  10.721 -0.6431  0.9471  0.8499
  190POPC   C1121867   3.752   5.314  10.882  0.1255  0.2160  0.3253
  190POPC  H11A21868   3.764   5.399  10.954 -3.3634  0.9027  0.2708
  190POPC  H11B21869   3.737   5.221  10.940  0.4961  0.3803  0.6932
  190POPC     P21870   3.629   5.477  10.725  0.4318 -0.3292 -0.3617
  190POPC   O1321871   3.764   5.541  10.718  0.2545  0.4805 -0.3362
  190POPC   O1421872   3.523   5.552  10.800 -0.2859 -0.5084  0.6311
  190POPC   O1221873   3.648   5.333  10.792 -0.1405 -0.0607 -0.1047
  190POPC   O1121874   3.583   5.429  10.580 -0.1139  0.6023  0.5716
  190POPC    C121875   3.443   5.407  10.562  0.9151  0.5007 -0.0631
  190POPC    HA21876   3.407   5.507  10.529  0.9904  0.3186 -0.7112
  190POPC    HB21877   3.398   5.376  10.659 -1.9124 -0.8506 -1.6820
  190POPC    C221878   3.407   5.296  10.456  0.8606 -0.1289  0.7482
  190POPC    HS21879   3.452   5.197  10.480 -0.7732 -1.3664 -0.9420
  190POPC   O2121880   3.453   5.351  10.330 -0.1540 -0.2242  0.1289
  190POPC   C2121881   3.536   5.267  10.259 -0.1728 -0.1904 -0.8388
  190POPC   O2221882   3.572   5.159  10.299  0.0102 -0.5034 -0.2067
  190POPC   C2221883   3.545   5.317  10.121  0.1966  0.2698  0.1077
  190POPC   H2R21884   3.612   5.406  10.122  0.0147  0.4173  1.6333
  190POPC   H2S21885   3.447   5.357  10.087  0.4700  3.7135  2.7416
  190POPC    C321886   3.256   5.273  10.448 -0.0920  0.1087 -0.3819
  190POPC    HX21887   3.211   5.372  10.425 -2.5608 -1.2468 -1.8526
  190POPC    HY21888   3.222   5.236  10.547  1.8164 -2.1694 -0.4691
  190POPC   O3121889   3.214   5.175  10.346 -0.7614  0.4648 -0.0862
  190POPC   C3121890   3.240   5.050  10.386  0.0177 -0.3459 -0.1499
  190POPC   O3221891   3.282   5.016  10.497  0.1984  0.0197  0.0538
  190POPC   C3221892   3.216   4.956  10.268  0.2327  0.4123  0.5546
  190POPC   H2X21893   3.108   4.943  10.245 -0.5932  1.7673  3.2702
  190POPC   H2Y21894   3.258   4.862  10.310  0.5262  0.1763 -0.2438
  190POPC   C2321895   3.602   5.200  10.036 -0.1754 -0.5539  1.0883
  190POPC   H3R21896   3.533   5.113  10.040 -1.2299  0.1203 -0.9131
  190POPC   H3S21897   3.706   5.173  10.065  0.6106  1.3145  0.1639
  190POPC   C2421898   3.613   5.244   9.884 -0.7428  0.0369  0.1838
  190POPC   H4R21899   3.687   5.327   9.876 -0.2495 -0.4960 -0.9553
  190POPC   H4S21900   3.513   5.279   9.848 -0.3742 -0.3933 -1.3567
  190POPC   C2521901   3.652   5.135   9.778 -0.1895  0.0082  0.0471
  190POPC   H5R21902   3.572   5.059   9.772 -0.8099  0.3505  2.8582
  190POPC   H5S21903   3.751   5.096   9.812  0.1389 -0.1708 -1.0504
  190POPC   C2621904   3.686   5.200   9.643  0.0090  0.7039  0.2818
  190POPC   H6R21905   3.734   5.299   9.658 -0.3824  0.9334  0.0130
  190POPC   H6S21906   3.588   5.225   9.598 -0.6496 -1.1192  0.6112
  190POPC   C2721907   3.754   5.106   9.544 -0.4169  0.2868  0.5083
  190POPC   H7R21908   3.687   5.029   9.498 -1.4021  0.1267  2.1170
  190POPC   H7S21909   3.825   5.038   9.596 -0.3008 -0.8155 -1.0328
  190POPC   C2821910   3.837   5.185   9.446 -0.0257 -0.0114  0.0416
  190POPC   H8R21911   3.929   5.126   9.426  0.1633  0.1355  0.4608
  190POPC   H8S21912   3.868   5.282   9.491  0.5504  0.0807 -0.5400
  190POPC   C2921913   3.752   5.222   9.327  0.7524  0.0448  0.6121
  190POPC   H9121914   3.707   5.322   9.317 -0.0267 -0.4696 -1.8457
  190POPC  C21021915   3.732   5.146   9.214  0.0815  0.5705 -0.6095
  190POPC  H10121916   3.658   5.181   9.141 -0.8391 -4.1012 -2.2853
  190POPC  C21121917   3.789   5.006   9.193  0.5074 -0.5731 -0.4025
  190POPC  H11R21918   3.701   4.940   9.179  0.3596 -0.4432 -0.1224
  190POPC  H11S21919   3.835   4.974   9.289  1.7525  1.4049 -0.2773
  190POPC  C21221920   3.891   5.001   9.085 -0.2355  0.8030  0.3204
  190POPC  H12R21921   3.849   5.044   8.991 -0.4120 -2.6536 -1.3194
  190POPC  H12S21922   3.910   4.898   9.048 -0.4237  0.7813  0.2833
  190POPC  C21321923   4.018   5.078   9.127  0.5348 -0.5643  0.1559
  190POPC  H13R21924   4.029   5.059   9.236  1.5807 -1.2753 -0.0588
  190POPC  H13S21925   3.995   5.187   9.120  0.3859 -0.6761 -1.3332
  190POPC  C21421926   4.136   5.043   9.045 -0.1146  0.0869  0.1989
  190POPC  H14R21927   4.138   4.934   9.024 -1.2905 -0.1045  0.9660
  190POPC  H14S21928   4.233   5.054   9.098 -0.1399  0.3928  0.1792
  190POPC  C21521929   4.131   5.112   8.912  0.0136 -0.1095  0.3811
  190POPC  H15R21930   4.156   5.216   8.940 -0.7677 -0.1503  1.2869
  190POPC  H15S21931   4.027   5.110   8.872 -0.1746 -0.7380  0.8834
  190POPC  C21621932   4.228   5.068   8.805 -0.5134 -0.1252 -0.5993
  190POPC  H16R21933   4.297   5.002   8.862 -1.4434  0.2871  1.0845
  190POPC  H16S21934   4.287   5.161   8.789 -0.8488 -0.0509 -1.4645
  190POPC  C21721935   4.169   5.002   8.679  0.7596  0.1206 -0.3636
  190POPC  H17R21936   4.118   5.079   8.617  0.0635 -1.2588 -1.5445
  190POPC  H17S21937   4.085   4.937   8.712  0.6703  0.2845 -0.2621
  190POPC  C21821938   4.270   4.926   8.597 -0.4243 -0.4520  0.0654
  190POPC  H18R21939   4.371   4.971   8.598 -0.1077 -1.1245  1.1909
  190POPC  H18S21940   4.241   4.906   8.492  1.0927 -2.0248 -0.1004
  190POPC  H18T21941   4.289   4.828   8.647  2.0667  0.6133  1.4080
  190POPC   C3321942   3.289   5.011  10.140  0.1201  0.2813 -0.1563
  190POPC   H3X21943   3.398   4.991  10.145 -0.0870 -0.6004  1.3792
  190POPC   H3Y21944   3.278   5.121  10.137  1.0159  0.3687 -2.3193
  190POPC   C3421945   3.225   4.952  10.010 -0.8034  0.2625 -0.1787
  190POPC   H4X21946   3.118   4.976  10.025 -1.1945 -1.1952 -0.5095
  190POPC   H4Y21947   3.221   4.841  10.009 -2.3239  0.2908  0.5222
  190POPC   C3521948   3.277   5.003   9.877  0.2608 -0.0284 -0.4741
  190POPC   H5X21949   3.387   5.004   9.861  0.1424 -1.0947 -1.5114
  190POPC   H5Y21950   3.245   5.108   9.863 -2.8605 -1.2199 -3.9138
  190POPC   C3621951   3.207   4.933   9.755  0.4758  0.5145 -0.0076
  190POPC   H6X21952   3.096   4.929   9.767  0.3504 -3.7827 -0.9895
  190POPC   H6Y21953   3.234   4.826   9.768 -1.9668  0.0444  2.0275
  190POPC   C3721954   3.243   5.010   9.627  0.1080  0.0410 -0.1234
  190POPC   H7X21955   3.350   5.028   9.601 -0.8137  2.0186 -3.1304
  190POPC   H7Y21956   3.195   5.110   9.635  1.0592  0.4802  0.2117
  190POPC   C3821957   3.176   4.955   9.507  0.0789  0.2217  0.1759
  190POPC   H8X21958   3.069   4.933   9.524 -0.0296  0.6012 -0.0023
  190POPC   H8Y21959   3.230   4.861   9.483  0.0681 -0.2076  1.7623
  190POPC   C3921960   3.184   5.041   9.374  1.0046 -0.0974  0.1493
  190POPC   H9X21961   3.160   5.147   9.393 -0.0041 -0.2857  0.0039
  190POPC   H9Y21962   3.102   5.005   9.308  1.5774 -0.8700 -0.1586
  190POPC  C31021963   3.310   5.023   9.288  0.0153 -0.2390 -0.2881
  190POPC  H10X21964   3.322   4.913   9.276 -0.4352 -0.3083 -0.1108
  190POPC  H10Y21965   3.400   5.061   9.341  0.2241  2.5357 -2.3952
  190POPC  C31121966   3.307   5.079   9.149  0.4218 -0.1881  0.5781
  190POPC  H11X21967   3.405   5.129   9.132  2.3002 -3.5830  0.5702
  190POPC  H11Y21968   3.231   5.159   9.143  2.2231  1.4920 -2.1667
  190POPC  C31221969   3.268   4.975   9.049 -0.1097 -0.4787 -0.1119
  190POPC  H12X21970   3.205   5.029   8.976  0.4394  1.1184  0.5663
  190POPC  H12Y21971   3.200   4.895   9.086  2.0482 -2.3310  0.0808
  190POPC  C31321972   3.392   4.915   8.983 -0.4014  0.0198 -0.0214
  190POPC  H13X21973   3.368   4.812   8.948 -0.7403  0.4336 -1.0617
  190POPC  H13Y21974   3.478   4.911   9.052  0.3021 -0.8302 -0.9107
  190POPC  C31421975   3.445   4.993   8.862  0.3425  0.0983  0.0706
  190POPC  H14X21976   3.432   5.103   8.877  1.4155  0.2679 -0.1334
  190POPC  H14Y21977   3.382   4.963   8.776  0.5115  0.5862 -0.2277
  190POPC  C31521978   3.601   4.966   8.840 -0.5152 -0.1992  0.3328
  190POPC  H15X21979   3.666   5.008   8.920  0.0549  1.2283 -0.8266
  190POPC  H15Y21980   3.634   5.017   8.747  2.0201  0.4949  1.5255
  190POPC  C31621981   3.627   4.819   8.835 -0.3306 -0.0404 -0.3698
  190POPC  H16X21982   3.620   4.780   8.939 -1.9836 -0.4962 -0.6206
  190POPC  H16Y21983   3.732   4.796   8.804 -0.4027 -1.0016  0.0339
  190POPC  H16Z21984   3.558   4.768   8.765 -1.4660  0.1865  0.5596
  191POPC     N21985   4.241   1.583   5.812 -0.4995  0.0911  0.9606
  191POPC   C1221986   4.183   1.439   5.827  0.2104 -0.4756  0.0423
  191POPC  H12A21987   4.150   1.407   5.729  0.1180  0.5642 -0.2768
  191POPC  H12B21988   4.102   1.448   5.897 -0.2884  2.4422 -0.7806
  191POPC   C1321989   4.354   1.583   5.705 -0.1103 -0.0581 -0.2510
  191POPC  H13A21990   4.406   1.678   5.705  0.6949 -0.4487 -2.5228
  191POPC  H13B21991   4.414   1.498   5.735  1.6400  1.2390  0.0787
  191POPC  H13C21992   4.318   1.580   5.604  2.7660  2.0895 -1.4852
  191POPC   C1421993   4.137   1.667   5.765  0.6328 -0.4953 -0.6045
  191POPC  H14A21994   4.089   1.636   5.673  0.9858 -0.9574 -0.6369
  191POPC  H14B21995   4.057   1.686   5.835  0.6846  0.1603 -0.7125
  191POPC  H14C21996   4.180   1.764   5.748 -1.9203  0.5588 -1.6168
  191POPC   C1521997   4.293   1.637   5.944 -0.3712 -0.3318 -0.7522
  191POPC  H15A21998   4.322   1.740   5.930 -0.4565 -0.1925  0.0530
  191POPC  H15B21999   4.379   1.588   5.986 -0.0542 -1.3718 -2.5181
  191POPC  H15C22000   4.221   1.638   6.025 -0.0213  1.5223 -0.4350
  191POPC   C1122001   4.276   1.328   5.884 -0.1613  0.2677 -0.6060
  191POPC  H11A22002   4.374   1.330   5.832  0.1689 -1.0784 -0.0675
  191POPC  H11B22003   4.230   1.233   5.849  0.7629 -0.0219 -1.0638
  191POPC     P22004   4.447   1.324   6.095 -0.3254  0.0974  0.4506
  191POPC   O1322005   4.515   1.444   6.053  0.4391 -0.1305 -0.1826
  191POPC   O1422006   4.511   1.193   6.069 -0.7371  0.1809 -0.0911
  191POPC   O1222007   4.299   1.327   6.028  0.0479 -0.2254  0.3436
  191POPC   O1122008   4.421   1.333   6.248  0.5642  0.4027  0.3515
  191POPC    C122009   4.315   1.262   6.306  0.2957 -0.5062  0.3269
  191POPC    HA22010   4.304   1.164   6.254  2.5536  1.0357 -3.4784
  191POPC    HB22011   4.217   1.310   6.286  0.0289 -1.5213 -0.9866
  191POPC    C222012   4.322   1.251   6.466  0.6721 -0.1913 -0.5449
  191POPC    HS22013   4.217   1.251   6.504 -0.4443 -0.5810 -3.4004
  191POPC   O2122014   4.385   1.377   6.515  0.2218  0.1025 -0.1622
  191POPC   C2122015   4.316   1.487   6.495  0.3809 -0.1351  0.2250
  191POPC   O2222016   4.202   1.496   6.453 -0.2508  0.9262  0.0724
  191POPC   C2222017   4.388   1.620   6.520  0.2721  0.1450 -0.6428
  191POPC   H2R22018   4.385   1.669   6.421 -0.4448  1.9389  0.2243
  191POPC   H2S22019   4.497   1.595   6.523 -0.0755 -1.4122  1.2834
  191POPC    C322020   4.410   1.135   6.519 -0.0479  0.0532  0.3704
  191POPC    HX22021   4.499   1.123   6.454 -0.4558  1.2765 -0.4448
  191POPC    HY22022   4.360   1.038   6.496  2.7161 -1.2793 -0.6231
  191POPC   O3122023   4.448   1.150   6.658  0.1220 -0.4659  0.0931
  191POPC   C3122024   4.570   1.206   6.682  1.0313 -0.3574  0.2929
  191POPC   O3222025   4.646   1.255   6.597  0.0755 -0.2746  0.2953
  191POPC   C3222026   4.592   1.219   6.828 -0.2080  0.7303 -0.5141
  191POPC   H2X22027   4.624   1.118   6.862  0.1713  1.4237  1.3120
  191POPC   H2Y22028   4.505   1.241   6.894  0.8734  2.8911  0.3005
  191POPC   C2322029   4.358   1.697   6.644 -0.2418  0.0989  0.1710
  191POPC   H3R22030   4.386   1.628   6.726  0.4627 -0.9109 -0.8800
  191POPC   H3S22031   4.249   1.717   6.647  0.4310  4.7391  0.5329
  191POPC   C2422032   4.412   1.836   6.637  0.3818 -0.0969 -0.6042
  191POPC   H4R22033   4.373   1.875   6.540 -0.2894 -0.2100 -0.3823
  191POPC   H4S22034   4.523   1.842   6.635  0.3594  0.3548 -0.9499
  191POPC   C2522035   4.357   1.923   6.755 -0.4406  0.1127 -0.5551
  191POPC   H5R22036   4.249   1.949   6.751 -0.6045 -0.3232  0.6908
  191POPC   H5S22037   4.401   2.023   6.733  0.5093 -0.4175 -1.1601
  191POPC   C2622038   4.407   1.864   6.895 -0.4388  0.2820 -0.0270
  191POPC   H6R22039   4.505   1.816   6.872  0.2043  1.5862 -0.0875
  191POPC   H6S22040   4.326   1.792   6.921 -1.5625  0.5455 -2.4899
  191POPC   C2722041   4.435   1.964   7.001  0.5345 -0.2541 -0.1937
  191POPC   H7R22042   4.356   2.042   7.000  0.2448 -0.5536 -1.0900
  191POPC   H7S22043   4.517   2.018   6.950  0.8812 -1.6742 -1.2220
  191POPC   C2822044   4.465   1.905   7.144  0.3364  0.3072  0.0562
  191POPC   H8R22045   4.521   1.812   7.122  0.3971  0.4250 -0.2989
  191POPC   H8S22046   4.369   1.869   7.186  0.7661  1.6129  2.3458
  191POPC   C2922047   4.543   1.989   7.232 -0.0183  0.4612 -0.7849
  191POPC   H9122048   4.635   2.033   7.192  1.5726 -1.3638  0.6478
  191POPC  C21022049   4.508   2.029   7.353 -0.6291  0.1954 -0.2172
  191POPC  H10122050   4.588   2.090   7.395 -1.3295  2.7602 -2.3239
  191POPC  C21122051   4.391   1.978   7.432  0.1923  0.3690  0.3534
  191POPC  H11R22052   4.325   1.910   7.374  0.7801  1.9066 -2.2764
  191POPC  H11S22053   4.319   2.060   7.451 -0.4415 -0.1550  0.2568
  191POPC  C21222054   4.433   1.924   7.573 -0.4253  0.2906  0.0011
  191POPC  H12R22055   4.525   1.865   7.555 -1.1243 -1.2757  1.3365
  191POPC  H12S22056   4.352   1.852   7.598 -0.7922  1.2572  1.7853
  191POPC  C21322057   4.454   2.034   7.682  0.1371  0.1217  0.3390
  191POPC  H13R22058   4.365   2.100   7.693  1.3506  2.2434 -1.5184
  191POPC  H13S22059   4.537   2.103   7.655  0.4245  0.2349  1.4793
  191POPC  C21422060   4.493   1.968   7.820 -0.0375 -0.4942  0.0761
  191POPC  H14R22061   4.591   1.915   7.823 -0.1391 -0.6649  0.4183
  191POPC  H14S22062   4.413   1.895   7.849 -0.2847  0.5830  2.3501
  191POPC  C21522063   4.498   2.067   7.933 -0.6277  0.1409  0.4697
  191POPC  H15R22064   4.395   2.104   7.951  0.1502  1.8042  1.7574
  191POPC  H15S22065   4.558   2.157   7.908  1.1802 -0.9411  0.7998
  191POPC  C21622066   4.549   2.005   8.068  0.0063 -0.1049 -0.2202
  191POPC  H16R22067   4.659   2.019   8.055 -0.2088  2.1590 -0.0601
  191POPC  H16S22068   4.528   1.896   8.078 -1.7453  0.1745 -0.5707
  191POPC  C21722069   4.504   2.071   8.194  0.7841 -0.0641 -0.4369
  191POPC  H17R22070   4.561   2.051   8.287  1.1412  2.6291  0.0180
  191POPC  H17S22071   4.397   2.047   8.213  0.7745  0.9554  0.9517
  191POPC  C21822072   4.510   2.224   8.186 -0.7527 -0.5509 -0.2844
  191POPC  H18R22073   4.618   2.243   8.168 -0.7993 -1.3405 -1.5248
  191POPC  H18S22074   4.484   2.274   8.282 -0.5409  0.5388 -0.7814
  191POPC  H18T22075   4.451   2.257   8.097 -3.5593 -1.8902  0.9473
  191POPC   C3322076   4.698   1.320   6.866  0.1975  0.2088 -0.2309
  191POPC   H3X22077   4.780   1.331   6.792  0.6744  0.7687  0.3703
  191POPC   H3Y22078   4.749   1.288   6.960  0.2295  2.9292  0.7541
  191POPC   C3422079   4.646   1.467   6.888 -0.0744 -0.1386 -0.3368
  191POPC   H4X22080   4.549   1.461   6.943  1.4177  1.4968  2.6762
  191POPC   H4Y22081   4.619   1.505   6.787 -0.8299  0.9065  0.2405
  191POPC   C3522082   4.743   1.561   6.955 -0.2495  0.2263 -0.1706
  191POPC   H5X22083   4.693   1.660   6.944 -1.2632 -0.1805  0.5365
  191POPC   H5Y22084   4.830   1.569   6.887 -0.2346  0.8312 -0.0903
  191POPC   C3622085   4.778   1.528   7.105  0.0587 -0.0207  0.4293
  191POPC   H6X22086   4.851   1.605   7.138  2.2633 -0.3842 -3.0591
  191POPC   H6Y22087   4.848   1.442   7.098 -0.5572 -0.4861 -0.1655
  191POPC   C3722088   4.664   1.488   7.198 -0.3270 -0.7595 -0.0574
  191POPC   H7X22089   4.620   1.403   7.141  2.4353 -1.2229 -1.6650
  191POPC   H7Y22090   4.583   1.560   7.224  1.4103  0.4603  2.3574
  191POPC   C3822091   4.716   1.434   7.333 -0.1728 -1.0028 -0.3944
  191POPC   H8X22092   4.751   1.329   7.316 -0.8721 -1.6276  1.7688
  191POPC   H8Y22093   4.626   1.431   7.398  1.1285 -2.0066  1.4413
  191POPC   C3922094   4.831   1.516   7.397  0.0054 -0.2482 -0.3963
  191POPC   H9X22095   4.805   1.624   7.405  2.7340  0.7449 -3.0978
  191POPC   H9Y22096   4.924   1.516   7.336 -0.6717 -0.2538 -1.4472
  191POPC  C31022097   4.872   1.471   7.539  0.4650  0.2492  0.5509
  191POPC  H10X22098   4.959   1.535   7.565 -1.1104  2.4679  0.6456
  191POPC  H10Y22099   4.909   1.366   7.537  3.1868  1.1526 -0.0133
  191POPC  C31122100   4.762   1.481   7.641 -0.3536  0.0355 -0.4772
  191POPC  H11X22101   4.674   1.427   7.599 -0.3357  0.0822 -0.5743
  191POPC  H11Y22102   4.740   1.590   7.645  0.4175  0.2833 -2.2684
  191POPC  C31222103   4.782   1.412   7.781 -0.2877  0.8568 -0.4450
  191POPC  H12X22104   4.810   1.308   7.752 -1.2409  0.8334 -1.3549
  191POPC  H12Y22105   4.683   1.402   7.831  0.4281 -2.0003  0.6296
  191POPC  C31322106   4.886   1.480   7.865  0.6390  0.3261 -0.1840
  191POPC  H13X22107   4.986   1.479   7.817  0.7258  1.5416 -0.0653
  191POPC  H13Y22108   4.893   1.415   7.954 -0.4393 -0.6216 -0.7541
  191POPC  C31422109   4.846   1.620   7.916  0.0237 -0.2989  0.2244
  191POPC  H14X22110   4.837   1.690   7.830  0.9310  1.4167  1.4680
  191POPC  H14Y22111   4.928   1.657   7.980  1.8140 -2.1249 -0.8818
  191POPC  C31522112   4.709   1.627   7.990 -0.4413  0.1845  0.6337
  191POPC  H15X22113   4.621   1.626   7.923 -1.1474  1.3822  1.5142
  191POPC  H15Y22114   4.699   1.728   8.036 -0.7601  0.5053 -0.1282
  191POPC  C31622115   4.696   1.519   8.098  0.6936  0.1805 -0.1196
  191POPC  H16X22116   4.678   1.419   8.053 -2.6187  0.7885 -0.3364
  191POPC  H16Y22117   4.605   1.542   8.157 -0.9945  1.5141 -3.0017
  191POPC  H16Z22118   4.785   1.490   8.158  0.5169 -1.2699 -0.5127
  192POPC     N22119   4.826   4.023   6.260  0.5221  1.0670 -0.2838
  192POPC   C1222120   4.678   4.044   6.246  0.0128 -0.4475  0.1508
  192POPC  H12A22121   4.635   3.953   6.204  0.5399 -0.6358  0.0174
  192POPC  H12B22122   4.650   4.126   6.182  1.5869  1.5349  1.8958
  192POPC   C1322123   4.849   3.888   6.317  0.7035  0.2983 -0.9281
  192POPC  H13A22124   4.795   3.862   6.406 -0.8460  2.7775 -1.0391
  192POPC  H13B22125   4.821   3.807   6.253  1.8036 -1.0201  0.1954
  192POPC  H13C22126   4.952   3.865   6.341  1.0041  2.3043  0.0096
  192POPC   C1422127   4.900   4.020   6.125 -0.1907 -0.1276  0.2431
  192POPC  H14A22128   4.856   3.959   6.048  0.3416  0.1535 -0.2965
  192POPC  H14B22129   4.904   4.121   6.089 -1.9690 -0.1989 -0.2342
  192POPC  H14C22130   5.002   3.984   6.135 -0.4327 -1.2872 -1.1535
  192POPC   C1522131   4.895   4.126   6.344  1.0475 -0.9035 -0.4897
  192POPC  H15A22132   4.879   4.100   6.448 -1.2627 -3.9281 -1.4674
  192POPC  H15B22133   4.866   4.227   6.319  0.5174 -1.3739 -1.8633
  192POPC  H15C22134   5.003   4.120   6.345  1.0987 -0.9224  2.3812
  192POPC   C1122135   4.599   4.066   6.379  0.2554  0.0674 -0.0610
  192POPC  H11A22136   4.562   4.171   6.385 -1.1186 -0.4701  1.4436
  192POPC  H11B22137   4.663   4.036   6.464 -0.5687 -0.9906  0.1947
  192POPC     P22138   4.469   3.844   6.431 -0.2627  0.5404 -0.2447
  192POPC   O1322139   4.603   3.786   6.434  0.1945 -0.1967  0.1118
  192POPC   O1422140   4.367   3.763   6.362 -0.3624  0.0694 -0.7089
  192POPC   O1222141   4.483   3.986   6.362 -0.1856 -0.0533 -0.4437
  192POPC   O1122142   4.419   3.874   6.573 -0.9527  0.5877 -0.1967
  192POPC    C122143   4.301   3.942   6.602 -0.2090 -0.4560  0.0053
  192POPC    HA22144   4.217   3.887   6.555 -1.4245  0.6458  0.7919
  192POPC    HB22145   4.288   4.045   6.563 -3.0456 -0.9373 -0.5307
  192POPC    C222146   4.288   3.951   6.755  0.8650  0.6243 -0.0088
  192POPC    HS22147   4.193   3.999   6.788 -1.3808 -1.7805 -2.4429
  192POPC   O2122148   4.401   4.011   6.819 -0.0913 -0.2666 -0.0730
  192POPC   C2122149   4.414   4.149   6.810  0.4376  0.1093  0.6448
  192POPC   O2222150   4.327   4.222   6.769  0.0147 -0.1415 -1.0685
  192POPC   C2222151   4.558   4.193   6.836 -0.0256 -0.3153  0.2882
  192POPC   H2R22152   4.571   4.302   6.819  0.0725 -0.5115 -0.9965
  192POPC   H2S22153   4.611   4.135   6.757  1.3022 -0.0495  0.9628
  192POPC    C322154   4.267   3.808   6.816  0.3624 -0.7243  0.2616
  192POPC    HX22155   4.354   3.751   6.777  1.3174  0.2370  0.9046
  192POPC    HY22156   4.175   3.766   6.773 -0.5276  1.1870  0.1806
  192POPC   O3122157   4.254   3.808   6.957 -0.5921 -0.1105  0.6840
  192POPC   C3122158   4.362   3.782   7.037 -0.2899 -0.0527  0.3058
  192POPC   O3222159   4.482   3.769   7.001  0.4794  0.0226 -0.2979
  192POPC   C3222160   4.311   3.785   7.177  0.8197  0.8241  0.5293
  192POPC   H2X22161   4.233   3.707   7.184 -0.6505  2.2241  0.3374
  192POPC   H2Y22162   4.254   3.879   7.190 -0.3286  0.6994 -2.5899
  192POPC   C2322163   4.608   4.160   6.973  0.0248 -0.0209  0.7197
  192POPC   H3R22164   4.719   4.165   6.976  0.0760 -0.0994 -0.5021
  192POPC   H3S22165   4.584   4.052   6.985 -2.1854  0.4073  0.5502
  192POPC   C2422166   4.542   4.243   7.075  0.4574 -0.6542 -0.0856
  192POPC   H4R22167   4.434   4.239   7.102  0.2949  0.8557 -0.4034
  192POPC   H4S22168   4.544   4.344   7.029  1.1920 -0.5972  0.0551
  192POPC   C2522169   4.633   4.273   7.192  0.3247  0.7855 -0.0721
  192POPC   H5R22170   4.591   4.363   7.243 -0.0610  0.7442 -0.3111
  192POPC   H5S22171   4.735   4.288   7.150 -0.0564 -0.6520 -1.6036
  192POPC   C2622172   4.641   4.155   7.285 -0.0955 -0.0183  0.1276
  192POPC   H6R22173   4.727   4.173   7.353 -1.0749  3.9632  0.5551
  192POPC   H6S22174   4.661   4.065   7.222  0.6554  0.1906  0.0552
  192POPC   C2722175   4.522   4.137   7.376 -0.3485 -0.2902 -0.6760
  192POPC   H7R22176   4.529   4.045   7.438  2.5878  0.5729  0.4305
  192POPC   H7S22177   4.426   4.133   7.320 -0.0429 -0.3382 -1.2050
  192POPC   C2822178   4.500   4.236   7.490  0.2572 -0.0859  0.5223
  192POPC   H8R22179   4.410   4.208   7.548  0.6176  0.7509  1.5087
  192POPC   H8S22180   4.482   4.334   7.440  0.8560  0.7883  1.9530
  192POPC   C2922181   4.620   4.254   7.585  0.4887 -0.1874 -0.0560
  192POPC   H9122182   4.700   4.317   7.543  0.1576 -0.2304 -0.7663
  192POPC  C21022183   4.635   4.192   7.699 -0.6249  0.3649  0.2523
  192POPC  H10122184   4.723   4.209   7.762 -0.4838  1.4473 -0.2264
  192POPC  C21122185   4.548   4.099   7.776  0.0622  0.5410  0.8689
  192POPC  H11R22186   4.566   3.993   7.749 -0.7621  0.4825  0.5057
  192POPC  H11S22187   4.447   4.121   7.734  0.6711  1.7292 -0.0327
  192POPC  C21222188   4.571   4.118   7.925 -0.2240 -0.3767  0.0485
  192POPC  H12R22189   4.566   4.225   7.955 -2.8890 -0.5264  0.4103
  192POPC  H12S22190   4.674   4.084   7.948 -0.7099 -1.6543  0.3900
  192POPC  C21322191   4.464   4.035   8.002 -0.5617  0.5311 -0.2208
  192POPC  H13R22192   4.467   3.930   7.964  0.0950 -0.2064  1.7356
  192POPC  H13S22193   4.374   4.086   7.962  0.1773  1.1473 -1.1290
  192POPC  C21422194   4.485   4.044   8.153  0.4283  0.0479 -0.6250
  192POPC  H14R22195   4.547   3.962   8.195  0.3486  1.5467  2.7241
  192POPC  H14S22196   4.379   4.034   8.184  0.0376  0.7275 -1.6784
  192POPC  C21522197   4.529   4.178   8.223 -1.1087  0.4263 -0.4123
  192POPC  H15R22198   4.458   4.258   8.194 -0.3440  2.1671  2.1930
  192POPC  H15S22199   4.623   4.214   8.175 -2.5205  1.7200 -2.3665
  192POPC  C21622200   4.533   4.160   8.379  0.4013  0.2591  0.0344
  192POPC  H16R22201   4.581   4.061   8.393  0.7747 -0.0030 -2.6341
  192POPC  H16S22202   4.428   4.155   8.415  0.4828 -0.9894  0.1431
  192POPC  C21722203   4.601   4.273   8.462 -0.2290  0.3613 -0.7690
  192POPC  H17R22204   4.542   4.365   8.440  0.0398  0.9377  0.8414
  192POPC  H17S22205   4.708   4.274   8.434  0.0092 -1.9948 -0.1211
  192POPC  C21822206   4.599   4.247   8.609  0.1944 -0.2987 -0.1468
  192POPC  H18R22207   4.659   4.329   8.654  0.0559 -0.5280  0.4674
  192POPC  H18S22208   4.658   4.154   8.618  0.8749  0.0178 -1.1461
  192POPC  H18T22209   4.500   4.238   8.659  0.2365 -0.1575 -0.0367
  192POPC   C3322210   4.415   3.763   7.288 -0.3545 -0.0729  0.3296
  192POPC   H3X22211   4.497   3.837   7.277 -0.2740 -0.1935  0.1216
  192POPC   H3Y22212   4.457   3.661   7.278  1.1474  0.6247 -0.7371
  192POPC   C3422213   4.351   3.774   7.425  0.7983 -0.3189 -0.5725
  192POPC   H4X22214   4.263   3.707   7.428  0.2586  0.3604 -1.1497
  192POPC   H4Y22215   4.316   3.875   7.454  2.4897  0.4159 -0.9390
  192POPC   C3522216   4.442   3.726   7.541  0.6439 -0.1857 -0.0038
  192POPC   H5X22217   4.539   3.778   7.531  0.8783 -0.5650  0.2673
  192POPC   H5Y22218   4.468   3.621   7.518  2.5093  0.3061 -0.3015
  192POPC   C3622219   4.383   3.726   7.680  0.0163 -0.2429 -1.1360
  192POPC   H6X22220   4.286   3.673   7.688  0.1177 -0.6011 -2.1010
  192POPC   H6Y22221   4.360   3.832   7.705 -2.0211 -0.7831 -0.5372
  192POPC   C3722222   4.488   3.688   7.790 -0.3198 -0.3693 -0.4395
  192POPC   H7X22223   4.567   3.766   7.790 -1.4184  0.7857  0.5515
  192POPC   H7Y22224   4.536   3.592   7.761 -2.3663 -1.9810  1.1889
  192POPC   C3822225   4.425   3.665   7.928  0.3631 -0.1445 -0.9281
  192POPC   H8X22226   4.351   3.581   7.930  1.4236 -1.0920 -0.3257
  192POPC   H8Y22227   4.362   3.751   7.957  0.6742  0.2431 -1.3949
  192POPC   C3922228   4.542   3.652   8.025  0.8029 -0.2793  0.6318
  192POPC   H9X22229   4.596   3.749   8.015  1.6661 -0.9596 -1.8657
  192POPC   H9Y22230   4.604   3.573   7.978 -0.5694  0.2512 -2.2784
  192POPC  C31022231   4.491   3.618   8.165 -0.3352  0.2154  0.3654
  192POPC  H10X22232   4.437   3.520   8.168 -2.5415  1.3845  0.6683
  192POPC  H10Y22233   4.424   3.696   8.207 -1.5029 -0.7725  0.3768
  192POPC  C31122234   4.605   3.595   8.266  0.0946 -0.7610 -0.1033
  192POPC  H11X22235   4.680   3.520   8.235  0.7779 -0.3416  0.4712
  192POPC  H11Y22236   4.570   3.557   8.364  0.7902  2.2889  1.4902
  192POPC  C31222237   4.697   3.720   8.289 -0.3611  0.2262  0.6424
  192POPC  H12X22238   4.628   3.806   8.304 -1.4453 -0.5397  0.2115
  192POPC  H12Y22239   4.763   3.733   8.201 -0.5786 -1.3575  0.2038
  192POPC  C31322240   4.779   3.698   8.408 -0.3215 -0.1571 -0.5409
  192POPC  H13X22241   4.822   3.595   8.401 -4.4768 -2.3073  1.6110
  192POPC  H13Y22242   4.719   3.690   8.501 -1.3378 -2.3902 -1.3114
  192POPC  C31422243   4.880   3.819   8.427 -0.4450  0.2424 -0.0399
  192POPC  H14X22244   4.809   3.904   8.415  1.9090  2.2159 -0.6767
  192POPC  H14Y22245   4.958   3.819   8.348 -0.0107  1.4923  0.3688
  192POPC  C31522246   4.962   3.821   8.556  0.4084 -1.0018 -0.9330
  192POPC  H15X22247   5.020   3.727   8.563  1.9579 -0.0833 -0.8960
  192POPC  H15Y22248   4.903   3.839   8.648  0.1623  2.2093 -1.5768
  192POPC  C31622249   5.058   3.938   8.543 -0.0037  0.1771  0.4636
  192POPC  H16X22250   5.113   3.915   8.449  1.9627  1.0255  1.3478
  192POPC  H16Y22251   5.130   3.936   8.627 -0.0669 -2.5533  0.5531
  192POPC  H16Z22252   5.003   4.033   8.526 -0.8882 -0.2401  0.9131
  193SOD    SOD22253   3.983   4.072  16.009  0.2578 -0.7244 -0.2119
  194SOD    SOD22254   2.630   6.653   2.365 -0.1214  0.5786 -0.2567
  195SOD    SOD22255   6.193   3.188  16.751 -0.3326 -0.4096 -0.0857
  196SOD    SOD22256   1.655   0.011   6.277 -0.1305  0.1931  0.4690
  197SOD    SOD22257   5.633   5.540  10.859  0.1178  0.2075  0.3684
  198SOD    SOD22258   2.487   3.974  16.268 -0.1140 -0.3826 -0.4359
  199SOD    SOD22259   4.501   2.131  14.262  0.2595  0.0328 -0.1369
  200SOD    SOD22260   3.068   3.626  11.437  0.1755 -0.2608  0.0405
  201SOD    SOD22261   0.870   6.442  17.069  0.1284  0.0677 -0.0815
  202SOD    SOD22262   2.897   0.387  12.813 -0.1678  0.4032  0.0664
  203SOD    SOD22263   2.905   0.269  17.013  0.5073 -0.2602  0.3961
  204SOD    SOD22264   0.730   0.940   6.076 -0.2023 -0.1323  0.0907
  205SOD    SOD22265   3.737   2.734  14.041  0.2672  0.2459 -0.4876
  206SOD    SOD22266   4.732   4.989  16.474 -0.2775 -0.1799  0.3439
  207SOD    SOD22267   1.357   1.332   4.506 -0.0488  0.0443 -0.2901
  208SOD    SOD22268   3.427   0.941   6.591  0.3133  0.0018  0.2418
  209SOD    SOD22269   0.112   4.616   1.177  0.5024 -0.6868  0.3224
  210SOD    SOD22270   6.272   1.562   0.012 -0.7657 -0.3683  0.0500
  211SOD    SOD22271   1.055   3.250   1.264  0.1403  0.0757  0.4286
  212SOD    SOD22272   5.949   4.325  11.309  0.1437  0.1505  0.1272
  213SOD    SOD22273   4.459   5.505   3.100 -0.3003  0.0137  0.1849
  214SOD    SOD22274   1.718   5.670   6.094  0.5695  0.0947  0.3088
  215SOD    SOD22275   6.165   2.597  11.043  0.1052  0.5424  0.2167
  216SOD    SOD22276   6.227   2.580  16.706 -0.4260 -0.2062 -0.0042
  217SOD    SOD22277   0.115   1.584   3.836 -0.1476  0.3890 -0.4983
  218SOD    SOD22278   5.719   5.062  12.442 -0.4653  0.0459 -0.5683
  219SOD    SOD22279   4.989   0.507   4.707  0.6125 -0.1841 -0.1365
  220SOD    SOD22280   1.641   4.415   1.398  0.2387  0.1339 -0.1472
  221SOD    SOD22281   1.130   4.494  14.065  0.3656 -0.1018 -0.4769
  222SOD    SOD22282   3.503   5.086  15.060  0.4991  0.1830 -0.6547
  223SOD    SOD22283   1.945   5.355  15.622 -0.3259 -0.1314  0.2326
  224SOD    SOD22284   6.118   5.545   3.451  0.0486 -0.4467  0.2921
  225SOD    SOD22285   3.320   5.270  11.580 -0.5831  0.2304  0.0373
  226SOD    SOD22286   2.211   1.423  15.557  0.3196  0.1365 -0.3584
  227SOD    SOD22287   3.918   3.624  14.442  0.0321  0.0795  0.5104
  228SOD    SOD22288   5.046   2.554   3.759 -0.0659  0.4218 -0.2189
  229SOD    SOD22289   4.619   5.265   1.142  0.2371 -0.2314 -0.0934
  230SOD    SOD22290   3.114   0.308  15.902 -0.2313  0.1290 -0.1088
  231SOD    SOD22291   2.703   5.221   4.094  0.2846  0.1005  0.9585
  232SOD    SOD22292   1.389   0.645   2.659 -0.3267 -0.4629  0.2089
  233SOD    SOD22293   1.159   6.645   5.701  0.5068 -0.2545  0.1118
  234SOD    SOD22294   5.617   0.973  10.490  0.1301 -0.2758 -0.6313
  235SOD    SOD22295   1.765   3.497  11.098  0.3999 -0.5811  0.2491
  236SOD    SOD22296   5.162   4.575   5.088  0.5702 -0.1091 -0.4158
  237SOD    SOD22297   4.935   3.401   0.280  0.1453  0.4825  0.1103
  238SOD    SOD22298   0.717   6.698  15.085 -0.0595  0.1603  0.5620
  239SOD    SOD22299   6.231   6.371   0.168 -0.4174 -0.1651 -0.6942
  240SOD    SOD22300   4.326   2.414  15.082  0.1512 -0.1663 -0.3399
  241SOD    SOD22301   2.514   0.661   6.232  0.0351  0.3429 -0.0874
  242SOD    SOD22302   5.730   2.759  10.679 -0.0752 -0.0940  0.0033
  243SOD    SOD22303   2.008   5.664  12.286 -0.0723  0.4268 -0.5732
  244SOD    SOD22304   6.743   2.460   0.484 -0.4709  0.3387  0.1562
  245SOD    SOD22305   0.712   0.197   6.156  0.4281  0.0353  0.4180
  246SOD    SOD22306   3.443   4.917  10.681 -0.4774  0.1712 -0.0470
  247SOD    SOD22307   0.207   1.116  10.786  0.4194 -0.3233  0.7534
  248SOD    SOD22308   4.886   1.573   5.256 -0.4084 -0.0274 -0.1613
  249SOD    SOD22309   3.196   2.212   5.679 -0.2869 -0.5173 -0.2874
  250SOD    SOD22310   5.264   1.744   5.164 -0.3226  0.0954 -0.0563
  251SOD    SOD22311   6.491   6.405   2.516 -0.1238  0.1843 -0.2886
  252SOD    SOD22312   5.920   5.774  15.346  0.0317  0.1816  0.0378
  253SOD    SOD22313   1.650   6.678  15.824  0.0989 -0.0800 -0.0856
  254SOD    SOD22314   5.092   2.030  16.708  0.3574  0.7168  0.2643
  255SOD    SOD22315   3.359   5.062   3.081  0.6809 -0.2391 -0.2930
  256SOD    SOD22316   4.586   4.956  15.041 -0.2560 -0.9094 -0.1292
  257SOD    SOD22317   0.310   1.880  12.986  0.0154 -0.4767  0.4595
  258SOD    SOD22318   0.517   0.529  15.868  0.1211  0.3958  0.4612
  259SOD    SOD22319   1.642   0.930  12.296 -0.2128 -0.2069  0.3296
  260SOD    SOD22320   4.106   3.500   5.813  0.5687 -0.3811  0.0263
  261SOD    SOD22321   1.020   5.240   6.216 -0.3261  0.2528  0.5087
  262SOD    SOD22322   1.689   3.547   6.019  0.0111 -0.0914 -0.3375
  263SOD    SOD22323   3.510   3.672   1.991 -0.2386 -0.0524  0.0138
  264SOD    SOD22324   3.220   5.243  13.037  0.1763 -0.0034  0.0382
  265SOD    SOD22325   5.353   1.383  15.868 -0.1430  0.0504  0.1957
  266SOD    SOD22326   6.375   3.249  13.988  0.0181  0.4382  0.3512
  267SOD    SOD22327   6.037   3.094   5.854 -0.5411 -0.0212  0.2454
  268SOD    SOD22328   5.015   4.407   2.826 -0.0504  0.3296 -0.7207
  269SOD    SOD22329   3.088   2.589  12.978  0.2305  0.0764 -0.3062
  270CLA    CLA22330   0.840   0.677   5.194 -0.1776 -0.0780  0.5536
  271CLA    CLA22331   1.637   4.746   2.648 -0.5708  0.1330  0.0097
  272CLA    CLA22332   5.010   1.208  12.114 -0.3965  0.0666  0.1185
  273CLA    CLA22333   0.210   3.348   2.208 -0.1589  0.3001  0.0152
  274CLA    CLA22334   5.432   1.690  16.441 -0.0927 -0.1255  0.0015
  275CLA    CLA22335   3.429   4.793   1.828  0.0785  0.0913  0.2799
  276CLA    CLA22336   6.235   0.234  16.700 -0.2433  0.4384  0.4009
  277CLA    CLA22337   1.517   3.135   0.316  0.3544  0.0488 -0.0434
  278CLA    CLA22338   1.740   0.506   1.080  0.1596  0.1256 -0.2866
  279CLA    CLA22339   4.109   2.838  14.291  0.3772 -0.5576  0.0730
  280CLA    CLA22340   5.602   2.109   3.534 -0.1577 -0.2145  0.0020
  281CLA    CLA22341   6.780   6.029  16.408  0.1028 -0.2447 -0.0733
  282CLA    CLA22342   1.981   5.731   5.620 -0.0318  0.0086 -0.0587
  283CLA    CLA22343   0.301   6.204   3.419  0.1823  0.2649 -0.3829
  284CLA    CLA22344   1.954   4.357   3.856 -0.1007 -0.1590  0.1698
  285CLA    CLA22345   4.723   2.138   1.595 -0.3142  0.0206  0.2618
  286CLA    CLA22346   0.012   5.248  14.907 -0.0520  0.1961 -0.4478
  287CLA    CLA22347   0.259   3.731   4.956  0.4514  0.1047 -0.2699
  288CLA    CLA22348   4.392   5.358  15.868 -0.3605 -0.2219  0.5879
  289CLA    CLA22349   5.312   4.843   2.918 -0.2718 -0.7070 -0.4519
  290CLA    CLA22350   6.489   5.660  12.166  0.3147  0.1259 -0.0653
  291CLA    CLA22351   0.199   1.564  14.804 -0.0959  0.0785  0.0585
  292CLA    CLA22352   1.424   0.215   2.351  0.2468  0.1742  0.2584
  293CLA    CLA22353   3.725   6.243   1.970  0.2323 -0.1542 -0.0904
  294CLA    CLA22354   0.495   2.419  16.452  0.1315 -0.0608 -0.0924
  295CLA    CLA22355   4.837   0.269  12.334  0.4180  0.0551  0.1141
  296CLA    CLA22356   2.737   2.199   4.194  0.0611  0.3627  0.0521
  297CLA    CLA22357   3.615   2.839  14.914 -0.0303  0.1852  0.2612
  298CLA    CLA22358   2.674   0.424  14.188  0.0080 -0.3027  0.1276
  299CLA    CLA22359   3.565   6.064  12.173 -0.9356  0.3443 -0.0699
  300CLA    CLA22360   4.490   3.329  15.052  0.1656 -0.0793  0.1471
  301CLA    CLA22361   0.136   3.508  13.938 -0.3300 -0.0114  0.1295
  302CLA    CLA22362   5.501   3.784   0.300 -0.2123  0.0195  0.1387
  303CLA    CLA22363   2.806   4.410  14.661  0.2593 -0.3124 -0.2213
  304CLA    CLA22364   4.640   5.753  16.421  0.3282 -0.0786  0.1638
  305CLA    CLA22365   3.502   1.729   0.402  0.3198  0.0363 -0.0297
  306CLA    CLA22366   6.438   6.544   0.657  0.0695  0.0683 -0.1648
  307CLA    CLA22367   4.340   6.305  14.294  0.4595 -0.3161 -0.6965
  308CLA    CLA22368   2.413   3.635   1.773 -0.0336 -0.3029 -0.0398
  309CLA    CLA22369   0.719   5.908   5.637 -0.3286  0.4838  0.5838
  310CLA    CLA22370   4.387   1.339  16.194  0.2576 -0.2715  0.1364
  311CLA    CLA22371   4.610   0.209  15.818 -0.1387  0.0679  0.1224
  312CLA    CLA22372   6.676   1.589  12.134  0.2822 -0.3183 -0.2387
  313CLA    CLA22373   2.063   0.377   3.479 -0.0536  0.5020 -0.0456
  314CLA    CLA22374   3.314   4.644   3.343  0.3051  0.0909  0.1831
  315CLA    CLA22375   4.256   1.027   0.443  0.1892 -0.1017 -0.0643
  316CLA    CLA22376   4.347   1.138   4.197 -0.0522 -0.7757  0.2430
  317CLA    CLA22377   2.868   4.324  16.326  0.1590 -0.1070  0.2630
  318CLA    CLA22378   5.936   5.066   0.498 -0.2246  0.0780  0.0945
  319CLA    CLA22379   2.700   0.229  16.188 -0.0104  0.0478  0.0640
  320CLA    CLA22380   0.735   1.606   4.655 -0.1956 -0.4212 -0.3591
  321CLA    CLA22381   5.617   3.191  13.834 -0.1774  0.2589 -0.3267
  322CLA    CLA22382   0.799   3.380  13.590 -0.0538  0.3538 -0.0060
  323TIP3   OH222383   2.820   1.442   1.964 -0.2220  0.5845 -0.0566
  323TIP3    H122384   2.877   1.519   1.975 -1.3713  1.2878  1.3101
  323TIP3    H222385   2.823   1.398   2.049 -0.9358  0.0666 -0.2946
  324TIP3   OH222386   3.134   6.627   0.665 -0.1718 -0.3621 -0.2859
  324TIP3    H122387   3.178   6.623   0.580  0.4962 -1.4775  0.0773
  324TIP3    H222388   3.046   6.659   0.645 -0.4778 -1.8712 -1.6075
  325TIP3   OH222389   3.637   1.512  10.742 -0.1393 -0.1641  0.4007
  325TIP3    H122390   3.563   1.541  10.688 -0.1018  0.9371  0.9127
  325TIP3    H222391   3.706   1.493  10.678 -0.3549  0.3499  0.0025
  326TIP3   OH222392   5.487   5.752  13.956  0.0017 -0.4294  0.1504
  326TIP3    H122393   5.576   5.735  13.986  0.4479  1.2721 -0.1636
  326TIP3    H222394   5.497   5.805  13.877 -1.2775  1.8972  1.4448
  327TIP3   OH222395   5.161   2.960   3.336  0.2048  0.0529 -0.3192
  327TIP3    H122396   5.226   2.904   3.379  0.8929  0.2226 -1.1026
  327TIP3    H222397   5.174   3.046   3.376  2.8777  0.9601 -2.7703
  328TIP3   OH222398   0.412   2.243   2.027 -0.2470 -0.0355  0.6895
  328TIP3    H122399   0.480   2.233   2.093  0.3821  0.8457  0.1876
  328TIP3    H222400   0.330   2.243   2.077  0.0919 -1.1940  1.2891
  329TIP3   OH222401   1.209   4.189   3.929  0.2353 -0.4574 -0.3784
  329TIP3    H122402   1.170   4.243   3.997 -0.1816  0.2009 -1.1235
  329TIP3    H222403   1.301   4.217   3.924 -0.0184  0.3258 -0.8784
  330TIP3   OH222404   2.916   2.333  16.232 -0.3530  0.1917  0.1557
  330TIP3    H122405   2.856   2.406  16.220 -0.7177 -0.0271  0.6244
  330TIP3    H222406   2.891   2.295  16.316  1.2267  0.8453  0.9733
  331TIP3   OH222407   1.885   2.074  16.604  0.1412  0.3275  0.2050
  331TIP3    H122408   1.979   2.063  16.622  0.3277  1.6655  0.1224
  331TIP3    H222409   1.879   2.075  16.509 -0.1096 -0.8702  0.1973
  332TIP3   OH222410   6.088   4.854   5.946  0.3399  0.4193 -0.2187
  332TIP3    H122411   6.104   4.762   5.967 -0.9638 -0.0230 -1.0436
  332TIP3    H222412   6.107   4.901   6.027 -1.8108 -0.9191  1.1742
  333TIP3   OH222413   1.572   1.461  17.041  0.1024  0.4593 -0.0722
  333TIP3    H122414   1.603   1.552  17.047 -2.0267  1.2151  0.4413
  333TIP3    H222415   1.526   1.447  17.124 -0.1550 -0.8674 -0.4237
  334TIP3   OH222416   6.126   2.150   4.546  0.3915  0.3164  0.0355
  334TIP3    H122417   6.103   2.210   4.475  0.5431 -0.9625 -1.1381
  334TIP3    H222418   6.055   2.160   4.610 -0.1545  0.9305 -0.6487
  335TIP3   OH222419   2.117   2.581  12.631  0.0224  0.0244  0.2261
  335TIP3    H122420   2.081   2.669  12.624 -2.2923 -0.9780 -3.4460
  335TIP3    H222421   2.211   2.594  12.640 -0.2917  2.8537  0.2251
  336TIP3   OH222422   0.131   1.599  15.580  0.3676  0.4509  0.5321
  336TIP3    H122423   0.125   1.571  15.488  1.3969 -1.2201  0.9219
  336TIP3    H222424   0.124   1.694  15.577 -0.8728  0.3493 -1.1532
  337TIP3   OH222425   0.905   5.773  15.077 -0.2542 -0.4031 -0.1789
  337TIP3    H122426   0.878   5.850  15.127  0.3276 -1.8852  2.6574
  337TIP3    H222427   0.991   5.750  15.113 -0.8262 -2.9204 -0.2063
  338TIP3   OH222428   3.730   6.074  13.782  0.0652  0.1323  0.2731
  338TIP3    H122429   3.713   6.164  13.811 -0.5258  0.0460  0.2073
  338TIP3    H222430   3.741   6.081  13.687 -3.2867 -0.2639 -0.2794
  339TIP3   OH222431   4.141   1.523  11.144 -0.1099  0.1913  0.4274
  339TIP3    H122432   4.200   1.549  11.215 -0.0966  2.4307 -0.3271
  339TIP3    H222433   4.056   1.511  11.187 -0.2333  2.0905  0.7875
  340TIP3   OH222434   6.653   5.475   5.182 -0.3863 -0.3813  0.4009
  340TIP3    H122435   6.740   5.460   5.146  0.1656  0.3243  1.3804
  340TIP3    H222436   6.655   5.432   5.268 -0.6296  0.5475  0.8859
  341TIP3   OH222437   4.664   5.031  12.832 -0.2408 -0.8705  0.0396
  341TIP3    H122438   4.742   4.997  12.786  1.6028 -0.1310  2.4114
  341TIP3    H222439   4.688   5.120  12.856 -2.8619  0.2888 -1.2579
  342TIP3   OH222440   0.753   5.970  16.653  0.2583 -0.1838 -0.1445
  342TIP3    H122441   0.781   6.056  16.683 -2.0510  0.6642 -0.2071
  342TIP3    H222442   0.721   5.986  16.564 -2.9802 -0.3989  0.8636
  343TIP3   OH222443   0.360   1.128  14.215  0.4240 -0.2409  0.7739
  343TIP3    H122444   0.286   1.069  14.201  0.7867 -0.3131 -1.0099
  343TIP3    H222445   0.419   1.080  14.273  0.4556 -1.4326 -0.2071
  344TIP3   OH222446   1.412   0.842  12.222 -0.3746 -0.3271 -0.7050
  344TIP3    H122447   1.445   0.798  12.144  1.9648  1.4515 -0.8337
  344TIP3    H222448   1.317   0.828  12.220 -0.0653 -2.8387 -2.2107
  345TIP3   OH222449   3.793   5.110  14.453  0.2899  0.3318 -0.0544
  345TIP3    H122450   3.743   5.158  14.386  0.9134 -0.7537 -1.3416
  345TIP3    H222451   3.881   5.146  14.447  0.2237  0.6166  0.5986
  346TIP3   OH222452   6.679   4.895   6.241  0.5494 -0.2740  0.4413
  346TIP3    H122453   6.696   4.813   6.195  0.1122  0.1116 -0.4235
  346TIP3    H222454   6.722   4.884   6.326  1.6525 -0.8701 -0.1665
  347TIP3   OH222455   1.704   2.289  14.479 -0.1574  0.0586  0.2635
  347TIP3    H122456   1.680   2.312  14.569  1.2580  1.2063  0.3923
  347TIP3    H222457   1.773   2.224  14.489  1.1187  1.3339  0.0851
  348TIP3   OH222458   5.953   4.940  12.792  0.4974 -0.5452 -0.2355
  348TIP3    H122459   5.958   4.893  12.875 -1.6902 -2.4176 -1.0607
  348TIP3    H222460   6.039   4.928  12.753  1.5909  0.4209  1.7187
  349TIP3   OH222461   3.136   4.723  12.850  0.1973 -0.0288  0.7425
  349TIP3    H122462   3.122   4.651  12.789  0.2293  0.7332 -0.1951
  349TIP3    H222463   3.231   4.731  12.857  0.2771 -2.0982  3.3488
  350TIP3   OH222464   6.693   1.172   5.482 -0.0865  0.2138  0.2576
  350TIP3    H122465   6.717   1.245   5.425  0.4474  0.3827  0.6898
  350TIP3    H222466   6.759   1.173   5.551 -0.4343 -0.2986  0.6041
  351TIP3   OH222467   0.161   0.297  11.529 -0.2315 -0.2613  0.1535
  351TIP3    H122468   0.190   0.386  11.506 -0.9844 -0.3053 -1.0775
  351TIP3    H222469   0.071   0.293  11.498 -1.3249 -0.4177  3.0451
  352TIP3   OH222470   2.834   5.712  15.048 -0.4418 -0.2380 -0.0385
  352TIP3    H122471   2.859   5.731  14.958  2.6305  1.0745  0.9749
  352TIP3    H222472   2.853   5.618  15.058 -0.8559 -0.4080 -0.7371
  353TIP3   OH222473   4.838   5.705  14.133 -0.3073 -0.0153 -0.3781
  353TIP3    H122474   4.884   5.752  14.064 -0.7730 -0.8635 -1.2881
  353TIP3    H222475   4.907   5.655  14.178  0.0941  1.0250  0.2100
  354TIP3   OH222476   5.822   4.253  14.792 -0.5520 -0.0000 -0.0088
  354TIP3    H122477   5.732   4.240  14.760 -0.2853  1.0691 -1.2955
  354TIP3    H222478   5.843   4.343  14.767  1.7573 -1.0107 -2.0933
  355TIP3   OH222479   4.815   2.098   3.079 -0.0700 -0.1543  0.7773
  355TIP3    H122480   4.727   2.127   3.056  0.4204  0.6083 -0.2357
  355TIP3    H222481   4.847   2.165   3.138 -0.6463 -1.1439  2.2573
  356TIP3   OH222482   0.968   1.118  11.245 -0.0676  0.4507  0.3056
  356TIP3    H122483   0.890   1.171  11.263  0.3420  0.6268  1.7511
  356TIP3    H222484   1.024   1.175  11.192 -1.2685 -0.0099 -1.5381
  357TIP3   OH222485   4.546   0.437  16.755 -0.4719 -0.2146 -0.3811
  357TIP3    H122486   4.606   0.493  16.804  0.7408 -1.4333 -0.4042
  357TIP3    H222487   4.599   0.360  16.732 -2.2361 -1.6820  0.2298
  358TIP3   OH222488   0.377   4.779  14.387 -0.0786  0.0849  0.0210
  358TIP3    H122489   0.462   4.804  14.424  0.5047 -1.0928 -0.4716
  358TIP3    H222490   0.395   4.762  14.294 -1.0795  0.8724 -0.3301
  359TIP3   OH222491   3.472   2.956   0.829  0.0796  0.7278 -0.5522
  359TIP3    H122492   3.481   3.027   0.892 -1.2959  0.3910  0.0640
  359TIP3    H222493   3.542   2.895   0.850 -0.3822  0.6025  0.6993
  360TIP3   OH222494   4.396   5.481  14.007 -0.0202  0.2767  0.1788
  360TIP3    H122495   4.392   5.418  13.935 -0.8615  2.2985 -1.6626
  360TIP3    H222496   4.488   5.508  14.010  0.1267 -0.2289  0.2265
  361TIP3   OH222497   5.425   1.515  16.038  0.5826 -0.1681 -0.4234
  361TIP3    H122498   5.356   1.538  16.100 -1.1221 -1.2923 -1.8106
  361TIP3    H222499   5.429   1.590  15.977 -0.0959 -0.5079 -0.8934
  362TIP3   OH222500   1.190   6.021  15.880 -0.7877  0.7369  0.0688
  362TIP3    H122501   1.234   6.016  15.795  0.2973 -1.8992  0.7177
  362TIP3    H222502   1.099   6.044  15.858 -0.6837 -0.4996 -1.8849
  363TIP3   OH222503   0.637   5.538   2.207 -0.5150 -0.3723  0.2258
  363TIP3    H122504   0.676   5.458   2.241  0.5439 -0.0678 -0.2259
  363TIP3    H222505   0.546   5.535   2.235  0.2399 -0.2273  2.9134
  364TIP3   OH222506   6.377   2.108  14.580  0.3847 -0.4744 -0.3268
  364TIP3    H122507   6.465   2.071  14.570  0.6753  0.2831 -0.6517
  364TIP3    H222508   6.373   2.179  14.517  0.0458  0.4287  0.6728
  365TIP3   OH222509   1.923   3.539   1.296 -0.0061 -0.3777 -0.2680
  365TIP3    H122510   1.892   3.607   1.237 -0.3104 -0.2213  0.0691
  365TIP3    H222511   1.988   3.490   1.245  0.0786  0.0480 -0.5708
  366TIP3   OH222512   5.973   6.092   3.562  0.7489 -0.2161  0.5800
  366TIP3    H122513   5.931   6.050   3.637 -0.8740 -1.2381 -0.8328
  366TIP3    H222514   6.054   6.043   3.550  0.5338 -0.7084  1.0555
  367TIP3   OH222515   5.795   4.377  10.657 -0.3053 -0.3763  0.1296
  367TIP3    H122516   5.851   4.396  10.582  0.9992 -1.0669  0.8813
  367TIP3    H222517   5.795   4.458  10.708  0.6473 -0.5983  0.5009
  368TIP3   OH222518   4.028   5.998  17.059  0.3938 -0.0323  0.0461
  368TIP3    H122519   4.051   5.907  17.042  2.6786  0.3697  0.5870
  368TIP3    H222520   4.039   6.008  17.153 -0.3247  0.7014  0.0637
  369TIP3   OH222521   0.740   5.133  15.079  0.6491 -0.5838  0.2833
  369TIP3    H122522   0.772   5.045  15.101  0.1301 -0.4212  1.8085
  369TIP3    H222523   0.647   5.122  15.061  0.9475 -0.6172 -1.4380
  370TIP3   OH222524   3.234   5.350   0.690 -0.3340 -0.5684 -0.8486
  370TIP3    H122525   3.295   5.421   0.673  0.1624 -1.1176 -1.3803
  370TIP3    H222526   3.192   5.374   0.773  1.3524 -0.6874  0.0845
  371TIP3   OH222527   4.865   6.182   1.309 -0.2604 -0.0125  0.0692
  371TIP3    H122528   4.925   6.247   1.345 -0.5127 -0.8610  2.1498
  371TIP3    H222529   4.917   6.133   1.246  0.0808  1.8014 -1.1291
  372TIP3   OH222530   6.441   1.043  14.887  0.1017  0.2846  0.3871
  372TIP3    H122531   6.377   1.044  14.815 -0.0068  0.9384  0.4872
  372TIP3    H222532   6.443   0.952  14.916  0.4930 -0.0901 -0.7519
  373TIP3   OH222533   2.497   4.612  13.846  0.0976  0.2577 -0.6683
  373TIP3    H122534   2.586   4.628  13.876 -0.0635 -0.8927  0.4894
  373TIP3    H222535   2.441   4.637  13.919 -0.4560 -0.3422 -0.8776
  374TIP3   OH222536   4.279   4.524   5.621 -0.1995  0.0938 -0.1065
  374TIP3    H122537   4.331   4.511   5.700 -1.1801  0.3663  0.6033
  374TIP3    H222538   4.330   4.484   5.551  0.0808 -1.3361  0.8777
  375TIP3   OH222539   3.947   3.184   0.313 -0.5736 -0.3392  0.0634
  375TIP3    H122540   3.862   3.141   0.323  0.1760 -2.0801 -0.5892
  375TIP3    H222541   3.984   3.183   0.401 -1.2588  0.5074  0.3674
  376TIP3   OH222542   4.782   3.483   3.897 -0.5197  0.2200  0.2355
  376TIP3    H122543   4.863   3.437   3.920 -0.5670  0.1134  0.1903
  376TIP3    H222544   4.743   3.430   3.827 -0.5599  0.3454  0.1626
  377TIP3   OH222545   1.552   0.477  16.106  0.2634  0.3931  0.0380
  377TIP3    H122546   1.555   0.571  16.089  0.8160  0.6567  1.4873
  377TIP3    H222547   1.643   0.449  16.104  0.0725 -0.2336 -0.8620
  378TIP3   OH222548   4.261   1.150   1.935  0.6198  0.8916  0.3685
  378TIP3    H122549   4.205   1.197   1.873 -0.5750 -0.2918  0.4976
  378TIP3    H222550   4.329   1.112   1.880  0.0536  0.5583 -0.1228
  379TIP3   OH222551   0.395   1.293   3.139  0.2808 -0.0127 -0.5548
  379TIP3    H122552   0.398   1.314   3.046 -1.6296 -0.4725 -0.7692
  379TIP3    H222553   0.353   1.207   3.143  0.8251 -0.2523  0.7135
  380TIP3   OH222554   0.563   1.626   2.073  0.5001  0.3486  0.3674
  380TIP3    H122555   0.513   1.691   2.123 -0.5938 -2.0349  2.6576
  380TIP3    H222556   0.652   1.633   2.107  0.2392  0.2670  1.0979
  381TIP3   OH222557   1.038   5.219   2.442 -0.1067 -0.6945 -0.2167
  381TIP3    H122558   1.054   5.253   2.530  0.3767 -1.4456 -0.0038
  381TIP3    H222559   1.045   5.124   2.451  1.1111 -0.7463 -1.2731
  382TIP3   OH222560   2.117   6.694  16.118 -0.2226 -0.2616  0.2029
  382TIP3    H122561   2.098   6.719  16.027 -0.6172 -0.7928  0.1349
  382TIP3    H222562   2.071   6.760  16.170 -1.5010 -0.9874  0.0297
  383TIP3   OH222563   5.940   0.037   3.073 -0.1012 -0.8911  0.6865
  383TIP3    H122564   5.924  -0.050   3.109 -1.7934 -2.5810 -3.4249
  383TIP3    H222565   5.875   0.093   3.115 -0.8964 -2.2815  1.3937
  384TIP3   OH222566   5.582   0.298   5.804  0.5070 -0.2797 -0.2122
  384TIP3    H122567   5.547   0.384   5.830 -0.4393 -0.7527  0.1375
  384TIP3    H222568   5.597   0.253   5.887  1.0913 -0.4152 -0.3923
  385TIP3   OH222569   6.640   6.518  11.223  0.5345  0.0551 -0.3476
  385TIP3    H122570   6.716   6.564  11.189  1.4727 -2.4522 -1.9249
  385TIP3    H222571   6.673   6.432  11.249 -1.0922  0.1875  2.5933
  386TIP3   OH222572   1.334   2.857  13.256  0.6661  0.0229 -0.0674
  386TIP3    H122573   1.365   2.945  13.277 -1.1180  0.9292 -0.9942
  386TIP3    H222574   1.281   2.831  13.331  2.5117 -0.9897  0.9418
  387TIP3   OH222575   6.558   2.502   2.506  0.5308  0.0032 -0.5729
  387TIP3    H122576   6.498   2.534   2.439 -1.0322  1.5652  1.4386
  387TIP3    H222577   6.644   2.533   2.477  0.1495 -0.6261 -2.5480
  388TIP3   OH222578   2.613   6.093  12.082  0.3559  0.2625  0.1406
  388TIP3    H122579   2.546   6.130  12.024  1.3022  2.2824  0.2719
  388TIP3    H222580   2.566   6.027  12.134 -0.8254 -0.5641 -1.8728
  389TIP3   OH222581   4.752   4.167   2.152 -0.5291 -0.0882  0.1900
  389TIP3    H122582   4.689   4.131   2.089  0.3624  0.6697 -1.1820
  389TIP3    H222583   4.755   4.260   2.131  0.3340  0.0413  0.8721
  390TIP3   OH222584   2.203   3.114  11.287  0.3589 -0.1229  0.6361
  390TIP3    H122585   2.158   3.070  11.359  0.6654  0.3203  1.1035
  390TIP3    H222586   2.158   3.082  11.208 -0.8080  0.3370  1.0894
  391TIP3   OH222587   1.810   1.008   0.415  0.5013 -0.3014  0.5459
  391TIP3    H122588   1.892   1.033   0.374  1.7578 -1.1610  2.4112
  391TIP3    H222589   1.826   1.016   0.509 -1.3334 -1.1276  0.9782
  392TIP3   OH222590   1.782   5.945   1.305  0.1234 -0.5810 -0.2600
  392TIP3    H122591   1.826   6.028   1.322 -2.1370  0.2960  1.8398
  392TIP3    H222592   1.847   5.878   1.327  1.7332  0.5737 -1.3000
  393TIP3   OH222593   5.050   4.970   5.608 -0.6256  0.3827  0.1643
  393TIP3    H122594   5.022   4.959   5.517 -0.8511 -2.4927  0.4863
  393TIP3    H222595   5.122   5.033   5.603 -0.2855 -0.0649 -2.0898
  394TIP3   OH222596   6.021   1.076   0.765  0.3445  0.3618  0.1931
  394TIP3    H122597   6.077   1.152   0.780 -0.8056  0.9964  1.4487
  394TIP3    H222598   6.040   1.018   0.839 -0.7013  0.6250  0.6810
  395TIP3   OH222599   5.499   6.267   2.325 -0.0307 -0.3712  0.3415
  395TIP3    H122600   5.498   6.344   2.267 -0.5746 -0.5316  0.1331
  395TIP3    H222601   5.536   6.197   2.270  0.8957 -0.1618  0.6710
  396TIP3   OH222602   0.153   1.583  16.393  0.1393 -0.3934  0.3194
  396TIP3    H122603   0.089   1.599  16.324 -0.4259 -1.1448  0.6595
  396TIP3    H222604   0.233   1.560  16.346  0.1393  0.4396 -0.1089
  397TIP3   OH222605   5.359   4.051  16.633 -0.0329 -0.6159  0.2063
  397TIP3    H122606   5.413   4.025  16.708 -1.2469 -2.7322  0.4528
  397TIP3    H222607   5.297   4.114  16.668  1.7592  1.3448  0.0600
  398TIP3   OH222608   3.102   0.496  12.832  0.1048  0.2211 -0.3897
  398TIP3    H122609   3.176   0.436  12.842 -0.2848 -0.1254  0.4562
  398TIP3    H222610   3.102   0.548  12.912 -0.3222  0.5008 -0.5682
  399TIP3   OH222611   3.874   1.003  11.219 -0.2231  0.1258  0.7057
  399TIP3    H122612   3.934   1.029  11.289 -0.5881  0.3443  0.9407
  399TIP3    H222613   3.820   0.935  11.257  0.1924 -0.4156  0.3408
  400TIP3   OH222614   4.054   4.942   0.890 -0.0121  0.2920  0.0787
  400TIP3    H122615   4.031   4.960   0.799  1.1744 -1.0158 -0.5120
  400TIP3    H222616   3.974   4.960   0.940 -0.8005  0.5982 -1.2694
  401TIP3   OH222617   4.863   5.888   2.824 -0.0804 -0.6056  0.5502
  401TIP3    H122618   4.866   5.869   2.730  0.0066  1.5769  0.0538
  401TIP3    H222619   4.949   5.863   2.856  0.8180  0.9138 -0.5086
  402TIP3   OH222620   3.566   4.795   3.476 -0.1178  0.1469 -0.4829
  402TIP3    H122621   3.507   4.863   3.509 -0.6758  0.2324 -1.6179
  402TIP3    H222622   3.514   4.749   3.410  1.0531  0.1331 -1.4119
  403TIP3   OH222623   3.735   5.674   4.167  0.0735  0.2625 -0.1572
  403TIP3    H122624   3.819   5.632   4.184  0.0532 -0.4280 -1.5990
  403TIP3    H222625   3.758   5.761   4.133  0.2365 -0.1077 -1.0202
  404TIP3   OH222626   3.997   3.975  15.627  0.2681  0.8946 -0.2856
  404TIP3    H122627   3.930   3.907  15.634 -0.1008  1.3917  1.4101
  404TIP3    H222628   4.074   3.929  15.592  0.5665 -0.8759  2.3886
  405TIP3   OH222629   5.251   5.868   0.748  0.1215 -0.2113  0.6927
  405TIP3    H122630   5.166   5.911   0.740  0.1230  0.0248  1.8326
  405TIP3    H222631   5.231   5.774   0.739  0.1015 -0.0410 -1.6119
  406TIP3   OH222632   4.654   1.452   4.428  0.4895  0.0052  0.1818
  406TIP3    H122633   4.645   1.427   4.336  1.9630 -0.7137  0.1952
  406TIP3    H222634   4.708   1.531   4.427  4.0266 -2.1548  0.4861
  407TIP3   OH222635   6.016   0.547  12.111 -0.3871 -0.1584  0.0717
  407TIP3    H122636   6.026   0.544  12.016  1.4640 -2.9598  0.2342
  407TIP3    H222637   6.091   0.497  12.145 -3.8823 -4.4063  2.6632
  408TIP3   OH222638   1.971   5.950   1.632 -0.4190 -0.0327 -0.4634
  408TIP3    H122639   2.002   5.882   1.693 -0.6624 -0.8784 -1.2531
  408TIP3    H222640   1.877   5.957   1.652  0.3137  3.5091  2.8856
  409TIP3   OH222641   4.323   6.288   5.684 -0.3165  0.4313  0.8441
  409TIP3    H122642   4.277   6.204   5.673  0.8723 -0.0038 -1.3995
  409TIP3    H222643   4.260   6.354   5.656 -0.0908 -0.0602 -0.9613
  410TIP3   OH222644   1.355   5.611  15.724 -0.3649  0.1377 -0.2258
  410TIP3    H122645   1.431   5.646  15.771 -0.2645 -0.7279  0.2629
  410TIP3    H222646   1.391   5.543  15.667 -0.7428 -0.1190 -0.1623
  411TIP3   OH222647   4.837   0.981   4.928 -0.1642  0.3790 -0.0578
  411TIP3    H122648   4.896   1.000   4.855 -0.2325  0.3652 -0.1166
  411TIP3    H222649   4.895   0.955   5.000 -0.1023  0.3257 -0.1275
  412TIP3   OH222650   1.666   1.971   5.971  0.5244  0.5052 -0.2198
  412TIP3    H122651   1.673   2.065   5.988  1.5135  0.3128  0.4712
  412TIP3    H222652   1.683   1.930   6.056 -1.6540 -0.2652 -0.0920
  413TIP3   OH222653   4.409   3.891  12.539 -0.1980 -0.1493  0.4406
  413TIP3    H122654   4.423   3.796  12.534 -0.7412 -0.2494  0.7649
  413TIP3    H222655   4.339   3.902  12.603 -0.0881  0.4797  0.4636
  414TIP3   OH222656   1.653   3.599   3.467 -0.1968 -0.5140  0.4958
  414TIP3    H122657   1.558   3.606   3.472 -0.0687  1.3177  1.8487
  414TIP3    H222658   1.672   3.583   3.375 -1.7922 -0.3516  0.1113
  415TIP3   OH222659   0.207   3.267  12.369  0.1163 -0.0097 -0.1810
  415TIP3    H122660   0.281   3.265  12.309  0.0341  0.3161 -0.2923
  415TIP3    H222661   0.247   3.265  12.456  0.2735  0.5918 -0.2329
  416TIP3   OH222662   1.042   5.700   4.366  0.4205  0.7460 -0.3523
  416TIP3    H122663   1.058   5.610   4.394 -0.8237  0.3356 -0.8618
  416TIP3    H222664   1.117   5.721   4.310  0.6708 -0.0207 -0.3224
  417TIP3   OH222665   0.062   6.461   0.144  0.3435 -0.0974  0.1601
  417TIP3    H122666   0.055   6.439   0.051  0.2587  0.6182 -0.0099
  417TIP3    H222667   0.108   6.545   0.145  2.5880 -1.2650  0.9072
  418TIP3   OH222668   5.541   2.534   2.780 -0.2399  0.0237  0.2303
  418TIP3    H122669   5.591   2.557   2.858 -2.1043  0.0414  1.4873
  418TIP3    H222670   5.499   2.616   2.753  0.1249 -0.0525 -0.6109
  419TIP3   OH222671   5.443   2.215  13.539 -0.0916 -0.2786  0.1884
  419TIP3    H122672   5.381   2.191  13.608  0.6588  0.5121  1.1673
  419TIP3    H222673   5.518   2.157  13.553 -0.2837 -0.7138 -0.5240
  420TIP3   OH222674   5.325   2.260   3.496 -0.8018  0.1541 -0.2153
  420TIP3    H122675   5.401   2.207   3.521 -0.7756  0.5985  0.7258
  420TIP3    H222676   5.343   2.289   3.407  2.7002  4.4071  1.4687
  421TIP3   OH222677   0.169   6.016   0.830  0.5492  0.3648  0.1311
  421TIP3    H122678   0.146   6.076   0.759 -1.2757  0.8719  1.0794
  421TIP3    H222679   0.113   5.940   0.817  0.1430  0.4960  1.0381
  422TIP3   OH222680   0.022   1.096  11.689  0.5960  0.0452 -0.3650
  422TIP3    H122681   0.058   1.169  11.639 -0.6666 -0.2284 -1.7509
  422TIP3    H222682   0.040   1.019  11.636  0.7683 -0.4868  0.4548
  423TIP3   OH222683   4.458   6.559   3.422  0.2309  0.0747 -0.3698
  423TIP3    H122684   4.405   6.610   3.483  0.2242  0.0575 -0.3613
  423TIP3    H222685   4.545   6.557   3.461  0.6780  1.5629 -1.2231
  424TIP3   OH222686   3.498   0.854  16.325 -0.2470  0.4866  0.4552
  424TIP3    H122687   3.410   0.822  16.344  0.0170 -0.0579  0.7723
  424TIP3    H222688   3.531   0.885  16.409 -0.4564  1.5137  0.1805
  425TIP3   OH222689   1.621   4.007   3.663 -0.4542 -0.2920  0.3425
  425TIP3    H122690   1.663   3.921   3.665  0.9135  0.3385  0.4077
  425TIP3    H222691   1.690   4.066   3.632 -1.3053  0.8108  0.4829
  426TIP3   OH222692   3.694   0.275  14.918 -0.1116  0.1139  0.4852
  426TIP3    H122693   3.760   0.303  14.981  0.5654  0.6484 -0.4334
  426TIP3    H222694   3.702   0.338  14.846 -0.7906 -0.5432 -0.1814
  427TIP3   OH222695   1.671   1.888   5.344  0.1022  0.2226 -0.4162
  427TIP3    H122696   1.677   1.796   5.317 -0.6242 -0.3075  1.0913
  427TIP3    H222697   1.692   1.886   5.438 -0.2564  1.5505 -0.2997
  428TIP3   OH222698   2.272   1.786  11.315  0.2564 -0.1232  0.3959
  428TIP3    H122699   2.338   1.781  11.245  0.4180  0.0178  0.5385
  428TIP3    H222700   2.237   1.697  11.321  0.4341 -0.1991  0.3210
  429TIP3   OH222701   1.263   3.448  13.452 -0.2866  0.5379 -0.4572
  429TIP3    H122702   1.221   3.458  13.367 -0.1794 -1.8364 -0.8628
  429TIP3    H222703   1.194   3.413  13.509  0.2257 -0.1553 -0.2351
  430TIP3   OH222704   4.750   4.458  10.890 -0.5912 -0.0816  0.3079
  430TIP3    H122705   4.827   4.500  10.852 -0.2946 -0.2994  0.6499
  430TIP3    H222706   4.761   4.365  10.870 -1.1378 -0.0259 -0.2663
  431TIP3   OH222707   5.640   0.701  15.046 -0.7072  0.4361 -0.4443
  431TIP3    H122708   5.694   0.777  15.025 -0.6583  0.1612 -1.3964
  431TIP3    H222709   5.604   0.719  15.132  1.0375  0.5438  0.2883
  432TIP3   OH222710   3.817   4.594   0.057 -0.0228 -0.0289  0.0710
  432TIP3    H122711   3.790   4.522   0.000  0.0062  0.0491 -0.0435
  432TIP3    H222712   3.901   4.567   0.094 -0.4338 -0.4326  0.7198
  433TIP3   OH222713   5.825   3.212  15.792 -0.1894  0.3701  0.0724
  433TIP3    H122714   5.773   3.243  15.717 -0.2718 -1.0496 -0.4865
  433TIP3    H222715   5.888   3.151  15.754 -0.6644 -0.9015  1.2264
  434TIP3   OH222716   3.567   0.263   1.589  0.3394 -0.3338 -0.2501
  434TIP3    H122717   3.561   0.221   1.674  0.7184  0.8357  0.3869
  434TIP3    H222718   3.625   0.338   1.604  0.8243 -0.3937 -1.6560
  435TIP3   OH222719   6.056   6.442  16.472  0.0775 -0.4248 -0.0143
  435TIP3    H122720   6.070   6.440  16.567  0.1055 -1.4416 -0.0308
  435TIP3    H222721   6.045   6.535  16.451 -1.8321 -0.3071  1.2632
  436TIP3   OH222722   2.492   2.248   5.495  0.1267  0.3865  0.4220
  436TIP3    H122723   2.549   2.296   5.555 -0.4877  0.3933  1.0153
  436TIP3    H222724   2.514   2.283   5.408  0.5086  0.9089  0.7196
  437TIP3   OH222725   5.689   6.525  16.936 -0.0912 -0.2064  0.7669
  437TIP3    H122726   5.674   6.438  16.898  2.2613 -0.1213 -0.5153
  437TIP3    H222727   5.606   6.571  16.923 -0.6393 -1.5103 -0.6787
  438TIP3   OH222728   5.709   0.732  11.912 -0.1372  0.8088 -0.1135
  438TIP3    H122729   5.640   0.701  11.853  1.0965 -0.1074 -1.1563
  438TIP3    H222730   5.741   0.812  11.870  0.3048  0.5098 -0.3573
  439TIP3   OH222731   3.076   6.263  12.152 -0.1086 -0.2141  0.1479
  439TIP3    H122732   3.164   6.227  12.159  0.3637  1.1755  1.9004
  439TIP3    H222733   3.023   6.209  12.211  0.0107  0.1983  0.6391
  440TIP3   OH222734   1.589   6.505   2.091 -0.2454 -0.5943 -0.8127
  440TIP3    H122735   1.612   6.428   2.038  0.8058 -1.5731  0.9590
  440TIP3    H222736   1.523   6.472   2.153 -0.7036  0.2611 -0.8330
  441TIP3   OH222737   3.548   6.295  16.075  0.2693 -0.1864  0.2117
  441TIP3    H122738   3.586   6.305  15.988  0.5881  0.5641  0.4292
  441TIP3    H222739   3.533   6.201  16.084  1.0188 -0.3707 -0.3285
  442TIP3   OH222740   3.767   4.700   4.590 -0.6125 -0.1782  0.3329
  442TIP3    H122741   3.710   4.748   4.650  0.6499 -0.8261  2.1119
  442TIP3    H222742   3.706   4.664   4.525 -1.9901  0.8447  0.9928
  443TIP3   OH222743   4.089   0.063   3.702  0.1546 -0.0125 -0.6760
  443TIP3    H122744   4.055   0.031   3.619 -1.5577 -0.3950  0.1322
  443TIP3    H222745   4.012   0.084   3.753  1.1863  0.9294  0.5615
  444TIP3   OH222746   1.988   4.083  15.841 -0.7596  0.8676  0.2510
  444TIP3    H122747   1.963   4.174  15.857 -1.0507  0.7365  0.5471
  444TIP3    H222748   1.982   4.073  15.746 -1.8284  0.8434  0.3069
  445TIP3   OH222749   2.654   3.446   3.949 -0.1904 -0.2789  0.0033
  445TIP3    H122750   2.703   3.435   3.868  0.7875 -1.7934  0.7776
  445TIP3    H222751   2.614   3.361   3.965 -2.1937  0.6042 -0.0065
  446TIP3   OH222752   5.393   5.916  16.774 -0.0391  0.2140  0.0694
  446TIP3    H122753   5.449   5.940  16.848 -0.8853  0.8701  0.5003
  446TIP3    H222754   5.306   5.945  16.798 -0.1925  1.2321 -1.5559
  447TIP3   OH222755   6.436   2.835  15.090  0.4695  0.1037  0.2721
  447TIP3    H122756   6.404   2.892  15.021  0.1332  0.2754  0.5692
  447TIP3    H222757   6.481   2.894  15.151  1.2748 -0.1194 -0.0933
  448TIP3   OH222758   4.811   4.846  15.838  0.5943 -0.3813 -0.1801
  448TIP3    H122759   4.759   4.917  15.875 -0.6831 -0.5076 -1.6477
  448TIP3    H222760   4.761   4.767  15.860  0.2927 -0.5280 -1.3307
  449TIP3   OH222761   3.633   3.716   4.584  0.1823  0.1775  0.3998
  449TIP3    H122762   3.559   3.671   4.624  0.0076  0.6370  0.5963
  449TIP3    H222763   3.605   3.807   4.578 -0.1688 -0.0153 -1.6220
  450TIP3   OH222764   1.539   6.247  13.762  0.1631 -0.1722 -0.4508
  450TIP3    H122765   1.555   6.204  13.847  0.7664  1.2637  0.1923
  450TIP3    H222766   1.482   6.186  13.715 -0.9617 -0.5868  1.3487
  451TIP3   OH222767   0.377   0.195   1.559  0.0204 -0.0879  0.4999
  451TIP3    H122768   0.329   0.112   1.553  1.1028 -0.7749  0.9499
  451TIP3    H222769   0.447   0.177   1.622  1.0784  0.7649 -0.3937
  452TIP3   OH222770   5.292   6.149   0.898 -0.0287  0.0053  0.1288
  452TIP3    H122771   5.284   6.179   0.808  0.0409 -0.7588 -0.1379
  452TIP3    H222772   5.372   6.096   0.899 -0.3009 -0.4101  0.5165
  453TIP3   OH222773   5.366   4.778  12.768 -0.1419 -0.0524  0.0911
  453TIP3    H122774   5.423   4.804  12.841 -0.9505 -2.1259  1.5370
  453TIP3    H222775   5.426   4.742  12.703  0.4340  0.2689  0.4315
  454TIP3   OH222776   4.982   0.786   5.050 -0.2665  0.4120  0.5482
  454TIP3    H122777   5.000   0.772   4.957 -1.5921 -1.2891  0.5072
  454TIP3    H222778   5.067   0.810   5.087  0.9682 -1.8908 -0.5736
  455TIP3   OH222779   2.297   3.081   0.665  0.4669  0.8119  0.2835
  455TIP3    H122780   2.208   3.057   0.688  0.5780  0.7148  0.6231
  455TIP3    H222781   2.345   3.077   0.748  1.2465 -1.1521 -0.1955
  456TIP3   OH222782   5.126   4.188  11.848  0.2076 -0.5542  0.0142
  456TIP3    H122783   5.031   4.190  11.834  0.2842 -1.5645 -0.7564
  456TIP3    H222784   5.154   4.106  11.807  1.3635 -0.4469  0.5678
  457TIP3   OH222785   4.450   1.496   4.782 -0.1937 -0.0108 -0.3168
  457TIP3    H122786   4.429   1.570   4.725 -0.7971 -0.0894 -0.2080
  457TIP3    H222787   4.439   1.419   4.727  1.2153 -0.0054 -0.6594
  458TIP3   OH222788   4.907   0.868  16.248  0.2503 -0.7145  0.0907
  458TIP3    H122789   4.834   0.931  16.242  1.1279  0.3301  0.0850
  458TIP3    H222790   4.957   0.882  16.168 -0.2884 -2.4303 -0.5959
  459TIP3   OH222791   4.454   5.698  12.945 -0.0624 -0.7633  0.1344
  459TIP3    H122792   4.358   5.705  12.942 -0.3105 -1.8920  2.8164
  459TIP3    H222793   4.482   5.782  12.983  0.1853  0.0558 -1.7337
  460TIP3   OH222794   4.072   0.207  13.711 -0.3680 -0.0587  0.3978
  460TIP3    H122795   4.104   0.136  13.767  1.8771 -1.2970 -2.2340
  460TIP3    H222796   3.983   0.182  13.689 -0.4248 -0.8064  1.4103
  461TIP3   OH222797   1.722   5.589  15.286 -0.2412 -0.6822 -0.2631
  461TIP3    H122798   1.717   5.564  15.193  0.5591 -3.1144  0.2866
  461TIP3    H222799   1.808   5.559  15.314 -0.6538 -0.3812  1.4084
  462TIP3   OH222800   3.768   1.643   5.323  0.2502  0.7232 -0.1223
  462TIP3    H122801   3.686   1.689   5.305  0.0131  0.4209  0.1898
  462TIP3    H222802   3.836   1.710   5.312 -0.0786  1.1060  0.1591
  463TIP3   OH222803   4.425   2.469   1.991  0.0095 -0.3795 -0.3203
  463TIP3    H122804   4.478   2.529   1.938 -1.3871  0.4523 -0.8151
  463TIP3    H222805   4.473   2.386   1.986  2.8338  0.9454  1.6522
  464TIP3   OH222806   0.323   5.522  15.525  0.1430  0.2740  0.1564
  464TIP3    H122807   0.319   5.522  15.429 -2.6421 -2.6967  0.1054
  464TIP3    H222808   0.327   5.429  15.549 -0.7455  0.8704  2.9293
  465TIP3   OH222809   2.939   3.057  14.752  0.1513 -0.1103 -0.2603
  465TIP3    H122810   2.963   3.118  14.682  2.4820  0.8447  1.2216
  465TIP3    H222811   2.896   3.112  14.818 -0.2207 -0.6166 -0.0741
  466TIP3   OH222812   1.888   1.289   3.511  0.4312  0.0354 -0.1297
  466TIP3    H122813   1.840   1.292   3.429  1.4846  1.2395 -0.7383
  466TIP3    H222814   1.919   1.379   3.524  0.6195 -0.2218  1.3805
  467TIP3   OH222815   1.124   1.775   3.609 -0.3071 -0.2972 -0.5309
  467TIP3    H122816   1.122   1.781   3.705 -0.1897 -1.2339 -0.4601
  467TIP3    H222817   1.122   1.681   3.591  3.2289 -0.3828 -1.3331
  468TIP3   OH222818   0.482   3.049  16.892 -0.3028  0.2529 -0.0136
  468TIP3    H122819   0.433   3.111  16.838 -1.7496  0.0960  1.0502
  468TIP3    H222820   0.415   3.009  16.948  0.6086 -2.1258 -0.5240
  469TIP3   OH222821   0.723   5.510  13.244  0.0440 -0.1863 -0.0563
  469TIP3    H122822   0.817   5.520  13.262 -0.1851  0.2809  0.9331
  469TIP3    H222823   0.683   5.588  13.281 -0.9616 -1.2983  1.3238
  470TIP3   OH222824   1.406   3.144  13.390 -0.4927 -0.4619  0.3975
  470TIP3    H122825   1.320   3.137  13.433 -0.2832 -0.7851  0.7713
  470TIP3    H222826   1.399   3.223  13.336 -1.3569 -1.0189 -0.3373
  471TIP3   OH222827   6.494   5.506   2.818 -0.0735 -0.3156 -0.1224
  471TIP3    H122828   6.492   5.430   2.875 -0.3546  0.6291  1.1551
  471TIP3    H222829   6.437   5.482   2.745  0.8585 -1.8088 -0.4029
  472TIP3   OH222830   1.185   0.279  11.226 -0.2486 -0.1335 -0.2530
  472TIP3    H122831   1.146   0.366  11.234 -0.7703 -0.3846 -0.0661
  472TIP3    H222832   1.134   0.224  11.286  0.8559 -0.3011  0.5808
  473TIP3   OH222833   4.498   5.833  15.131  0.4710  0.2723 -0.3018
  473TIP3    H122834   4.591   5.816  15.147  0.3350  1.1123  1.6586
  473TIP3    H222835   4.454   5.753  15.160  0.6567 -1.3595 -3.9327
  474TIP3   OH222836   6.032   3.459   2.851  0.4163 -0.4317  0.4046
  474TIP3    H122837   6.112   3.507   2.830 -0.2498 -0.3085 -2.1662
  474TIP3    H222838   6.022   3.397   2.779 -1.9656 -0.2135  0.4771
  475TIP3   OH222839   0.979   1.984   1.468 -0.6186  0.6675 -0.1248
  475TIP3    H122840   0.939   2.028   1.544 -0.8134 -0.1266  0.2360
  475TIP3    H222841   1.037   1.919   1.506 -0.2971  0.6381 -0.6636
  476TIP3   OH222842   4.680   2.805   6.079 -0.6388  0.1429 -0.3240
  476TIP3    H122843   4.760   2.811   6.027 -1.3912 -2.1675 -1.9140
  476TIP3    H222844   4.703   2.748   6.152  0.7969  4.4287  2.9252
  477TIP3   OH222845   1.267   6.178  14.061 -0.3391 -0.4866 -0.1807
  477TIP3    H122846   1.340   6.188  14.123 -0.8033 -2.7972  0.8339
  477TIP3    H222847   1.257   6.265  14.022  2.1675  0.2045  0.5190
  478TIP3   OH222848   5.196   5.486   4.917 -0.2867 -0.0137 -0.4949
  478TIP3    H122849   5.245   5.436   4.852  0.0540 -0.8897  0.4063
  478TIP3    H222850   5.243   5.569   4.925  1.2891 -0.9601  0.5950
  479TIP3   OH222851   0.407   0.127   2.485  0.0718  0.5897 -0.3341
  479TIP3    H122852   0.424   0.207   2.535  0.2516 -0.6824  1.7234
  479TIP3    H222853   0.494   0.090   2.469 -0.1294 -1.0874  2.0281
  480TIP3   OH222854   3.346   6.679   1.798 -0.0692  0.2421 -0.4666
  480TIP3    H122855   3.367   6.758   1.848  1.2716 -0.8612  0.7902
  480TIP3    H222856   3.406   6.612   1.832 -1.3198 -1.3858 -1.3326
  481TIP3   OH222857   2.315   1.656  12.606  0.0325  0.5914  0.2401
  481TIP3    H122858   2.348   1.595  12.540 -2.5079  0.4544 -1.0468
  481TIP3    H222859   2.353   1.741  12.582 -1.8945  0.8414 -2.3961
  482TIP3   OH222860   0.655   2.601   2.584 -0.1018 -0.1398  0.2812
  482TIP3    H122861   0.704   2.538   2.531 -0.4328 -0.6284  0.5428
  482TIP3    H222862   0.635   2.554   2.665  0.0458  0.4637  0.6732
  483TIP3   OH222863   1.099   2.962   3.491 -0.4802 -0.4878  0.0740
  483TIP3    H122864   1.120   2.910   3.568  1.9325  0.2643 -0.0026
  483TIP3    H222865   1.122   3.052   3.516 -0.3106 -0.1319 -1.2951
  484TIP3   OH222866   4.219   6.689   4.690  0.1355  0.6131  0.2446
  484TIP3    H122867   4.218   6.752   4.762 -0.9030 -0.0195  0.8115
  484TIP3    H222868   4.300   6.639   4.702 -0.1747  0.3169  1.1625
  485TIP3   OH222869   1.224   6.576   3.019  0.1223 -0.4826  0.1239
  485TIP3    H122870   1.191   6.583   2.929  1.6030 -1.0362 -0.4878
  485TIP3    H222871   1.153   6.533   3.067 -0.5092 -0.6005 -0.8834
  486TIP3   OH222872   6.513   1.053   3.649 -0.4696  0.5501  0.8455
  486TIP3    H122873   6.583   1.115   3.672 -0.6049  0.0148  2.9542
  486TIP3    H222874   6.488   1.014   3.733 -1.8060 -0.8682 -0.1622
  487TIP3   OH222875   2.551   5.655  16.930  0.0163  0.2044  0.2257
  487TIP3    H122876   2.469   5.703  16.943 -0.2623  0.0143 -0.7810
  487TIP3    H222877   2.607   5.683  17.003  0.0623  2.4742 -0.6095
  488TIP3   OH222878   3.660   1.702   6.035  0.1982  0.4715 -0.4924
  488TIP3    H122879   3.721   1.630   6.020 -0.8028 -0.2668 -1.0841
  488TIP3    H222880   3.657   1.711   6.131  0.8911  0.2327 -0.4398
  489TIP3   OH222881   5.233   5.337   2.652  0.4809 -0.4084 -0.2959
  489TIP3    H122882   5.138   5.350   2.656  0.8277  2.8163  1.4117
  489TIP3    H222883   5.250   5.268   2.717 -0.5070  1.3539  1.9915
  490TIP3   OH222884   0.022   1.882  14.027 -0.5690  0.1274  0.0795
  490TIP3    H122885  -0.049   1.841  14.077 -1.1369  0.8437 -0.1231
  490TIP3    H222886   0.101   1.860  14.076 -0.9445 -0.5709  0.3837
  491TIP3   OH222887   5.404   6.501  16.773 -0.3567  0.3372 -0.4072
  491TIP3    H122888   5.444   6.453  16.700  1.5045 -1.6069  1.7569
  491TIP3    H222889   5.310   6.489  16.761 -0.0566 -0.9449 -1.8147
  492TIP3   OH222890   0.424   1.493  12.039 -0.6415  0.9733 -1.1668
  492TIP3    H122891   0.345   1.519  12.085 -0.7288  2.5345 -2.1498
  492TIP3    H222892   0.413   1.399  12.023 -2.1182  1.0991 -0.9768
  493TIP3   OH222893   2.573   2.575  17.024 -0.9269  0.5996  0.4152
  493TIP3    H122894   2.626   2.652  17.008  0.1172  0.1007  1.3346
  493TIP3    H222895   2.632   2.513  17.067 -1.6526 -0.8238 -0.5257
  494TIP3   OH222896   1.684   0.542   1.535  0.3960 -0.1798 -0.1894
  494TIP3    H122897   1.698   0.472   1.598 -1.0563  1.0358  1.5906
  494TIP3    H222898   1.598   0.578   1.558  2.1082  3.8297  0.6769
  495TIP3   OH222899   3.462   6.555   2.135 -0.1265 -0.2245  0.0193
  495TIP3    H122900   3.462   6.478   2.078  1.1313  0.6455 -1.2340
  495TIP3    H222901   3.372   6.587   2.132  0.0755  0.3347 -2.3164
  496TIP3   OH222902   3.376   3.483  15.482 -0.3784 -0.3956 -0.3855
  496TIP3    H122903   3.302   3.435  15.446 -1.2379  0.3936  0.3031
  496TIP3    H222904   3.453   3.438  15.445 -1.1572 -1.7160 -0.4814
  497TIP3   OH222905   6.436   5.788   2.457  0.2295 -0.0372  0.6340
  497TIP3    H122906   6.481   5.816   2.537  0.5247 -1.0755  0.8546
  497TIP3    H222907   6.356   5.745   2.488  1.7866 -3.2615  0.6668
  498TIP3   OH222908   1.861   2.772  11.018 -0.0481 -0.6590  0.0671
  498TIP3    H122909   1.875   2.833  11.091  0.4411 -1.6908  0.8596
  498TIP3    H222910   1.776   2.731  11.037 -0.3713 -0.2374 -0.4584
  499TIP3   OH222911   2.293   2.525   2.726  0.7495 -0.1813  0.4915
  499TIP3    H122912   2.292   2.592   2.658  0.0248 -2.8264 -2.3237
  499TIP3    H222913   2.381   2.532   2.764  1.7137  0.5721 -1.6849
  500TIP3   OH222914   5.806   5.798   4.868 -0.3316  0.3896 -0.3674
  500TIP3    H122915   5.865   5.864   4.906  0.2903 -0.2110 -0.2518
  500TIP3    H222916   5.856   5.716   4.875 -1.1442 -0.1113 -0.3789
  501TIP3   OH222917   2.582   5.420   0.964 -0.0569 -0.4608  0.2576
  501TIP3    H122918   2.538   5.418   1.049 -2.4595  1.8279 -0.7854
  501TIP3    H222919   2.651   5.485   0.974 -0.6484  0.1609  0.3661
  502TIP3   OH222920   1.806   4.243  13.361 -0.4955  0.0636 -0.1730
  502TIP3    H122921   1.822   4.337  13.365  1.8054 -0.2975  2.5762
  502TIP3    H222922   1.884   4.208  13.317 -1.2004 -0.6036 -0.9121
  503TIP3   OH222923   3.233   2.040   5.856  0.1847 -0.0859  0.5679
  503TIP3    H122924   3.299   1.972   5.846 -1.0383 -1.3615  0.8894
  503TIP3    H222925   3.150   1.995   5.847 -0.7513  2.0378 -3.5101
  504TIP3   OH222926   1.043   2.252   3.477  0.0309  0.0352  0.1815
  504TIP3    H122927   1.074   2.247   3.567  0.5790 -0.4506 -0.0303
  504TIP3    H222928   1.102   2.313   3.434 -0.1503  0.1665  0.1163
  505TIP3   OH222929   0.802   5.447   4.858 -0.3186  0.4698 -0.6620
  505TIP3    H122930   0.835   5.537   4.867 -0.9593  0.8369 -1.7843
  505TIP3    H222931   0.832   5.419   4.771 -0.7719 -0.1285 -0.6288
  506TIP3   OH222932   5.991   3.874  13.601  0.1474  0.1155 -0.3223
  506TIP3    H122933   6.002   3.946  13.539  0.6142 -0.1935 -0.6081
  506TIP3    H222934   6.018   3.796  13.553  1.1998 -0.0413  0.4672
  507TIP3   OH222935   3.268   2.308   0.370 -0.4865 -0.0478 -0.4443
  507TIP3    H122936   3.259   2.345   0.458  0.5177  0.7101 -0.6417
  507TIP3    H222937   3.333   2.238   0.381 -0.6230 -0.1832 -0.5108
  508TIP3   OH222938   1.610   2.303   4.047 -0.2364 -0.0644 -0.5281
  508TIP3    H122939   1.676   2.235   4.045  1.0026  1.0600  0.3809
  508TIP3    H222940   1.560   2.286   4.127  0.5407  0.4847  0.0917
  509TIP3   OH222941   2.282   4.533  14.921 -0.0240  0.2892 -0.0574
  509TIP3    H122942   2.316   4.486  14.845  0.6900 -0.0792  0.4785
  509TIP3    H222943   2.193   4.557  14.897  0.0729 -0.1473 -0.8654
  510TIP3   OH222944   1.590   0.556   2.722  0.0135  0.1128 -0.4014
  510TIP3    H122945   1.658   0.545   2.788  0.0373  0.2072 -0.4099
  510TIP3    H222946   1.605   0.484   2.660  0.8766  0.8445 -1.0642
  511TIP3   OH222947   0.799   4.211   0.310 -0.2053  0.1020 -0.1690
  511TIP3    H122948   0.825   4.131   0.355 -1.1613 -0.4548 -0.5518
  511TIP3    H222949   0.798   4.186   0.217  0.0579  0.7311 -0.3447
  512TIP3   OH222950   4.044   5.961  16.157  0.3736  0.4302 -0.0696
  512TIP3    H122951   4.068   6.053  16.168  1.3197  0.3112 -1.0528
  512TIP3    H222952   4.127   5.914  16.153 -0.0650 -0.3130 -0.8501
  513TIP3   OH222953   0.035   3.282  14.582  1.0110 -0.3572 -0.1653
  513TIP3    H122954   0.093   3.239  14.645 -0.1230 -2.3364 -0.4158
  513TIP3    H222955  -0.052   3.250  14.604  0.0849  1.8308 -0.3989
  514TIP3   OH222956   1.184   4.025  13.883 -0.0610 -0.3241 -0.5646
  514TIP3    H122957   1.210   3.974  13.806  1.2844 -0.1431 -0.2511
  514TIP3    H222958   1.133   3.965  13.936  1.6550 -1.4392 -0.1076
  515TIP3   OH222959   0.382   2.671  11.843  0.5047 -0.0571 -0.0374
  515TIP3    H122960   0.358   2.676  11.751  0.1842  2.5761  0.1180
  515TIP3    H222961   0.340   2.591  11.875 -0.9636 -0.0213 -1.7372
  516TIP3   OH222962   2.695   1.141   1.387  0.8427  0.1803 -0.1997
  516TIP3    H122963   2.611   1.185   1.371  0.8447 -0.1281 -1.1126
  516TIP3    H222964   2.682   1.094   1.470  0.9917  2.2396  1.0585
  517TIP3   OH222965   3.983   2.283   2.640  0.9374 -0.6631  0.3229
  517TIP3    H122966   3.957   2.241   2.557 -2.2518  0.4666  0.6012
  517TIP3    H222967   3.959   2.219   2.707 -0.4081  0.0346  0.5401
  518TIP3   OH222968   0.822   0.291   5.982 -0.1600  0.1438 -0.2309
  518TIP3    H122969   0.777   0.329   5.907 -0.6939 -0.9631 -0.5017
  518TIP3    H222970   0.899   0.345   5.994 -1.5205  2.0749  0.2158
  519TIP3   OH222971   0.540   6.272   2.902  0.2218  0.4606 -0.2331
  519TIP3    H122972   0.480   6.340   2.873  0.1779  0.2239 -0.7013
  519TIP3    H222973   0.485   6.211   2.951  0.3104  0.9012  0.4264
  520TIP3   OH222974   0.420   6.069  11.610 -0.0777 -0.1530  0.7321
  520TIP3    H122975   0.407   6.139  11.546  0.6634  1.2510  2.0634
  520TIP3    H222976   0.358   6.000  11.583  0.6263  0.1064 -1.8212
  521TIP3   OH222977   6.159   2.640   1.219  0.3808  0.0331  0.0618
  521TIP3    H122978   6.111   2.633   1.136  1.7178 -2.0356 -0.6282
  521TIP3    H222979   6.233   2.580   1.209  1.9119  1.4813  1.9010
  522TIP3   OH222980   3.736   2.011   1.543 -0.6720 -0.1433  0.3004
  522TIP3    H122981   3.772   2.098   1.523 -0.9631 -0.6091 -2.8262
  522TIP3    H222982   3.806   1.951   1.520 -1.2728 -0.8192  0.2160
  523TIP3   OH222983   0.615   5.508  17.060 -0.3293  0.3541  0.4151
  523TIP3    H122984   0.706   5.497  17.031 -0.5125 -0.4547  0.1050
  523TIP3    H222985   0.593   5.423  17.098 -0.8554  0.6560  0.7890
  524TIP3   OH222986   2.507   0.561   3.990  0.1036  0.1706  0.2435
  524TIP3    H122987   2.513   0.627   3.921 -0.4677 -0.4354 -0.3931
  524TIP3    H222988   2.426   0.581   4.036 -1.2356 -1.3872 -1.3375
  525TIP3   OH222989   6.144   0.199   3.961 -0.1536  0.0278  0.7485
  525TIP3    H122990   6.178   0.268   4.018  1.9301 -0.1967 -0.1164
  525TIP3    H222991   6.050   0.197   3.978 -0.1962  2.7040  1.2012
  526TIP3   OH222992   4.091   2.668   3.854 -0.5213 -0.4640  0.3992
  526TIP3    H122993   4.082   2.620   3.937  0.8697  0.0476  0.8689
  526TIP3    H222994   4.062   2.757   3.874 -1.1408 -0.5819  0.0587
  527TIP3   OH222995   0.396   0.754   2.866  0.2114 -0.1316 -0.0755
  527TIP3    H122996   0.455   0.801   2.925  1.2113 -0.6782 -0.6185
  527TIP3    H222997   0.453   0.721   2.796 -0.4528 -2.0653  0.2335
  528TIP3   OH222998   1.620   1.857   1.343 -0.0799  0.0367 -0.4229
  528TIP3    H122999   1.699   1.901   1.314  0.4752  1.0163  2.2724
  528TIP3    H223000   1.548   1.905   1.301  0.6267  1.8643  0.3780
  529TIP3   OH223001   0.437   3.104  15.538  0.5801  0.5462 -0.3779
  529TIP3    H123002   0.462   3.061  15.456  0.2696 -0.4175  0.0179
  529TIP3    H223003   0.505   3.078  15.600 -0.5962 -0.9695  0.3500
  530TIP3   OH223004   6.136   3.204  11.986  0.2223  0.0940  0.4147
  530TIP3    H123005   6.097   3.206  12.074  1.3565 -2.5393  1.0749
  530TIP3    H223006   6.103   3.123  11.947  1.1995  0.2875 -0.8763
  531TIP3   OH223007   6.553   2.993  15.273  0.2015  0.0436 -0.2178
  531TIP3    H123008   6.640   3.032  15.263  0.8118 -1.6482 -1.8960
  531TIP3    H223009   6.558   2.943  15.354  0.1703  1.3965  0.6555
  532TIP3   OH223010   4.901   0.654  13.896 -0.0588  0.0670 -0.4178
  532TIP3    H123011   4.857   0.570  13.905 -1.5853  0.7026 -1.4022
  532TIP3    H223012   4.929   0.676  13.985 -0.4654 -1.0498  0.0037
  533TIP3   OH223013   2.644   1.223   5.144  0.1208 -1.1489 -0.1190
  533TIP3    H123014   2.667   1.222   5.051  2.2935 -2.0163  0.3485
  533TIP3    H223015   2.629   1.315   5.165  0.4616 -0.8467 -1.1647
  534TIP3   OH223016   2.311   0.144  17.221 -0.1372  0.0168  0.9149
  534TIP3    H123017   2.275   0.222  17.179 -1.2331 -1.6563 -1.4777
  534TIP3    H223018   2.402   0.140  17.192 -0.3736 -0.1351  0.1756
  535TIP3   OH223019   3.684   4.918  11.606 -0.3030 -0.2251  0.0584
  535TIP3    H123020   3.734   4.889  11.682  0.4087 -1.3097 -0.7950
  535TIP3    H223021   3.722   4.870  11.533  0.3479  2.2681 -1.3297
  536TIP3   OH223022   1.334   5.529   6.188 -0.0006 -0.1259  0.8232
  536TIP3    H123023   1.408   5.477   6.216  1.0023 -0.3602 -1.9532
  536TIP3    H223024   1.303   5.573   6.268  1.5576 -1.8912  2.4828
  537TIP3   OH223025   5.802   6.377   0.633  0.1479  0.5062 -0.5445
  537TIP3    H123026   5.834   6.437   0.701  2.3720  0.9510 -1.8896
  537TIP3    H223027   5.848   6.404   0.554  0.2825 -2.2209 -1.4791
  538TIP3   OH223028   3.021   0.609   2.809 -0.3008 -0.4887  0.3702
  538TIP3    H123029   3.090   0.599   2.743 -0.9211  2.5598 -0.9306
  538TIP3    H223030   3.064   0.590   2.892  2.2481  1.5777 -0.3513
  539TIP3   OH223031   5.459   3.143   0.995  0.5138 -0.0353  0.2010
  539TIP3    H123032   5.508   3.190   0.928  0.1025  0.1649  0.0328
  539TIP3    H223033   5.524   3.091   1.042  0.8109 -0.1574 -0.3416
  540TIP3   OH223034   0.617   2.847  11.682 -0.3876 -0.4275 -0.1516
  540TIP3    H123035   0.653   2.868  11.596  3.1750 -0.2337  1.2375
  540TIP3    H223036   0.633   2.754  11.693  1.5030  0.0147  1.2184
  541TIP3   OH223037   2.546   0.321   4.333 -0.7140  0.1887 -0.0131
  541TIP3    H123038   2.583   0.233   4.330  1.2999  0.9597  0.8707
  541TIP3    H223039   2.475   0.319   4.269  1.1099 -1.2712 -2.1308
  542TIP3   OH223040   1.232   4.679  12.929 -0.3586  0.6723  0.2317
  542TIP3    H123041   1.251   4.692  13.022  0.9819  1.3039 -0.1040
  542TIP3    H223042   1.317   4.658  12.890 -1.0406 -0.4563 -0.7250
  543TIP3   OH223043   6.068   5.801  12.311 -0.1561 -0.5893 -0.0217
  543TIP3    H123044   6.149   5.754  12.292  0.3434  0.4995 -0.6730
  543TIP3    H223045   6.023   5.808  12.227 -0.6112 -0.5985  0.2150
  544TIP3   OH223046   4.105   3.857  11.024 -0.3194  0.7635 -0.0556
  544TIP3    H123047   4.081   3.780  11.075 -2.3511  1.1281 -0.3770
  544TIP3    H223048   4.197   3.873  11.045  0.2417 -1.9025 -0.2107
  545TIP3   OH223049   2.567   6.622   2.146 -0.3987 -0.0998 -0.4884
  545TIP3    H123050   2.523   6.677   2.081  0.0593 -0.2298 -0.9219
  545TIP3    H223051   2.531   6.535   2.132 -0.1334 -0.1740 -0.7337
  546TIP3   OH223052   6.676   1.348  15.068 -0.3040 -0.3126  0.4959
  546TIP3    H123053   6.625   1.361  14.988 -0.6274 -0.0001  0.7471
  546TIP3    H223054   6.759   1.391  15.051 -0.9867  1.2567  0.9388
  547TIP3   OH223055   0.303   1.854  16.997 -0.7221 -0.1134 -0.1261
  547TIP3    H123056   0.348   1.775  16.968 -1.2566 -1.1202  1.6671
  547TIP3    H223057   0.371   1.909  17.035 -0.4895 -0.0821 -0.5799
  548TIP3   OH223058   1.146   3.424   1.109  0.5790 -0.0159 -0.5098
  548TIP3    H123059   1.159   3.349   1.051  1.4571  0.4738 -0.9688
  548TIP3    H223060   1.234   3.459   1.123  0.3736 -0.0835  1.0930
  549TIP3   OH223061   4.263   3.791   5.025  0.3777  0.3256 -0.5620
  549TIP3    H123062   4.276   3.759   4.936 -2.4832  0.1095 -1.0129
  549TIP3    H223063   4.248   3.885   5.014  1.4872  0.5686 -0.1051
  550TIP3   OH223064   4.528   6.478   0.672  0.2733  0.6141  0.0139
  550TIP3    H123065   4.552   6.571   0.665  0.5752  0.4255 -2.9490
  550TIP3    H223066   4.493   6.469   0.760  2.6710  2.9306  1.3396
  551TIP3   OH223067   3.254   4.246   0.948  0.3564 -0.2681 -0.0310
  551TIP3    H123068   3.289   4.301   1.018  1.2452 -0.8619 -0.0043
  551TIP3    H223069   3.311   4.263   0.873 -0.4446  0.1832 -0.5567
  552TIP3   OH223070   3.150   5.014   2.727  0.6328  0.2066 -0.0424
  552TIP3    H123071   3.148   4.932   2.678  3.1138 -0.6712  1.1752
  552TIP3    H223072   3.219   5.065   2.685 -0.1792  1.2801 -0.1221
  553TIP3   OH223073   2.122   0.819  16.572 -0.6516  0.3691 -0.1256
  553TIP3    H123074   2.213   0.840  16.555 -0.3156 -0.2891  0.7810
  553TIP3    H223075   2.117   0.724  16.564 -0.7948  0.1734  1.8377
  554TIP3   OH223076   4.484   3.695   2.675  0.0977  0.2018  0.0512
  554TIP3    H123077   4.389   3.699   2.686  0.0982  2.1830 -0.3431
  554TIP3    H223078   4.509   3.613   2.717 -1.6807  0.0463  0.9038
  555TIP3   OH223079   6.353   2.611   0.637  0.4403  0.5393  0.1841
  555TIP3    H123080   6.308   2.537   0.677  1.7273  1.2239  3.1959
  555TIP3    H223081   6.291   2.684   0.644 -0.2770  0.1488 -1.4854
  556TIP3   OH223082   1.096   0.868   0.407  0.2560 -0.2458 -0.5963
  556TIP3    H123083   1.032   0.804   0.438  0.4414  0.0064  0.3500
  556TIP3    H223084   1.179   0.837   0.442  0.1033  1.5036  1.5769
  557TIP3   OH223085   3.652   3.455  14.275 -0.4533  0.2311 -0.2756
  557TIP3    H123086   3.654   3.550  14.288 -2.8501  0.4937 -1.2950
  557TIP3    H223087   3.737   3.425  14.307  0.2823  2.6742  0.3080
  558TIP3   OH223088   1.327   4.111   3.452 -0.6777 -0.5108 -0.1667
  558TIP3    H123089   1.376   4.141   3.375  1.2417 -0.7902  0.8622
  558TIP3    H223090   1.341   4.016   3.453 -0.5308 -0.4857  0.6016
  559TIP3   OH223091   1.436   2.912   2.489  0.2884  0.1278  0.4843
  559TIP3    H123092   1.416   2.848   2.420  0.0115 -1.5563  2.0557
  559TIP3    H223093   1.406   2.870   2.569 -0.1186  2.3780  1.5599
  560TIP3   OH223094   2.924   4.762   2.625 -0.2184  0.4385  0.1934
  560TIP3    H123095   3.005   4.768   2.676 -0.5992 -0.9112  1.0054
  560TIP3    H223096   2.922   4.672   2.594 -1.0716  0.6502 -0.4113
  561TIP3   OH223097   6.560   0.773  15.234  0.0032  0.9415 -0.2756
  561TIP3    H123098   6.554   0.706  15.303  0.9764  1.5655  0.4402
  561TIP3    H223099   6.565   0.855  15.282 -1.0457  1.5408 -1.1450
  562TIP3   OH223100   5.515   3.725  15.068  0.3065  0.4023 -0.4958
  562TIP3    H123101   5.434   3.676  15.058  0.2419 -0.0499  1.6920
  562TIP3    H223102   5.520   3.744  15.162  2.2070  1.3527 -0.7349
  563TIP3   OH223103   4.726   1.732   4.471  0.4108  0.0047 -0.1725
  563TIP3    H123104   4.685   1.818   4.461 -1.6900 -0.9149  0.0178
  563TIP3    H223105   4.818   1.752   4.488  0.0560  2.1963 -0.4533
  564TIP3   OH223106   3.264   0.417  11.281 -0.2040 -0.6358 -0.1401
  564TIP3    H123107   3.262   0.351  11.350  0.8518 -1.9937 -1.3553
  564TIP3    H223108   3.207   0.382  11.213  1.4315 -1.0030 -1.3661
  565TIP3   OH223109   3.063   0.619   2.194 -0.0395  0.0339  0.2285
  565TIP3    H123110   3.072   0.711   2.218  0.2083  0.2499 -0.6629
  565TIP3    H223111   2.987   0.616   2.136 -1.2227 -0.6320  1.7263
  566TIP3   OH223112   5.073   4.777  13.316  0.2218 -0.0617 -0.6965
  566TIP3    H123113   5.083   4.855  13.371 -0.0779 -0.0861 -0.6095
  566TIP3    H223114   4.988   4.788  13.273  0.0971 -0.4330 -0.5421
  567TIP3   OH223115   5.076   1.082  11.074  0.3498 -0.5654  0.7443
  567TIP3    H123116   4.995   1.123  11.105  0.4484  0.0153  0.2559
  567TIP3    H223117   5.053   0.990  11.063  0.0717 -0.6224  1.6854
  568TIP3   OH223118   0.432   0.686  13.960 -0.4348 -0.1739  0.2340
  568TIP3    H123119   0.463   0.724  14.042 -1.4642  0.6491  0.2512
  568TIP3    H223120   0.495   0.715  13.894 -1.4682  2.0477  0.1536
  569TIP3   OH223121   1.814   0.196   3.937 -0.1435  0.5015  0.1185
  569TIP3    H123122   1.748   0.197   3.867 -0.1795 -0.1806  0.1291
  569TIP3    H223123   1.896   0.219   3.893 -0.5146  2.2207  0.2667
  570TIP3   OH223124   1.651   1.174   1.038  0.4656 -0.4142 -0.2960
  570TIP3    H123125   1.560   1.202   1.039  0.5685 -0.0183 -1.2339
  570TIP3    H223126   1.698   1.246   0.997  1.6920  0.7782  2.8834
  571TIP3   OH223127   4.776   6.298   0.286  0.1528 -0.2500  0.3945
  571TIP3    H123128   4.708   6.309   0.218  1.9173  1.1283 -1.2507
  571TIP3    H223129   4.739   6.341   0.363 -1.4187 -0.7792 -0.0077
  572TIP3   OH223130   6.164   1.270   1.653  0.3000 -0.4106  0.4733
  572TIP3    H123131   6.254   1.266   1.686  0.0265 -3.6030  1.1344
  572TIP3    H223132   6.111   1.237   1.725 -1.3039  0.3041 -0.3419
  573TIP3   OH223133   1.209   4.665  16.294  0.1389  0.5325  0.4525
  573TIP3    H123134   1.296   4.625  16.285 -0.6620 -0.8845 -1.5748
  573TIP3    H223135   1.200   4.719  16.215 -1.1027  0.0575  0.2533
  574TIP3   OH223136   1.651   0.403  12.391  0.3797  0.3880 -0.1709
  574TIP3    H123137   1.629   0.467  12.458  0.4813 -0.2378  0.4634
  574TIP3    H223138   1.574   0.401  12.333  0.1195  0.6167  0.1649
  575TIP3   OH223139   0.039   5.397  15.791  0.4865 -0.2834  0.3496
  575TIP3    H123140  -0.047   5.399  15.833  0.4787  2.0036  0.3691
  575TIP3    H223141   0.021   5.364  15.703 -0.4394  0.1953  0.3372
  576TIP3   OH223142   2.592   4.642   1.910 -0.0764  0.2068  0.3780
  576TIP3    H123143   2.552   4.639   1.823 -0.3385  1.3208  0.4441
  576TIP3    H223144   2.671   4.589   1.902 -0.9693 -1.1298 -0.0587
  577TIP3   OH223145   0.376   2.489  17.155 -0.6423 -0.1534  0.3897
  577TIP3    H123146   0.339   2.472  17.069 -1.0175 -0.4542  0.6048
  577TIP3    H223147   0.429   2.411  17.174  0.1462  0.2864  0.0700
  578TIP3   OH223148   6.686   1.499  15.388  0.1205 -0.5327  0.1816
  578TIP3    H123149   6.684   1.431  15.321 -1.9691 -1.6091  1.2496
  578TIP3    H223150   6.612   1.479  15.445  1.3075  0.8476  2.3268
  579TIP3   OH223151   0.475   3.773   6.385  0.3029  0.1607 -0.0215
  579TIP3    H123152   0.479   3.864   6.415  2.8825 -0.9815  3.9476
  579TIP3    H223153   0.416   3.730   6.446 -0.3777 -1.0064 -1.4415
  580TIP3   OH223154   2.350   0.316   3.593  0.0997  0.0676 -0.0912
  580TIP3    H123155   2.264   0.298   3.556 -0.9815 -2.1891  3.1153
  580TIP3    H223156   2.333   0.371   3.669  1.3139 -1.2339  1.1821
  581TIP3   OH223157   6.785   5.200   4.939  0.1665 -0.0368  0.0803
  581TIP3    H123158   6.787   5.281   4.989 -0.0271 -0.3542  0.6112
  581TIP3    H223159   6.754   5.226   4.852 -0.6947  0.3417  0.4836
  582TIP3   OH223160   5.152   4.797   0.493  0.3552  0.0744  0.3218
  582TIP3    H123161   5.184   4.787   0.583  1.6025  0.2905 -0.0687
  582TIP3    H223162   5.222   4.844   0.449  0.7869 -1.9465 -1.3067
  583TIP3   OH223163   2.815   5.456   0.725  0.2849 -0.2746 -0.3188
  583TIP3    H123164   2.853   5.371   0.746  0.4011 -0.0636  0.3444
  583TIP3    H223165   2.798   5.497   0.810 -0.1999  0.1758 -0.6251
  584TIP3   OH223166   5.116   5.378   1.171  0.0204  0.2004  0.4010
  584TIP3    H123167   5.153   5.460   1.138  0.8777 -0.7163 -1.0383
  584TIP3    H223168   5.149   5.311   1.111 -1.3713 -1.0939  1.0137
  585TIP3   OH223169   2.233   1.986   2.250 -0.0648  0.0055 -0.4947
  585TIP3    H123170   2.250   1.986   2.156  0.9747  0.5677 -0.3127
  585TIP3    H223171   2.307   2.032   2.289 -0.3572 -0.4290  0.6309
  586TIP3   OH223172   0.408   3.386  15.487 -0.0635  0.4032 -0.0572
  586TIP3    H123173   0.330   3.332  15.477 -0.0353  0.3502  0.0112
  586TIP3    H223174   0.479   3.323  15.504 -0.0404  0.4663  0.0748
  587TIP3   OH223175   2.502   1.798   0.688 -0.1749  0.5295  0.6094
  587TIP3    H123176   2.524   1.741   0.614 -0.6404  1.0327  0.0742
  587TIP3    H223177   2.543   1.882   0.667  0.1800  0.5126  1.2088
  588TIP3   OH223178   0.834   2.653   0.844  0.1378  0.2483 -0.3111
  588TIP3    H123179   0.871   2.654   0.756  2.4935  1.1197  0.6040
  588TIP3    H223180   0.886   2.718   0.893 -1.0052 -0.2928  1.7549
  589TIP3   OH223181   5.019   2.714   1.164  0.1880  0.2238 -0.4813
  589TIP3    H123182   4.971   2.637   1.194  0.9031 -0.8685 -2.0057
  589TIP3    H223183   5.017   2.707   1.068  0.3312  2.0771 -0.6576
  590TIP3   OH223184   3.928   4.618  12.541 -0.1454  0.5097 -0.2638
  590TIP3    H123185   3.942   4.656  12.455 -0.0372  1.2685  0.0830
  590TIP3    H223186   3.837   4.641  12.563 -0.1488  0.3857 -0.1449
  591TIP3   OH223187   1.170   2.835   5.339  0.5658  0.4760 -0.7775
  591TIP3    H123188   1.123   2.917   5.325 -1.3485 -0.7042 -1.7119
  591TIP3    H223189   1.217   2.820   5.256 -2.7406 -1.5119 -2.5268
  592TIP3   OH223190   3.679   0.740   4.823 -0.4341  0.0602 -0.2443
  592TIP3    H123191   3.661   0.828   4.856 -3.0375  0.1851 -1.7199
  592TIP3    H223192   3.661   0.683   4.898 -0.2793  0.6836  0.2753
  593TIP3   OH223193   4.494   1.065  13.568 -0.4935  0.2811  0.3734
  593TIP3    H123194   4.476   1.051  13.661 -1.7080  1.2642  0.3177
  593TIP3    H223195   4.540   0.986  13.540 -2.8157 -1.4500  1.1283
  594TIP3   OH223196   2.810   1.100  15.434 -0.3039 -0.0463  0.1800
  594TIP3    H123197   2.748   1.054  15.378  0.7895 -0.8464 -0.4119
  594TIP3    H223198   2.781   1.191  15.433  0.1997  0.1376 -2.3999
  595TIP3   OH223199   4.904   3.022   5.344  0.1206 -0.3101 -0.4112
  595TIP3    H123200   4.866   2.963   5.280  2.1655 -0.5822 -1.4656
  595TIP3    H223201   4.917   2.968   5.422  1.0731 -1.0158 -1.0435
  596TIP3   OH223202   1.669   4.522  16.463  0.4429 -0.0926  0.5704
  596TIP3    H123203   1.603   4.537  16.395  0.4438  0.4925  0.6895
  596TIP3    H223204   1.748   4.566  16.430 -0.0279  1.7205  1.6884
  597TIP3   OH223205   2.577   5.694  13.596 -0.0728 -0.3212  0.1362
  597TIP3    H123206   2.668   5.712  13.573 -0.4598  1.2878 -0.2593
  597TIP3    H223207   2.526   5.748  13.536 -1.2910 -1.0729  0.4686
  598TIP3   OH223208   0.942   5.604  13.549 -0.5746 -0.2240 -0.4189
  598TIP3    H123209   0.963   5.595  13.456 -2.4778  1.2681 -1.0444
  598TIP3    H223210   0.848   5.588  13.555 -0.4046 -0.8255  1.3576
  599TIP3   OH223211   2.504   2.345  16.091  0.1574  0.2063  0.2511
  599TIP3    H123212   2.420   2.326  16.133 -0.0395  1.4703  0.4755
  599TIP3    H223213   2.558   2.268  16.109 -1.5465 -1.5431 -1.5742
  600TIP3   OH223214   5.090   4.389   2.592 -0.2272 -0.1314  0.3000
  600TIP3    H123215   5.146   4.313   2.578  1.3715  1.1315 -0.4561
  600TIP3    H223216   5.001   4.356   2.578  0.3879 -1.9397  0.4145
  601TIP3   OH223217   0.558   6.707   0.016  0.5418  0.0803 -0.0313
  601TIP3    H123218   0.599   6.669   0.093  1.0143  1.6464  0.5316
  601TIP3    H223219   0.523   6.791   0.046  0.0343  0.3622 -1.3329
  602TIP3   OH223220   3.651   5.893   0.180  0.7609  0.5927  0.5177
  602TIP3    H123221   3.688   5.928   0.261  1.3075 -0.9069  0.9494
  602TIP3    H223222   3.726   5.865   0.128  0.3495 -2.2391  1.2858
  603TIP3   OH223223   1.981   5.075  14.493  0.4272 -0.1736 -0.4536
  603TIP3    H123224   2.060   5.083  14.547  0.0043  0.9047  0.0478
  603TIP3    H223225   1.909   5.096  14.554 -0.3646 -2.2378 -0.5994
  604TIP3   OH223226   1.129   3.846  15.601 -0.7070 -0.0190  0.0165
  604TIP3    H123227   1.048   3.794  15.605  0.2361 -1.5985 -0.3815
  604TIP3    H223228   1.164   3.842  15.690 -1.0277  0.6066  0.1721
  605TIP3   OH223229   6.326   5.084   0.253  0.1396  0.4729  0.3694
  605TIP3    H123230   6.309   5.015   0.317 -0.8719 -0.0897 -0.4912
  605TIP3    H223231   6.243   5.132   0.247  0.3488  0.7672 -0.2167
  606TIP3   OH223232   2.817   3.253   0.100  0.1105 -0.0802  0.1662
  606TIP3    H123233   2.756   3.327   0.112 -2.4500 -1.9623 -0.3563
  606TIP3    H223234   2.826   3.215   0.188  0.1835 -0.0588  0.1679
  607TIP3   OH223235   0.480   3.392  11.023 -0.4741  0.6086  0.2160
  607TIP3    H123236   0.547   3.460  11.024 -1.3056  1.4407  1.2756
  607TIP3    H223237   0.441   3.399  10.936  0.5428  0.3472 -0.2880
  608TIP3   OH223238   1.637   4.825  16.912 -0.2260  0.2257  0.2655
  608TIP3    H123239   1.655   4.757  16.848 -1.3452  0.0123  0.1542
  608TIP3    H223240   1.715   4.880  16.912 -0.3180  0.3937 -1.4782
  609TIP3   OH223241   3.750   5.451   0.659  0.2823  0.0530  0.3471
  609TIP3    H123242   3.837   5.465   0.697 -0.3300  1.1503  1.4281
  609TIP3    H223243   3.730   5.533   0.614  0.0938 -0.4590 -0.5307
  610TIP3   OH223244   2.943   3.182   6.083 -0.5943  0.4531  0.2175
  610TIP3    H123245   2.903   3.268   6.089 -0.7286  0.3046  2.0560
  610TIP3    H223246   2.986   3.169   6.167  1.4885 -0.3070 -0.8748
  611TIP3   OH223247   4.260   5.142  15.696 -0.2167  0.2045 -0.0053
  611TIP3    H123248   4.295   5.223  15.734 -0.1866  1.1308 -1.9044
  611TIP3    H223249   4.175   5.168  15.660 -1.3712 -1.2293  1.5442
  612TIP3   OH223250   4.136   0.458   4.270  0.1119 -0.4645  0.5313
  612TIP3    H123251   4.130   0.479   4.177 -0.5060 -0.2729  0.6118
  612TIP3    H223252   4.056   0.494   4.309  0.4189 -0.4340  1.1595
  613TIP3   OH223253   6.682   2.672  13.887  0.0754  0.1651 -0.3534
  613TIP3    H123254   6.766   2.717  13.902  0.5901 -1.4129  2.2708
  613TIP3    H223255   6.626   2.703  13.958  0.1887 -2.5151  1.0421
  614TIP3   OH223256   0.652   2.292  13.365 -0.4045  0.4973 -0.2672
  614TIP3    H123257   0.679   2.382  13.344 -0.5408  0.8970  1.1730
  614TIP3    H223258   0.679   2.279  13.455 -0.4311 -0.9170 -0.4362
  615TIP3   OH223259   0.922   0.667   3.318  0.5177 -0.2462  0.4437
  615TIP3    H123260   0.975   0.648   3.396  2.8225 -0.2550 -1.0401
  615TIP3    H223261   0.953   0.753   3.289 -2.1719  1.0065  0.9352
  616TIP3   OH223262   0.732   6.391  12.910 -0.2965  0.8225  0.0257
  616TIP3    H123263   0.825   6.403  12.891 -0.1283 -1.1519 -0.5692
  616TIP3    H223264   0.709   6.307  12.870 -2.2334  1.0391  0.5575
  617TIP3   OH223265   4.211   1.323  10.963  0.0073 -0.4084 -0.0197
  617TIP3    H123266   4.133   1.313  10.908 -2.1653  1.4081  2.4458
  617TIP3    H223267   4.198   1.407  11.007  2.7521 -0.6795  1.5239
  618TIP3   OH223268   4.676   6.097   3.503 -0.0042  0.3848 -0.1172
  618TIP3    H123269   4.618   6.170   3.481 -0.9237 -0.5823 -1.0207
  618TIP3    H223270   4.652   6.074   3.593  0.4327  1.3068  0.2457
  619TIP3   OH223271   0.657   4.740  10.251  0.1898 -0.4676  0.5407
  619TIP3    H123272   0.701   4.681  10.312  1.7359 -0.9844 -0.9992
  619TIP3    H223273   0.651   4.823  10.299  3.6417 -0.1104  0.6254
  620TIP3   OH223274   6.629   6.782  10.899 -0.1198 -0.1995  0.2579
  620TIP3    H123275   6.561   6.716  10.884 -0.2687 -0.8599  3.2611
  620TIP3    H223276   6.615   6.847  10.830 -0.9552 -2.4876 -1.8761
  621TIP3   OH223277   5.757   0.784   3.503 -0.0768  0.6183  0.1090
  621TIP3    H123278   5.802   0.726   3.564  0.2481  1.3138  0.5448
  621TIP3    H223279   5.792   0.760   3.417  0.1837  0.2850  0.3068
  622TIP3   OH223280   2.561   6.486   0.735 -0.4910 -0.6637 -0.0429
  622TIP3    H123281   2.502   6.429   0.784 -2.0040  0.8439 -0.0519
  622TIP3    H223282   2.626   6.515   0.799 -0.7769 -0.9624  0.3871
  623TIP3   OH223283   0.946   6.465   3.828  0.0640  0.1398  0.3658
  623TIP3    H123284   1.010   6.530   3.857  0.4626 -0.2938  0.4804
  623TIP3    H223285   0.876   6.516   3.788  1.4156  0.5503 -1.6004
  624TIP3   OH223286   4.341   0.255   2.699  0.2170  0.3306 -0.1558
  624TIP3    H123287   4.328   0.162   2.718 -0.7504  0.6671  0.9746
  624TIP3    H223288   4.425   0.276   2.740  0.6945 -0.1387 -0.8563
  625TIP3   OH223289   1.969   3.361   5.148  0.2401 -0.0407  0.4559
  625TIP3    H123290   1.901   3.410   5.102  0.7080 -0.0470 -0.2577
  625TIP3    H223291   2.012   3.426   5.204  0.7994  0.3616 -0.4191
  626TIP3   OH223292   4.042   1.500  15.589 -0.4033 -0.1360  0.0816
  626TIP3    H123293   4.111   1.557  15.623  0.2544 -0.7529 -0.1736
  626TIP3    H223294   3.989   1.477  15.665 -0.2954  0.3129  0.2899
  627TIP3   OH223295   4.457   3.328  12.650 -0.1003 -0.6098 -0.0303
  627TIP3    H123296   4.486   3.419  12.657 -0.7006 -0.4530  0.6020
  627TIP3    H223297   4.383   3.322  12.710 -0.1731 -1.4776 -0.1885
  628TIP3   OH223298   2.824   4.803   3.323  0.0574  0.1303 -0.4062
  628TIP3    H123299   2.771   4.733   3.362 -0.1314  0.2640 -0.4233
  628TIP3    H223300   2.834   4.777   3.231  0.7278 -0.3224 -0.2141
  629TIP3   OH223301   0.054   2.631  15.102 -0.2775  0.3576  0.1920
  629TIP3    H123302   0.046   2.554  15.158 -1.7233  1.8072  2.1239
  629TIP3    H223303   0.071   2.596  15.015  0.8817 -2.0501  1.3010
  630TIP3   OH223304   1.961   4.785  14.062 -0.4047 -0.0416 -0.3159
  630TIP3    H123305   2.000   4.824  13.984 -0.4339  0.0401 -0.2888
  630TIP3    H223306   1.974   4.691  14.049 -1.4153 -0.1055 -0.9473
  631TIP3   OH223307   5.124   5.786   2.841 -0.0532 -0.0718 -0.4502
  631TIP3    H123308   5.189   5.855   2.852 -0.5375  0.5669 -1.4053
  631TIP3    H223309   5.150   5.741   2.761  0.7863 -1.6266  0.6471
  632TIP3   OH223310   6.599   2.047  13.589 -0.8421 -0.3028 -0.2639
  632TIP3    H123311   6.649   1.979  13.544 -0.6180  0.1483 -0.7003
  632TIP3    H223312   6.513   2.008  13.604 -0.6416 -0.7658 -0.2983
  633TIP3   OH223313   5.746   3.809  14.937 -0.1534  0.1527 -0.7623
  633TIP3    H123314   5.725   3.853  14.854 -1.0981 -0.1383 -0.6905
  633TIP3    H223315   5.661   3.780  14.971  0.4510 -2.2216 -1.0864
  634TIP3   OH223316   6.016   2.379  14.840  0.1868  0.0166 -0.0373
  634TIP3    H123317   5.962   2.300  14.840 -2.6620  1.8144 -1.1664
  634TIP3    H223318   5.967   2.442  14.893  0.9689  1.8356 -1.3548
  635TIP3   OH223319   4.344   4.358   1.854 -0.4526  0.2339 -0.2863
  635TIP3    H123320   4.382   4.331   1.937 -2.5401 -0.0117  0.6627
  635TIP3    H223321   4.249   4.349   1.867 -0.8833  1.0965 -2.3812
  636TIP3   OH223322   1.420   2.724  11.501 -0.2591 -0.2485 -0.3149
  636TIP3    H123323   1.476   2.757  11.571  0.5153 -0.5551 -0.7840
  636TIP3    H223324   1.451   2.769  11.422  1.3585 -2.6086 -1.1259
  637TIP3   OH223325   0.106   0.156  14.000  0.3842  0.0161  0.0636
  637TIP3    H123326   0.084   0.083  13.942  1.1414 -0.8959  0.8822
  637TIP3    H223327   0.195   0.181  13.975  0.4194  0.1429  0.3110
  638TIP3   OH223328   2.694   0.806   1.839  0.5084 -0.5624  0.0827
  638TIP3    H123329   2.664   0.814   1.930 -1.1121 -2.2362 -0.2565
  638TIP3    H223330   2.620   0.767   1.793  2.1485 -1.9552 -1.4794
  639TIP3   OH223331   0.485   2.276  14.027 -0.2672 -0.6348 -0.1762
  639TIP3    H123332   0.430   2.342  13.987  1.9787  0.2928 -2.0027
  639TIP3    H223333   0.443   2.193  14.005 -0.8907  0.0293 -1.5865
  640TIP3   OH223334   2.290   0.307   2.037 -0.3683 -0.0540  0.0861
  640TIP3    H123335   2.385   0.298   2.042 -0.3877 -0.1504  0.3142
  640TIP3    H223336   2.256   0.222   2.066 -0.5486  0.4359  1.3590
  641TIP3   OH223337   5.044   4.742   0.844 -0.1690  0.1399  0.2624
  641TIP3    H123338   5.002   4.657   0.835  0.8177 -0.3489  0.0439
  641TIP3    H223339   5.136   4.721   0.862  0.2686  1.1586 -0.6734
  642TIP3   OH223340   6.724   5.224   5.820 -0.1680  0.2572  0.4574
  642TIP3    H123341   6.798   5.215   5.759 -0.8371 -0.2376 -0.2955
  642TIP3    H223342   6.752   5.176   5.898  0.0065 -0.6158 -0.1185
  643TIP3   OH223343   5.359   4.135   5.301 -0.0202  0.2341  0.3326
  643TIP3    H123344   5.454   4.143   5.296 -0.1380  1.4366 -0.4039
  643TIP3    H223345   5.343   4.042   5.317  1.2678 -0.0244  0.1860
  644TIP3   OH223346   6.780   1.788   3.792  0.1815  0.4005  0.1791
  644TIP3    H123347   6.739   1.862   3.837  2.1744  2.0983 -0.6346
  644TIP3    H223348   6.788   1.817   3.701  1.9145 -0.3932  0.0459
  645TIP3   OH223349   2.138   6.334   3.855  0.2240  0.2512 -0.2328
  645TIP3    H123350   2.202   6.395   3.891 -0.6494  0.9360  0.2063
  645TIP3    H223351   2.064   6.389   3.829 -0.5712 -0.6093  0.1390
  646TIP3   OH223352   6.520   3.878   3.411 -0.3378 -0.0390 -0.0614
  646TIP3    H123353   6.447   3.821   3.386 -0.9357  0.6730 -0.0025
  646TIP3    H223354   6.577   3.878   3.334 -2.4828  2.6535 -1.8589
  647TIP3   OH223355   3.465   0.489   0.694  0.1219  0.3477  0.2513
  647TIP3    H123356   3.505   0.412   0.655 -0.2115 -0.1205  0.8200
  647TIP3    H223357   3.517   0.563   0.661 -0.1470 -0.0209 -1.0672
  648TIP3   OH223358   4.055   2.947  15.419  0.3829  0.2929  0.4532
  648TIP3    H123359   3.977   2.983  15.462 -1.2318 -0.9785 -1.2663
  648TIP3    H223360   4.064   2.999  15.339 -0.7222 -1.6251 -1.0007
  649TIP3   OH223361   3.417   4.539  15.086  0.3461  0.7140  0.0293
  649TIP3    H123362   3.365   4.602  15.037  0.5637  1.7040  1.0401
  649TIP3    H223363   3.479   4.592  15.135  0.5645 -0.2898  0.8656
  650TIP3   OH223364   4.787   1.988  14.521  0.5455  0.5424  0.1194
  650TIP3    H123365   4.792   1.955  14.431  0.0700  0.6710  0.0429
  650TIP3    H223366   4.850   1.935  14.570  2.3287  1.7961 -0.6825
  651TIP3   OH223367   4.045   4.157   5.580 -0.0113 -0.6820  0.1088
  651TIP3    H123368   4.010   4.136   5.494  0.3145 -1.2707  0.1143
  651TIP3    H223369   4.136   4.130   5.577 -0.1768 -1.3717  0.8626
  652TIP3   OH223370   4.804   1.462  14.007  0.0806  0.5355  0.1005
  652TIP3    H123371   4.819   1.368  14.010 -0.7901  0.4044  1.3817
  652TIP3    H223372   4.774   1.479  13.918  0.4083 -0.3609 -0.1951
  653TIP3   OH223373   3.340   1.233  13.382 -0.1050 -0.0100 -0.6208
  653TIP3    H123374   3.435   1.240  13.388 -0.1690  1.0400 -0.6525
  653TIP3    H223375   3.324   1.188  13.299  0.3282  1.2097 -1.3812
  654TIP3   OH223376   4.124   0.059  14.350 -0.0089  0.1089  0.3308
  654TIP3    H123377   4.157  -0.017  14.303 -0.1306 -0.0854  0.5521
  654TIP3    H223378   4.175   0.133  14.317 -0.6769  0.1148 -0.7306
  655TIP3   OH223379   5.035   4.914   4.903 -0.6554 -0.5377  0.3056
  655TIP3    H123380   5.080   4.946   4.825  0.4300 -1.7004  0.4217
  655TIP3    H223381   5.051   4.981   4.969  2.4553 -1.6748  0.8416
  656TIP3   OH223382   5.415   2.320   1.128 -0.2256 -0.1263 -0.8401
  656TIP3    H123383   5.455   2.237   1.154  0.2337  0.2112 -0.4526
  656TIP3    H223384   5.322   2.309   1.150  0.1711  0.2373  1.2790
  657TIP3   OH223385   5.163   5.351   5.165  0.4412 -0.2143  0.0117
  657TIP3    H123386   5.228   5.408   5.124 -1.3666  2.2026  0.2265
  657TIP3    H223387   5.082   5.403   5.165 -1.4085 -2.8598  0.1669
  658TIP3   OH223388   0.734   0.648   2.133 -0.3427 -0.0021  0.6419
  658TIP3    H123389   0.771   0.677   2.049 -1.9105  1.5570  0.4382
  658TIP3    H223390   0.811   0.630   2.187  0.7038  0.1679 -0.7141
  659TIP3   OH223391   1.341   2.635  16.214  0.3940  0.4458 -0.8056
  659TIP3    H123392   1.427   2.645  16.254 -0.3597 -0.4334  1.2090
  659TIP3    H223393   1.336   2.542  16.192  0.1530  0.5989 -1.4175
  660TIP3   OH223394   3.626   4.622  16.018 -0.3005 -0.7296  0.0420
  660TIP3    H123395   3.575   4.642  15.940  0.4213 -0.9293 -0.4944
  660TIP3    H223396   3.710   4.589  15.984  0.7598  0.9869  0.8905
  661TIP3   OH223397   2.867   0.732  13.444 -0.2795 -0.0952 -0.3127
  661TIP3    H123398   2.773   0.744  13.434 -1.1145 -1.8440  3.6263
  661TIP3    H223399   2.890   0.784  13.521  1.4069 -1.6574  0.3264
  662TIP3   OH223400   3.903   5.997   5.090 -0.4339 -0.5142 -0.2313
  662TIP3    H123401   3.916   6.046   5.009  1.5333  0.5116  0.6284
  662TIP3    H223402   3.942   5.911   5.074  2.1091  0.4466  0.2779
  663TIP3   OH223403   3.161   3.716  12.667  0.4320  0.3086  0.4989
  663TIP3    H123404   3.111   3.721  12.585 -0.4024  1.4458  1.0588
  663TIP3    H223405   3.243   3.673  12.642  0.5378  1.3680 -1.1054
  664TIP3   OH223406   5.119   2.101   1.962  0.2264  0.3997 -0.5549
  664TIP3    H123407   5.034   2.125   1.998  0.8081  0.4868  0.8224
  664TIP3    H223408   5.125   2.150   1.880 -0.5534  1.3379 -0.0683
  665TIP3   OH223409   2.392   3.702   0.996 -0.4271  0.0934  0.4727
  665TIP3    H123410   2.376   3.796   0.984  1.8024  0.6014  0.8786
  665TIP3    H223411   2.355   3.681   1.081 -1.1477  0.5533  0.2747
  666TIP3   OH223412   2.155   6.486  12.227  0.0509 -0.0607 -0.1654
  666TIP3    H123413   2.077   6.444  12.190  0.0147 -0.0239 -0.1300
  666TIP3    H223414   2.129   6.513  12.315  0.9763 -2.6718  1.0104
  667TIP3   OH223415   1.463   6.591  12.223  0.2373  0.6683 -0.4589
  667TIP3    H123416   1.387   6.583  12.281  0.1183 -0.2693 -0.7369
  667TIP3    H223417   1.436   6.551  12.141  0.4676  1.8291 -1.1294
  668TIP3   OH223418   5.490   3.798  13.622  0.0185  0.2360 -0.0778
  668TIP3    H123419   5.565   3.850  13.593  0.4973 -0.2211  0.3229
  668TIP3    H223420   5.427   3.862  13.653 -0.3662  0.7224 -1.7917
  669TIP3   OH223421   5.086   6.557  10.267 -0.4452  0.6420  0.3216
  669TIP3    H123422   5.096   6.471  10.309  1.9230  0.3087 -0.7504
  669TIP3    H223423   4.994   6.580  10.282 -0.8123 -1.4401  1.8145
  670TIP3   OH223424   4.550   3.287   4.209 -0.1058  0.0389  0.3905
  670TIP3    H123425   4.538   3.378   4.235 -2.0587 -0.2543  0.7211
  670TIP3    H223426   4.516   3.284   4.119  0.1879 -0.3023  0.2914
  671TIP3   OH223427   6.323   6.121   5.019  0.6475  0.1338  0.0886
  671TIP3    H123428   6.409   6.103   5.057  0.7222 -0.0663 -0.1778
  671TIP3    H223429   6.272   6.042   5.036 -0.6917  1.5210  3.5748
  672TIP3   OH223430   4.781   1.241  14.577  0.0484  0.0316  0.1225
  672TIP3    H123431   4.860   1.188  14.583 -0.7872 -1.0866  1.9961
  672TIP3    H223432   4.769   1.276  14.665 -1.7136 -0.0705 -0.0496
  673TIP3   OH223433   2.138   2.212   5.055 -0.0267 -0.1239 -0.4894
  673TIP3    H123434   2.129   2.119   5.076  3.4977  0.0065  2.6402
  673TIP3    H223435   2.178   2.213   4.967 -0.4682 -1.5336 -0.7318
  674TIP3   OH223436   0.287   6.476  16.347 -0.5480  0.0057  0.0459
  674TIP3    H123437   0.275   6.445  16.437  0.4324 -0.9432 -0.1368
  674TIP3    H223438   0.272   6.398  16.292  0.1483  0.2672 -0.5323
  675TIP3   OH223439   5.560   5.840  15.753 -0.9392 -0.6862 -0.6586
  675TIP3    H123440   5.574   5.847  15.847 -0.2600  0.1972 -0.8133
  675TIP3    H223441   5.645   5.860  15.714 -0.2446 -4.3541 -1.4167
  676TIP3   OH223442   5.087   1.340   6.081 -0.5208 -0.1922 -0.3816
  676TIP3    H123443   5.150   1.278   6.045 -0.8541 -0.4725 -0.4888
  676TIP3    H223444   5.132   1.424   6.078 -0.3070 -0.3185 -0.8606
  677TIP3   OH223445   4.733   6.688  13.468 -0.2193 -0.2870  0.0683
  677TIP3    H123446   4.735   6.762  13.407 -4.4844  0.4952  0.5776
  677TIP3    H223447   4.778   6.720  13.546 -0.8951  1.3209 -0.1669
  678TIP3   OH223448   1.870   6.162  14.409 -0.2955 -0.4373 -0.0835
  678TIP3    H123449   1.823   6.203  14.481 -0.6864 -0.3397 -0.3912
  678TIP3    H223450   1.956   6.204  14.410 -0.5282  0.0478 -0.0976
  679TIP3   OH223451   5.022   5.495  16.531 -0.0597 -0.5096  0.2817
  679TIP3    H123452   5.037   5.570  16.473  0.2749 -1.0374 -0.3208
  679TIP3    H223453   5.068   5.518  16.612  1.4547 -0.7686 -0.4692
  680TIP3   OH223454   2.758   0.197   3.238  0.4931  0.2914 -0.3057
  680TIP3    H123455   2.761   0.157   3.152 -1.1346 -0.9183  0.1510
  680TIP3    H223456   2.671   0.237   3.244  0.1216 -0.6410  1.1647
  681TIP3   OH223457   6.721   0.651   0.711 -0.3523  0.1509 -0.5726
  681TIP3    H123458   6.629   0.642   0.735 -0.3660  0.7844 -0.3512
  681TIP3    H223459   6.723   0.636   0.616 -1.1375  2.8293 -1.1033
  682TIP3   OH223460   3.452   6.265   4.542  0.7185 -0.0729 -0.3727
  682TIP3    H123461   3.466   6.359   4.551 -1.7842  0.3518 -0.0003
  682TIP3    H223462   3.450   6.250   4.447  1.6952  0.1348 -0.4283
  683TIP3   OH223463   2.275   6.173  17.126 -0.2120  0.0280  0.0987
  683TIP3    H123464   2.288   6.231  17.051  1.7764  0.4622  0.7327
  683TIP3    H223465   2.300   6.086  17.093  1.9402  0.4223  0.5535
  684TIP3   OH223466   5.234   4.846  15.011 -0.0701 -0.8608 -0.0257
  684TIP3    H123467   5.208   4.917  14.952 -2.4827  0.8470  2.8224
  684TIP3    H223468   5.251   4.772  14.952 -2.4441  0.6341 -2.8773
  685TIP3   OH223469   5.619   2.930   1.028 -0.2906 -0.1958 -0.4183
  685TIP3    H123470   5.679   2.901   0.960  0.0377 -0.6920  0.0749
  685TIP3    H223471   5.532   2.903   0.998  0.0456 -2.1077  0.2267
  686TIP3   OH223472   1.216   5.491   3.545 -0.0337  0.1289 -0.1070
  686TIP3    H123473   1.174   5.420   3.496 -1.2187  0.3124  0.6093
  686TIP3    H223474   1.233   5.453   3.632 -2.1871  1.1529  0.8432
  687TIP3   OH223475   5.637   5.715   0.843 -0.5815 -0.1855 -0.4572
  687TIP3    H123476   5.553   5.670   0.842 -1.3514  0.9648  2.3236
  687TIP3    H223477   5.675   5.693   0.928  0.5917  1.5909 -0.4614
  688TIP3   OH223478   5.317   2.601   1.201 -0.3226 -0.3311 -0.2309
  688TIP3    H123479   5.246   2.641   1.250  0.4551  1.1853 -0.2874
  688TIP3    H223480   5.334   2.661   1.129 -1.1871 -2.3292 -2.2234
  689TIP3   OH223481   3.528   6.720  16.647 -0.2121 -1.0091 -0.1460
  689TIP3    H123482   3.450   6.670  16.621 -1.2549  0.7226 -0.5163
  689TIP3    H223483   3.497   6.777  16.717  0.1551  1.1644 -1.6566
  690TIP3   OH223484   3.055   6.654   3.859  1.0872  0.0267  0.3689
  690TIP3    H123485   3.083   6.566   3.881  3.8585  0.9863  1.0139
  690TIP3    H223486   3.058   6.657   3.763 -0.3651 -0.9127  0.2535
  691TIP3   OH223487   3.476   4.444   4.676 -0.4414 -0.2619 -0.1448
  691TIP3    H123488   3.418   4.476   4.607 -0.6596  0.7540  0.4795
  691TIP3    H223489   3.563   4.444   4.637 -0.3843  1.4565 -0.0795
  692TIP3   OH223490   3.678   4.355   1.724  0.3627  0.4114 -0.0102
  692TIP3    H123491   3.667   4.393   1.811  0.4806  1.5746 -0.4847
  692TIP3    H223492   3.649   4.423   1.664  2.6616  0.6212 -0.9863
  693TIP3   OH223493   3.018   5.600   2.323  0.2092 -0.1569  0.2455
  693TIP3    H123494   3.050   5.622   2.410 -0.0435  3.4569 -0.4286
  693TIP3    H223495   2.933   5.558   2.339  1.1383 -1.6290  1.7180
  694TIP3   OH223496   2.896   2.795  17.173  0.2516  0.7569  0.0041
  694TIP3    H123497   2.983   2.831  17.157 -0.2000  1.3989 -1.0952
  694TIP3    H223498   2.860   2.780  17.086 -0.2804 -0.6515  0.4483
  695TIP3   OH223499   4.844   1.392   5.967 -0.4242  0.4328 -0.2081
  695TIP3    H123500   4.933   1.392   6.003 -0.9754  1.2577  1.2207
  695TIP3    H223501   4.787   1.406   6.043 -1.7591  0.3639 -1.1582
  696TIP3   OH223502   6.022   3.025   3.892 -0.2200  0.4325  0.4375
  696TIP3    H123503   6.053   3.113   3.870  0.7451  0.0666  0.2513
  696TIP3    H223504   5.928   3.034   3.903 -0.1932  1.3957 -0.0380
  697TIP3   OH223505   4.616   4.357   0.201 -0.3630 -0.2522 -0.3466
  697TIP3    H123506   4.576   4.409   0.131 -0.7561  0.1122  0.1373
  697TIP3    H223507   4.666   4.421   0.253  0.3696 -0.6074 -0.6018
  698TIP3   OH223508   3.957   6.070  11.730 -0.4374  0.1078  0.1774
  698TIP3    H123509   3.968   6.073  11.635  0.4756 -0.6840  0.2476
  698TIP3    H223510   3.862   6.068  11.743 -0.5985  1.5250 -0.6585
  699TIP3   OH223511   5.415   1.401   0.547  0.4559  0.0512 -0.0195
  699TIP3    H123512   5.412   1.496   0.533  3.2514  0.3784  0.9689
  699TIP3    H223513   5.461   1.390   0.631  1.5942 -2.1756 -0.8372
  700TIP3   OH223514   5.211   4.462   2.254 -0.4628 -0.4188 -0.1152
  700TIP3    H123515   5.184   4.373   2.275 -1.0522 -0.0336  0.8628
  700TIP3    H223516   5.184   4.514   2.330  0.7732  0.4307 -0.2136
  701TIP3   OH223517   0.635   0.575  12.653 -0.1379  0.3124  0.0643
  701TIP3    H123518   0.700   0.641  12.630  0.1291  0.8186  2.1128
  701TIP3    H223519   0.556   0.625  12.674 -0.5838 -0.1765 -0.3909
  702TIP3   OH223520   6.039   2.786  11.044  0.1246  0.4995 -0.6164
  702TIP3    H123521   6.032   2.865  11.097  1.7857 -0.9574  1.9700
  702TIP3    H223522   5.968   2.793  10.981 -1.3079  2.8613  1.1079
  703TIP3   OH223523   0.273   3.741   2.827 -0.1912 -0.2828 -0.3263
  703TIP3    H123524   0.257   3.653   2.793 -0.9046 -0.1268 -0.4188
  703TIP3    H223525   0.279   3.796   2.749  0.6618 -0.3059 -0.2850
  704TIP3   OH223526   5.397   4.733  13.565  0.0723 -0.6392 -0.2233
  704TIP3    H123527   5.341   4.797  13.610 -0.6893 -2.2367  1.1909
  704TIP3    H223528   5.484   4.747  13.603 -0.0519 -0.3640 -0.0315
  705TIP3   OH223529   1.995   5.671  15.978  0.4321 -0.3160  0.3804
  705TIP3    H123530   1.934   5.694  16.048 -0.4952 -0.9999 -0.1795
  705TIP3    H223531   2.062   5.617  16.021  0.7398  0.5717  1.0288
  706TIP3   OH223532   3.280   5.184  14.137  0.6280  0.4206  0.0574
  706TIP3    H123533   3.202   5.171  14.192 -0.3117  0.1130 -1.2993
  706TIP3    H223534   3.256   5.146  14.052  2.7064 -0.8241 -0.0511
  707TIP3   OH223535   3.192   1.651  15.310 -0.1468 -1.2765 -0.2562
  707TIP3    H123536   3.173   1.736  15.271  0.4341  0.0096  2.0717
  707TIP3    H223537   3.106   1.614  15.330 -0.4047 -1.2788 -1.3149
  708TIP3   OH223538   3.392   1.848   4.522 -0.0695  0.0746 -0.9458
  708TIP3    H123539   3.441   1.857   4.603  1.5837 -0.3068 -1.8565
  708TIP3    H223540   3.339   1.928   4.517  1.4748  1.1866 -0.5564
  709TIP3   OH223541   2.048   6.169  11.355 -0.1079 -0.6489 -0.6657
  709TIP3    H123542   2.072   6.248  11.307  0.7567 -0.3372  0.2269
  709TIP3    H223543   1.991   6.121  11.296 -0.2099  0.3838 -1.4372
  710TIP3   OH223544   5.189   2.019  13.991  0.7026  0.2845 -0.0205
  710TIP3    H123545   5.156   1.938  14.030 -0.3037  0.8265  0.2965
  710TIP3    H223546   5.143   2.026  13.908  1.7624 -0.1207 -0.6641
  711TIP3   OH223547   4.860   2.686   3.822  0.1758 -0.3781  0.7943
  711TIP3    H123548   4.862   2.729   3.908  0.8360  1.8989 -0.2866
  711TIP3    H223549   4.784   2.725   3.778  1.6968  0.9227 -0.7873
  712TIP3   OH223550   3.068   5.215   0.023  0.4949  0.0382  0.2148
  712TIP3    H123551   3.161   5.215   0.046  0.6141  0.5980 -0.2406
  712TIP3    H223552   3.025   5.261   0.095  0.9778  2.6131 -1.0211
  713TIP3   OH223553   0.037   5.104  16.414 -0.2071  0.5391  0.1464
  713TIP3    H123554   0.113   5.127  16.362 -0.8182  2.7348  0.1231
  713TIP3    H223555  -0.037   5.110  16.353 -0.4004 -2.5072 -0.0912
  714TIP3   OH223556   1.061   1.029   0.170  0.3625  0.7946 -0.0378
  714TIP3    H123557   1.083   0.963   0.236 -0.8078 -0.9455 -1.3181
  714TIP3    H223558   1.146   1.063   0.141  0.9909 -0.0834  0.7208
  715TIP3   OH223559   5.206   5.859  10.470 -0.0890 -0.2456 -0.4349
  715TIP3    H123560   5.291   5.820  10.449  0.5183  1.0808 -0.5727
  715TIP3    H223561   5.221   5.953  10.461 -0.5357  0.3093  3.2032
  716TIP3   OH223562   3.222   1.079  10.400  0.2719  0.4649  0.0792
  716TIP3    H123563   3.288   1.069  10.468 -0.3292  0.2604  0.6424
  716TIP3    H223564   3.161   1.144  10.435  0.4585  1.0605 -0.6673
  717TIP3   OH223565   0.527   1.835   3.665 -0.2715 -0.3071  0.0123
  717TIP3    H123566   0.586   1.897   3.707 -1.9113  2.7457 -1.8210
  717TIP3    H223567   0.527   1.860   3.572 -0.7699 -3.3588 -0.9441
  718TIP3   OH223568   4.925   2.119  13.146 -0.1165  0.0769  0.2614
  718TIP3    H123569   4.928   2.199  13.093  1.6153 -0.5079 -0.5865
  718TIP3    H223570   4.896   2.051  13.086  0.0869 -0.2528  0.5336
  719TIP3   OH223571   3.500   1.455  13.826 -0.4704 -0.0391  0.1206
  719TIP3    H123572   3.452   1.394  13.881  0.6599  0.0919  1.2969
  719TIP3    H223573   3.452   1.456  13.743 -1.5058 -1.1666  0.6842
  720TIP3   OH223574   5.980   2.489  15.629 -0.6176 -0.1505  0.5675
  720TIP3    H123575   5.978   2.417  15.692 -0.5503 -1.1954 -0.6104
  720TIP3    H223576   5.920   2.463  15.560  1.2276 -0.2052 -1.0816
  721TIP3   OH223577   3.149   2.208   1.991 -0.3055  0.2523 -0.2658
  721TIP3    H123578   3.216   2.260   1.947 -0.6514 -1.6073 -3.2475
  721TIP3    H223579   3.198   2.149   2.049  0.3786  0.9654 -0.1034
  722TIP3   OH223580   4.704   3.635   6.031 -1.0383 -0.1738  0.0017
  722TIP3    H123581   4.611   3.635   6.055 -1.0625  1.7154  0.0602
  722TIP3    H223582   4.748   3.598   6.107 -1.6434  0.0908  0.4954
  723TIP3   OH223583   1.157   1.113  14.772  0.1679  0.2208  0.1959
  723TIP3    H123584   1.247   1.086  14.787  0.9999  1.7593 -1.6212
  723TIP3    H223585   1.149   1.198  14.815 -0.4971  0.0027  0.5246
  724TIP3   OH223586   0.091   6.141   5.742 -0.7103 -0.1162  0.0383
  724TIP3    H123587   0.155   6.136   5.813 -0.8782 -0.6425  0.1542
  724TIP3    H223588   0.138   6.185   5.671 -0.4739  0.2208  0.3968
  725TIP3   OH223589   1.725   1.219  15.435 -0.1129 -0.1712  0.2892
  725TIP3    H123590   1.701   1.297  15.485  0.5808 -0.1296  0.5734
  725TIP3    H223591   1.660   1.153  15.458 -1.3245  0.6191 -0.7290
  726TIP3   OH223592   5.766   5.899  15.456 -0.0660 -0.1709  0.5006
  726TIP3    H123593   5.804   5.910  15.543 -0.0820  0.6804  0.4064
  726TIP3    H223594   5.688   5.955  15.456  0.3987  0.5065 -0.3272
  727TIP3   OH223595   5.437   0.885   5.052  0.2430  0.8147  0.2545
  727TIP3    H123596   5.420   0.837   5.132  0.2688 -1.0902 -0.8379
  727TIP3    H223597   5.527   0.862   5.029 -0.4256 -0.3414 -1.3829
  728TIP3   OH223598   2.624   4.499   4.530 -0.4022 -0.1487 -0.1804
  728TIP3    H123599   2.677   4.554   4.588 -2.3516  1.3168  0.3036
  728TIP3    H223600   2.637   4.537   4.443  0.2759 -0.5657 -0.2706
  729TIP3   OH223601   0.950   5.985   5.254 -0.1081  0.1760  0.1761
  729TIP3    H123602   1.037   5.984   5.292 -0.2900 -2.1774  0.7185
  729TIP3    H223603   0.960   5.941   5.170 -0.2277  2.8715 -1.3499
  730TIP3   OH223604   3.695   6.009  11.305 -0.3634  0.5670 -0.4180
  730TIP3    H123605   3.725   6.025  11.216 -1.9278  0.7277 -0.9417
  730TIP3    H223606   3.600   6.023  11.302 -0.3790  1.1276  1.4003
  731TIP3   OH223607   2.887   1.256   1.089 -0.2314 -0.3692  0.0225
  731TIP3    H123608   2.914   1.277   1.178 -0.1535  2.4404 -0.5694
  731TIP3    H223609   2.969   1.237   1.043 -0.3211 -2.4916  0.6148
  732TIP3   OH223610   3.566   6.116   5.120 -0.5827 -0.5233 -0.8567
  732TIP3    H123611   3.572   6.063   5.040 -0.1151  0.8611 -1.7808
  732TIP3    H223612   3.473   6.113   5.143 -0.7339 -0.9050 -1.4802
  733TIP3   OH223613   3.654   3.775  14.817  0.0055 -0.0200  0.3106
  733TIP3    H123614   3.687   3.686  14.833  0.5896  0.3930  1.5833
  733TIP3    H223615   3.583   3.785  14.880 -1.2048 -0.1694 -1.0071
  734TIP3   OH223616   0.514   4.554  13.141 -0.2365  0.0904  0.1850
  734TIP3    H123617   0.478   4.635  13.105 -0.7740 -1.2576 -2.5413
  734TIP3    H223618   0.590   4.534  13.085 -1.5508 -2.4999 -0.8322
  735TIP3   OH223619   1.990   3.427  13.996  0.1704  0.0311 -0.2311
  735TIP3    H123620   2.081   3.452  14.015  0.4120 -0.7167 -0.3533
  735TIP3    H223621   1.996   3.371  13.918 -0.3883 -0.0602 -0.2142
  736TIP3   OH223622   5.773   0.308  16.186  0.0157  0.1969 -0.0262
  736TIP3    H123623   5.705   0.270  16.241  0.3850  0.1932  0.4424
  736TIP3    H223624   5.837   0.344  16.249 -0.1843  1.3344 -0.4494
  737TIP3   OH223625   2.653   2.155  10.949  0.3543 -0.0648 -0.4973
  737TIP3    H123626   2.659   2.234  11.003  1.4506 -0.5588  0.1336
  737TIP3    H223627   2.585   2.175  10.885 -0.5653  0.7635  0.6930
  738TIP3   OH223628   4.817   4.579   1.308  0.1067  0.1178 -0.2436
  738TIP3    H123629   4.776   4.628   1.237  0.5084 -0.4498 -0.8844
  738TIP3    H223630   4.849   4.646   1.369  0.3495  0.6326 -0.9346
  739TIP3   OH223631   5.740   0.886   4.013 -0.3072 -0.4074 -0.0755
  739TIP3    H123632   5.722   0.959   4.072 -1.4280 -0.8170  0.1135
  739TIP3    H223633   5.696   0.909   3.931  2.0658  0.6341 -1.1765
  740TIP3   OH223634   4.002   5.574  14.932 -0.6074  0.3312 -0.1140
  740TIP3    H123635   4.049   5.568  15.015 -0.1408 -0.9428 -0.4504
  740TIP3    H223636   3.996   5.668  14.914 -0.4055  0.6014  1.1784
  741TIP3   OH223637   3.841   2.394   3.914  0.0354 -0.2684 -0.4531
  741TIP3    H123638   3.833   2.314   3.862 -4.3292  0.0056 -0.5568
  741TIP3    H223639   3.825   2.367   4.004 -0.3411  0.3039 -0.3382
  742TIP3   OH223640   6.075   0.878  15.162  0.6409 -0.0663  0.5670
  742TIP3    H123641   6.137   0.822  15.209  0.3403  0.4286  1.5881
  742TIP3    H223642   6.130   0.946  15.121  0.9887 -0.9798 -0.5340
  743TIP3   OH223643   5.124   2.307  15.285 -0.3724  0.6104 -0.1579
  743TIP3    H123644   5.134   2.398  15.313 -1.9047  1.0285 -0.8259
  743TIP3    H223645   5.209   2.267  15.301  0.1747  2.0185  0.6552
  744TIP3   OH223646   0.626   3.755   4.039  0.0547  0.2959  0.0429
  744TIP3    H123647   0.612   3.849   4.027 -0.3296  0.2820  0.3695
  744TIP3    H223648   0.620   3.742   4.134  0.2324 -0.0408  0.0098
  745TIP3   OH223649   1.964   0.062  14.245  0.0913  0.1079  0.0189
  745TIP3    H123650   1.982   0.069  14.152  1.0380 -0.1374  0.1730
  745TIP3    H223651   2.013   0.134  14.285 -0.2482  0.1665  0.3319
  746TIP3   OH223652   5.359   3.027  13.695 -0.0160 -0.5571 -0.1767
  746TIP3    H123653   5.440   3.042  13.743  0.7728 -0.4026 -1.5117
  746TIP3    H223654   5.370   2.942  13.654  0.5995  0.5371 -2.4545
  747TIP3   OH223655   6.173   0.161  14.845 -1.0509 -0.4472 -0.4355
  747TIP3    H123656   6.147   0.252  14.853  0.8855  0.0798  0.4081
  747TIP3    H223657   6.097   0.117  14.806 -1.7430  1.6449 -1.5727
  748TIP3   OH223658   6.261   3.068  15.518  0.3468 -0.7090  0.3128
  748TIP3    H123659   6.276   2.979  15.485 -1.5578 -0.8460 -0.2828
  748TIP3    H223660   6.306   3.070  15.603  1.4993 -1.8117 -0.2412
  749TIP3   OH223661   2.430   4.540  15.882 -0.5382  0.4243  0.7958
  749TIP3    H123662   2.466   4.623  15.912 -1.0419  1.3154 -0.9506
  749TIP3    H223663   2.503   4.478  15.892  0.6070  1.5837 -0.0475
  750TIP3   OH223664   0.151   0.640  13.629  0.7331 -0.5882 -0.3032
  750TIP3    H123665   0.201   0.678  13.556  1.3658  0.5583  0.6834
  750TIP3    H223666   0.184   0.686  13.706 -0.2245 -1.4763  0.6598
  751TIP3   OH223667   4.276   2.606   3.477  0.6607  0.0749  0.6077
  751TIP3    H123668   4.243   2.547   3.544  1.8211 -0.3619  0.8222
  751TIP3    H223669   4.212   2.600   3.406  0.7249 -1.4188  0.6348
  752TIP3   OH223670   6.312   2.674   0.314  0.2549 -0.1330 -0.4891
  752TIP3    H123671   6.281   2.744   0.371  1.1024 -0.5609  0.5482
  752TIP3    H223672   6.276   2.694   0.228 -2.1526 -0.1648  0.4472
  753TIP3   OH223673   6.301   3.771   3.608  0.1936 -0.1335 -0.6076
  753TIP3    H123674   6.312   3.698   3.547 -0.0123 -0.5738 -0.1305
  753TIP3    H223675   6.350   3.745   3.686 -0.7161 -0.2378 -0.0498
  754TIP3   OH223676   4.293   1.444   0.980  0.1727  0.2248 -0.3984
  754TIP3    H123677   4.278   1.392   1.059  0.9725 -0.4095 -0.6515
  754TIP3    H223678   4.243   1.398   0.912 -1.2817  1.2876 -0.1062
  755TIP3   OH223679   2.968   2.753   1.649  0.8458 -0.1601 -0.0051
  755TIP3    H123680   3.019   2.814   1.703  0.5021  0.5459 -0.4566
  755TIP3    H223681   2.877   2.774   1.669  0.7202 -0.2106 -0.5097
  756TIP3   OH223682   4.390   1.218   4.700 -0.2428  0.0509  0.0037
  756TIP3    H123683   4.334   1.160   4.650 -1.1940  1.2212 -0.3273
  756TIP3    H223684   4.479   1.194   4.673 -0.5053 -2.1187  0.8696
  757TIP3   OH223685   2.738   4.724   5.515 -0.3845 -0.3890  0.0568
  757TIP3    H123686   2.671   4.776   5.559  0.9651  1.4494  0.0403
  757TIP3    H223687   2.783   4.786   5.458  2.8290 -0.9533  1.7546
  758TIP3   OH223688   0.979   4.528   2.813  0.1303  0.5045  0.0028
  758TIP3    H123689   1.045   4.578   2.861  0.6436 -1.2660  1.2582
  758TIP3    H223690   0.933   4.478   2.881 -3.4418  2.6054 -0.6561
  759TIP3   OH223691   1.922   5.866  13.998 -0.1204 -0.1921  0.6067
  759TIP3    H123692   1.953   5.781  13.966  0.8370  0.5555 -0.5086
  759TIP3    H223693   1.986   5.891  14.065  0.8477  0.6222 -0.5866
  760TIP3   OH223694   1.914   1.518  10.832 -0.0993  0.3524 -0.1882
  760TIP3    H123695   1.999   1.482  10.859 -0.3757 -0.1648  0.0085
  760TIP3    H223696   1.933   1.565  10.751  0.6066  1.3049  0.5016
  761TIP3   OH223697   4.688   2.225  14.400 -0.0009 -0.2056  0.2734
  761TIP3    H123698   4.758   2.260  14.344  0.9748 -0.9182  1.0303
  761TIP3    H223699   4.730   2.155  14.450 -0.8049  0.4880  1.9994
  762TIP3   OH223700   2.026   6.457  13.324 -0.0809 -0.4262 -0.2295
  762TIP3    H123701   2.071   6.530  13.368  1.4393 -1.8591  0.7224
  762TIP3    H223702   1.948   6.442  13.376  0.4390 -0.5173  0.5409
  763TIP3   OH223703   0.406   1.463  14.455  0.4075  0.0295  0.2481
  763TIP3    H123704   0.376   1.554  14.462  0.6540  0.1763 -0.5483
  763TIP3    H223705   0.464   1.462  14.379  0.9622 -0.6478  0.6640
  764TIP3   OH223706   3.847   5.182   5.144  0.1070  0.6004 -0.2067
  764TIP3    H123707   3.818   5.101   5.103  1.2204 -0.3761  0.8824
  764TIP3    H223708   3.827   5.170   5.237  1.3154  1.0952  0.1336
  765TIP3   OH223709   6.083   5.831  13.738  0.4251  0.6522  0.0996
  765TIP3    H123710   6.165   5.820  13.785  0.2917 -0.0239  0.1869
  765TIP3    H223711   6.093   5.777  13.659  1.3873  3.2084 -1.6658
  766TIP3   OH223712   6.479   6.141  15.595 -0.4302 -0.1339  0.2091
  766TIP3    H123713   6.457   6.136  15.502 -0.8881 -0.7577  0.3396
  766TIP3    H223714   6.395   6.159  15.638  0.0521  1.8776  0.3775
  767TIP3   OH223715   6.167   1.962  14.429  0.0455  0.7709 -0.1086
  767TIP3    H123716   6.154   1.906  14.353 -0.1627 -1.6097  1.5659
  767TIP3    H223717   6.261   1.961  14.444 -0.1046 -0.5433  0.8784
  768TIP3   OH223718   3.428   2.259   5.724 -0.1782  0.0158  0.0929
  768TIP3    H123719   3.491   2.208   5.673  0.9510 -0.0883  1.5532
  768TIP3    H223720   3.476   2.338   5.750 -0.8432  0.2179  0.7414
  769TIP3   OH223721   2.437   6.414   3.455 -0.0770 -0.0500  0.5746
  769TIP3    H123722   2.341   6.412   3.458 -0.1545 -0.0356 -1.0546
  769TIP3    H223723   2.459   6.381   3.368  1.4098 -0.1664  0.9723
  770TIP3   OH223724   4.935   6.333   3.350  0.4580  0.2346 -0.6033
  770TIP3    H123725   4.969   6.259   3.400 -1.5468  1.3677  2.7720
  770TIP3    H223726   4.892   6.294   3.274  1.9356 -1.7838 -0.4803
  771TIP3   OH223727   4.781   2.077   0.963  1.0392  0.0569 -0.5889
  771TIP3    H123728   4.742   2.164   0.967  0.1709 -0.3183 -0.5663
  771TIP3    H223729   4.873   2.092   0.946  0.8948  0.9805 -0.5822
  772TIP3   OH223730   1.936   1.710   5.165 -0.0667  0.6828  0.3318
  772TIP3    H123731   2.021   1.681   5.199 -0.9123 -1.9452  0.4425
  772TIP3    H223732   1.889   1.629   5.146 -2.0953  2.0700 -0.9465
  773TIP3   OH223733   0.122   1.802   2.103 -0.4641 -0.2192 -0.0566
  773TIP3    H123734   0.144   1.731   2.163 -1.7254  0.1777  0.9331
  773TIP3    H223735   0.036   1.778   2.068 -1.1134  0.9863  0.6282
  774TIP3   OH223736   6.145   6.179  13.589  0.0972 -0.3621 -0.0813
  774TIP3    H123737   6.059   6.142  13.608  1.2304 -2.7322  0.8435
  774TIP3    H223738   6.127   6.254  13.531 -2.5106 -1.1888 -0.4608
  775TIP3   OH223739   5.503   3.726   0.865  0.4101  0.1179 -0.7518
  775TIP3    H123740   5.462   3.685   0.941  0.7139 -1.3175 -1.3168
  775TIP3    H223741   5.437   3.720   0.796  1.7948 -3.2241 -1.9896
  776TIP3   OH223742   0.212   2.678  14.311 -0.5317 -0.5625  0.0849
  776TIP3    H123743   0.155   2.601  14.312 -1.3440 -0.0702 -2.1507
  776TIP3    H223744   0.170   2.738  14.249  2.0241  0.1228 -1.1335
  777TIP3   OH223745   4.191   3.223   2.664  0.1645 -0.2084 -0.2988
  777TIP3    H123746   4.208   3.235   2.570 -0.9218 -3.1130 -0.9780
  777TIP3    H223747   4.261   3.165   2.694 -1.4592 -2.1780 -0.1961
  778TIP3   OH223748   1.359   4.367  13.008 -0.3403  0.1546 -0.3557
  778TIP3    H123749   1.292   4.301  12.988 -0.0285  0.0116 -0.9323
  778TIP3    H223750   1.340   4.392  13.098 -0.2631 -0.9705 -0.0024
  779TIP3   OH223751   2.906   0.222   3.740 -0.0274 -0.1808 -0.1076
  779TIP3    H123752   2.885   0.138   3.782  0.4480  0.0018  0.5192
  779TIP3    H223753   2.841   0.283   3.774 -0.3747 -0.2953 -0.5658
  780TIP3   OH223754   6.748   1.157  15.456  0.4007 -0.0380 -0.0943
  780TIP3    H123755   6.808   1.191  15.522  2.0536 -0.6337 -1.2203
  780TIP3    H223756   6.797   1.088  15.412 -1.0471 -0.4168 -1.2104
  781TIP3   OH223757   3.244   4.830  10.799  0.3087  0.3277  0.7391
  781TIP3    H123758   3.277   4.780  10.874  0.3018 -0.7678  0.0357
  781TIP3    H223759   3.153   4.849  10.821  0.1274 -0.5336  0.7375
  782TIP3   OH223760   4.462   1.678  13.732 -0.1513 -0.3901  0.8376
  782TIP3    H123761   4.536   1.697  13.790  0.3635  0.2039  0.0048
  782TIP3    H223762   4.469   1.585  13.713  1.8999  0.0965 -1.2408
  783TIP3   OH223763   5.873   2.979  12.274  0.4678 -0.6065 -0.6934
  783TIP3    H123764   5.789   2.979  12.320 -0.1469 -1.0489 -1.7879
  783TIP3    H223765   5.857   2.928  12.195  1.2638  0.8721 -1.8494
  784TIP3   OH223766   1.282   1.901   6.612 -0.6820 -0.2895 -0.5056
  784TIP3    H123767   1.238   1.915   6.695 -0.7499 -1.4553 -0.3297
  784TIP3    H223768   1.359   1.848   6.634 -0.3883 -0.1306 -1.1122
  785TIP3   OH223769   1.708   6.380  11.294  0.2197 -0.2218 -0.3040
  785TIP3    H123770   1.664   6.465  11.292  0.6127  0.0420  1.0608
  785TIP3    H223771   1.714   6.354  11.202 -0.7094  0.8003 -0.6783
  786TIP3   OH223772   5.852   1.367  11.183 -0.7240  0.1692  0.2339
  786TIP3    H123773   5.775   1.359  11.240 -0.2466 -0.2815  0.8242
  786TIP3    H223774   5.839   1.300  11.116 -1.0777  0.4185  0.0449
  787TIP3   OH223775   3.902   4.281   4.018 -0.3856 -0.1700 -0.2374
  787TIP3    H123776   3.845   4.337   3.965 -2.7199 -0.7751  1.5065
  787TIP3    H223777   3.896   4.195   3.977 -0.8227 -0.2613  0.0211
  788TIP3   OH223778   6.282   3.423  12.343  0.0565 -0.8033  0.2327
  788TIP3    H123779   6.319   3.356  12.285  1.7405 -0.8842  1.3231
  788TIP3    H223780   6.209   3.460  12.293  0.4203 -1.9767 -1.2606
  789TIP3   OH223781   0.279   0.056   4.625  0.0838  0.4843 -0.6075
  789TIP3    H123782   0.294   0.075   4.718 -0.4988 -0.2703 -0.3478
  789TIP3    H223783   0.298   0.139   4.580 -0.0047  0.9645  0.2220
  790TIP3   OH223784   5.447   1.832  10.390 -0.9091  0.1814  0.3121
  790TIP3    H123785   5.437   1.740  10.416  1.5862 -1.4445 -3.6772
  790TIP3    H223786   5.527   1.860  10.434  0.6050 -0.9838 -1.5584
  791TIP3   OH223787   5.686   2.334  16.221 -0.2690 -0.0718  0.0698
  791TIP3    H123788   5.673   2.426  16.199 -1.0237  0.3574  2.1110
  791TIP3    H223789   5.600   2.294  16.211  0.3071 -0.9375 -2.1418
  792TIP3   OH223790   6.066   3.258  13.641 -0.2713  0.3665 -0.4472
  792TIP3    H123791   6.117   3.184  13.675 -0.6084  0.0160 -0.6822
  792TIP3    H223792   5.991   3.264  13.701 -1.7869 -1.3572 -2.0326
  793TIP3   OH223793   1.972   4.649   1.648  0.4299 -1.1600 -0.2280
  793TIP3    H123794   1.997   4.706   1.722 -0.8623 -1.1221  0.1927
  793TIP3    H223795   2.037   4.579   1.650  0.3923 -1.1778  0.9712
  794TIP3   OH223796   3.881   0.667  11.572  0.0978  0.4497  0.7136
  794TIP3    H123797   3.872   0.679  11.478 -1.8862 -0.2463  0.7662
  794TIP3    H223798   3.805   0.615  11.597  0.6625  0.4805  2.6846
  795TIP3   OH223799   1.500   1.341  15.954 -0.3354  0.2918  0.1866
  795TIP3    H123800   1.432   1.329  16.020 -0.0180 -0.3914  0.4063
  795TIP3    H223801   1.518   1.252  15.923  0.0681  0.5279 -0.2580
  796TIP3   OH223802   6.762   0.898   5.418  0.3870 -0.2020  0.0400
  796TIP3    H123803   6.712   0.976   5.444 -0.9721 -1.2097  0.5595
  796TIP3    H223804   6.852   0.930   5.408 -0.0252  1.3106  0.8181
  797TIP3   OH223805   3.434   6.462   4.129 -0.1040 -0.6213 -0.0453
  797TIP3    H123806   3.454   6.415   4.210 -0.3973  0.5968  0.7577
  797TIP3    H223807   3.346   6.498   4.142 -0.1914 -0.4648 -0.9379
  798TIP3   OH223808   4.933   5.711  12.481 -0.0254 -0.1453  0.3474
  798TIP3    H123809   4.843   5.743  12.473 -0.2013 -0.7491 -0.1450
  798TIP3    H223810   4.985   5.790  12.493 -0.5598  0.2532  0.0929
  799TIP3   OH223811   2.785   3.299  13.478  0.1776 -0.5173 -0.1984
  799TIP3    H123812   2.771   3.348  13.558  1.6560  1.4415 -1.0631
  799TIP3    H223813   2.697   3.268  13.453 -0.4298 -0.3830  1.6254
  800TIP3   OH223814   3.000   3.005   3.443 -0.1219  0.1534  0.6048
  800TIP3    H123815   3.056   2.931   3.419 -0.6716 -0.1265  0.1573
  800TIP3    H223816   2.912   2.978   3.417  0.0035  2.0979 -2.4022
  801TIP3   OH223817   3.831   6.636   3.846  0.3750  0.0759  0.0940
  801TIP3    H123818   3.837   6.731   3.855  1.2918  0.0650 -0.2168
  801TIP3    H223819   3.750   6.612   3.890  0.5453  0.9099  0.8826
  802TIP3   OH223820   3.338   1.725   4.909 -0.1203  0.0920 -0.5669
  802TIP3    H123821   3.295   1.639   4.914 -0.7808  0.3839 -1.2079
  802TIP3    H223822   3.421   1.712   4.956 -0.3144 -0.8343 -0.4541
  803TIP3   OH223823   0.304   6.667   2.628 -0.3242  0.0358  0.0967
  803TIP3    H123824   0.328   6.737   2.567 -1.2700 -0.2733 -0.6535
  803TIP3    H223825   0.312   6.707   2.714 -1.0247  1.1368 -0.3253
  804TIP3   OH223826   1.781   0.934   3.449  0.8317  0.5324 -0.9811
  804TIP3    H123827   1.815   0.999   3.387  1.6436 -0.2957 -1.4346
  804TIP3    H223828   1.689   0.925   3.426  0.4614  2.1632 -0.3169
  805TIP3   OH223829   6.337   0.383  15.834 -0.0927  1.1220 -0.5143
  805TIP3    H123830   6.402   0.407  15.768  0.7293  0.9108  0.1954
  805TIP3    H223831   6.310   0.294  15.810  1.3477  0.4314  0.2743
  806TIP3   OH223832   4.148   2.279  10.803  0.0781  0.0485 -0.1368
  806TIP3    H123833   4.193   2.356  10.837  1.8666  0.0663 -2.3281
  806TIP3    H223834   4.217   2.226  10.762 -1.6221 -0.6442 -2.3423
  807TIP3   OH223835   2.578   4.388  17.169  0.4184  0.4903 -0.4311
  807TIP3    H123836   2.622   4.449  17.228 -1.9399  2.0044 -0.0914
  807TIP3    H223837   2.546   4.442  17.098  1.0540 -0.9232 -1.8566
  808TIP3   OH223838   6.584   0.597  14.850  0.1406 -0.4264  0.0311
  808TIP3    H123839   6.679   0.612  14.856  0.3025 -1.6665  1.2749
  808TIP3    H223840   6.576   0.503  14.834 -0.8755 -0.5164  0.9556
  809TIP3   OH223841   6.255   2.608   5.341 -0.2403 -0.1965 -0.1608
  809TIP3    H123842   6.185   2.633   5.281 -0.0039 -0.3172 -0.4936
  809TIP3    H223843   6.315   2.683   5.341 -0.5276  0.0386  0.3716
  810TIP3   OH223844   0.228   4.703  15.742  0.2565  0.6426  0.3539
  810TIP3    H123845   0.240   4.758  15.665  1.3953  0.2975  0.2620
  810TIP3    H223846   0.199   4.763  15.811  0.4575  1.1698 -0.0165
  811TIP3   OH223847   2.594   6.734   0.969  0.1413  0.3653 -0.1177
  811TIP3    H123848   2.659   6.665   0.983 -1.0248 -0.7633  0.0501
  811TIP3    H223849   2.510   6.689   0.982 -0.6473  1.9055  0.2625
  812TIP3   OH223850   3.241   6.391   3.664  0.4239  0.2895 -0.0351
  812TIP3    H123851   3.300   6.334   3.616 -0.9638 -0.8400 -0.4836
  812TIP3    H223852   3.220   6.342   3.744 -1.6131 -0.3690 -0.9168
  813TIP3   OH223853   4.378   2.981  13.114  0.2053 -0.1786 -0.0650
  813TIP3    H123854   4.398   3.055  13.171  1.3614 -0.8710  0.4777
  813TIP3    H223855   4.346   3.021  13.033  0.4336  0.8919  0.3518
  814TIP3   OH223856   2.121   3.485   2.652  0.2476  0.0337 -0.0394
  814TIP3    H123857   2.183   3.553   2.677  1.4022 -0.7422 -0.7106
  814TIP3    H223858   2.036   3.518   2.682  1.1899  0.3097  2.5506
  815TIP3   OH223859   0.878   4.458  10.863  0.3415 -0.3500  0.3305
  815TIP3    H123860   0.841   4.474  10.776 -1.1931  0.6389  1.1095
  815TIP3    H223861   0.929   4.537  10.882  1.1001 -0.7802  0.1559
  816TIP3   OH223862   0.381   0.703  10.938 -0.3818  0.1290 -0.8017
  816TIP3    H123863   0.410   0.613  10.951 -0.1411  0.0161 -1.9992
  816TIP3    H223864   0.457   0.757  10.958 -0.0914 -0.0229 -1.4824
  817TIP3   OH223865   2.934   5.818   2.095  0.2535  0.1623 -0.5172
  817TIP3    H123866   2.846   5.824   2.131  0.3594 -2.0634  0.3190
  817TIP3    H223867   2.976   5.750   2.148  1.7992 -0.2500 -2.1931
  818TIP3   OH223868   4.274   2.628  15.633  0.1408 -0.2302  0.5000
  818TIP3    H123869   4.247   2.618  15.542  0.6023 -0.1024  0.3468
  818TIP3    H223870   4.196   2.660  15.678  0.0831  0.3155  0.0245
  819TIP3   OH223871   6.295   5.055  12.930 -0.2305  0.2812 -0.2725
  819TIP3    H123872   6.371   5.001  12.910 -1.1739 -0.4626 -2.0995
  819TIP3    H223873   6.329   5.144  12.938  0.6892  0.1459 -2.2640
  820TIP3   OH223874   2.386   4.642   4.143  0.4513 -0.1639  0.1895
  820TIP3    H123875   2.413   4.729   4.174 -0.2241  0.7661 -1.7015
  820TIP3    H223876   2.335   4.606   4.216 -0.9834  1.8918  0.2906
  821TIP3   OH223877   6.494   1.094  14.579  0.0278 -0.3332 -0.2710
  821TIP3    H123878   6.418   1.038  14.595  0.5873 -1.2314 -0.7046
  821TIP3    H223879   6.549   1.083  14.657  0.3532 -0.7567 -0.5548
  822TIP3   OH223880   2.837   2.433  16.528  0.6722 -0.9898  0.3626
  822TIP3    H123881   2.822   2.339  16.520  1.4254 -1.1806  0.9986
  822TIP3    H223882   2.753   2.473  16.509 -0.0561 -1.8740  1.5606
  823TIP3   OH223883   0.639   4.326   4.240  0.3947  0.0874  0.4752
  823TIP3    H123884   0.587   4.246   4.254  0.3978 -0.0532 -0.2484
  823TIP3    H223885   0.665   4.321   4.148  1.7147  0.1540  0.8314
  824TIP3   OH223886   3.290   5.669  10.709 -0.0383  0.1193  0.0762
  824TIP3    H123887   3.299   5.764  10.718 -1.3704  0.2388  0.3613
  824TIP3    H223888   3.376   5.634  10.734  0.0458  1.1695  1.3832
  825TIP3   OH223889   1.901   0.523  15.366  0.5079 -0.0341  0.0893
  825TIP3    H123890   1.973   0.539  15.427  0.4529  0.3793  0.0504
  825TIP3    H223891   1.832   0.584  15.394  0.4770  0.1448 -0.3793
  826TIP3   OH223892   6.195   1.309  13.152  0.8835 -0.0426 -0.1234
  826TIP3    H123893   6.139   1.351  13.087 -2.7048 -1.4568  1.7908
  826TIP3    H223894   6.239   1.239  13.104 -2.2871 -1.5960 -1.0458
  827TIP3   OH223895   4.168   6.618  15.837 -1.1396  0.7784 -0.4996
  827TIP3    H123896   4.105   6.609  15.908  1.0895  0.5255  1.5544
  827TIP3    H223897   4.197   6.709  15.842 -0.1370  0.4649 -0.3113
  828TIP3   OH223898   2.729   4.703  15.244  0.4353 -0.4760  0.0131
  828TIP3    H123899   2.662   4.644  15.279  0.5970 -0.5989  0.1187
  828TIP3    H223900   2.808   4.648  15.238  1.5532  0.5617  3.3663
  829TIP3   OH223901   4.800   0.337   3.653  0.4950  0.2934 -0.3306
  829TIP3    H123902   4.762   0.384   3.727  0.1992 -0.0284 -0.2762
  829TIP3    H223903   4.777   0.388   3.576 -2.6368 -1.3841 -0.6729
  830TIP3   OH223904   5.408   5.899   1.278 -0.1283 -0.2654  0.4436
  830TIP3    H123905   5.471   5.852   1.333 -0.6544  0.4474  1.6903
  830TIP3    H223906   5.336   5.837   1.268  0.5001 -0.8663 -0.5070
  831TIP3   OH223907   0.132   6.210  11.538  0.1606 -0.2661 -0.0273
  831TIP3    H123908   0.170   6.124  11.517  0.8963  0.3391 -1.2357
  831TIP3    H223909   0.046   6.209  11.496  0.5071 -0.1023 -0.7475
  832TIP3   OH223910   2.090   2.329  12.783  0.0044  0.2292  0.1077
  832TIP3    H123911   2.166   2.282  12.750 -0.3066 -0.0034 -0.2782
  832TIP3    H223912   2.105   2.420  12.758  0.1678  0.1872  0.0575
  833TIP3   OH223913   3.412   3.775   2.439  0.5292  0.3483  0.2019
  833TIP3    H123914   3.494   3.756   2.484  1.5518 -0.2788 -1.7675
  833TIP3    H223915   3.383   3.859   2.474  0.8258 -0.4364  2.4956
  834TIP3   OH223916   1.698   1.221  16.220  0.1304  0.7462  0.3517
  834TIP3    H123917   1.625   1.166  16.192  0.3624  1.0640 -0.9530
  834TIP3    H223918   1.671   1.254  16.306 -0.7734 -0.0042  0.3794
  835TIP3   OH223919   2.964   0.868   6.011 -0.4095 -0.5155 -0.8036
  835TIP3    H123920   3.031   0.903   5.952  0.3345  0.1802  0.4267
  835TIP3    H223921   3.008   0.797   6.057 -0.1860  0.5589  0.7001
  836TIP3   OH223922   3.526   0.953   5.688  0.3785 -0.6511 -0.2819
  836TIP3    H123923   3.520   1.040   5.728 -1.1453 -1.3637  1.1729
  836TIP3    H223924   3.586   0.905   5.744  1.3652 -0.5181 -1.1927
  837TIP3   OH223925   3.200   4.600  11.795  0.1937 -0.2885 -0.4170
  837TIP3    H123926   3.230   4.514  11.764  0.6964 -0.0195 -0.6940
  837TIP3    H223927   3.256   4.618  11.871  0.6653  0.1616 -0.8625
  838TIP3   OH223928   4.301   0.536   1.171 -0.2590 -0.1479  0.5510
  838TIP3    H123929   4.369   0.471   1.154 -0.5395 -0.2485 -0.2320
  838TIP3    H223930   4.219   0.486   1.171 -0.3825  0.0471  0.9992
  839TIP3   OH223931   4.745   6.310  16.416  0.5644  0.5357 -0.1437
  839TIP3    H123932   4.714   6.242  16.357  1.9272 -1.4810  1.3048
  839TIP3    H223933   4.803   6.364  16.362  1.0068 -0.6537 -0.8977
  840TIP3   OH223934   3.228   3.391   2.159  0.0855 -0.6517  0.5617
  840TIP3    H123935   3.221   3.411   2.252  0.1782 -1.7303  0.8106
  840TIP3    H223936   3.313   3.426   2.133  1.0995 -2.3565  1.4288
  841TIP3   OH223937   4.342   5.249  16.828  0.5079 -0.7765  0.1528
  841TIP3    H123938   4.411   5.312  16.847  0.7994 -1.0826  0.1360
  841TIP3    H223939   4.284   5.294  16.767  0.8746 -0.6307 -0.0917
  842TIP3   OH223940   3.580   2.645  14.639  0.2968 -0.8680  0.3603
  842TIP3    H123941   3.584   2.700  14.717 -0.3468 -0.7032  0.2888
  842TIP3    H223942   3.546   2.703  14.571 -0.9469 -1.4841  0.4261
  843TIP3   OH223943   0.541   4.547  11.223 -0.3125  0.3052 -0.0146
  843TIP3    H123944   0.544   4.639  11.249 -0.2397 -0.3555  2.5531
  843TIP3    H223945   0.627   4.529  11.185 -0.1367  1.1579 -0.0232
  844TIP3   OH223946   5.700   6.091  11.632 -0.6306  0.3573 -0.3732
  844TIP3    H123947   5.791   6.062  11.632 -0.9356 -0.7721 -2.0355
  844TIP3    H223948   5.703   6.181  11.663  1.3179  1.0279 -2.2803
  845TIP3   OH223949   3.906   6.619  12.666  0.1727 -0.3254 -0.6860
  845TIP3    H123950   3.855   6.553  12.713 -0.6096 -1.8279 -3.4251
  845TIP3    H223951   3.984   6.573  12.637  0.8381  0.6688 -0.5112
  846TIP3   OH223952   1.662   2.555  12.457 -0.1293 -0.1277 -0.2855
  846TIP3    H123953   1.584   2.560  12.402 -0.7338 -2.5033  0.2551
  846TIP3    H223954   1.689   2.647  12.469 -0.8334  0.5758 -3.2458
  847TIP3   OH223955   0.794   3.240   2.250  0.5567  0.2788  0.0064
  847TIP3    H123956   0.871   3.261   2.303  1.3884 -0.6801 -0.7834
  847TIP3    H223957   0.738   3.317   2.258  0.6331  0.1763  2.2731
  848TIP3   OH223958   3.753   1.353  13.865  0.4289 -0.0928  0.3759
  848TIP3    H123959   3.828   1.406  13.841  0.2542  0.9532  2.0101
  848TIP3    H223960   3.680   1.391  13.817  1.0070 -1.6392 -1.8945
  849TIP3   OH223961   3.094   1.423   3.165  0.4217 -0.1230 -0.2883
  849TIP3    H123962   3.127   1.513   3.164 -0.8721  0.3833  0.1934
  849TIP3    H223963   3.165   1.371   3.126  1.0329  1.1480 -0.9377
  850TIP3   OH223964   6.774   6.045   0.377  0.2740 -0.2074 -0.3642
  850TIP3    H123965   6.726   6.114   0.331  0.2232 -0.7559 -1.1534
  850TIP3    H223966   6.843   6.020   0.316  1.6611  0.6390  0.7919
  851TIP3   OH223967   3.734   5.668   5.510 -0.1117 -0.1569  0.6087
  851TIP3    H123968   3.654   5.660   5.458  0.9126  1.7966 -1.4837
  851TIP3    H223969   3.709   5.723   5.584 -0.3839  2.1547 -1.0829
  852TIP3   OH223970   1.292   2.747  14.349 -0.3560  0.2733 -0.2415
  852TIP3    H123971   1.363   2.751  14.285 -0.5249  1.0620 -0.4018
  852TIP3    H223972   1.329   2.787  14.428 -0.8600  1.4966 -0.5895
  853TIP3   OH223973   6.151   4.570   2.411  0.3462  0.4589  0.3900
  853TIP3    H123974   6.098   4.647   2.432  0.8371  0.5263  1.3992
  853TIP3    H223975   6.234   4.585   2.454  0.3160 -0.8130  0.9240
  854TIP3   OH223976   4.402   2.144  13.282 -0.0571 -0.3530  0.3051
  854TIP3    H123977   4.490   2.182  13.273 -0.0501 -0.0282  1.5259
  854TIP3    H223978   4.418   2.050  13.294 -0.0460 -0.7352 -2.1574
  855TIP3   OH223979   4.224   3.458  11.093  0.4216 -0.0585 -0.3011
  855TIP3    H123980   4.243   3.498  11.178  1.0918  0.6873 -0.7874
  855TIP3    H223981   4.305   3.412  11.070  0.1253 -0.5421 -0.3865
  856TIP3   OH223982   4.372   0.053   0.715 -0.1961 -0.0237  0.5044
  856TIP3    H123983   4.352  -0.013   0.648  0.2571 -0.7626  1.0849
  856TIP3    H223984   4.463   0.036   0.739  0.2465  1.4234 -0.0018
  857TIP3   OH223985   4.024   0.746  14.880  0.1709 -0.2464 -0.9575
  857TIP3    H123986   4.111   0.708  14.896  0.2151  0.5569  0.8940
  857TIP3    H223987   3.967   0.702  14.942 -0.3168  0.7466 -0.6836
  858TIP3   OH223988   0.723   5.307  16.324 -0.2767  0.3543 -0.2136
  858TIP3    H123989   0.662   5.363  16.371 -0.8188  0.8963 -1.5324
  858TIP3    H223990   0.692   5.307  16.234  1.0577 -0.2065 -0.7046
  859TIP3   OH223991   3.530   5.769  10.464  0.0979  0.6559 -0.1609
  859TIP3    H123992   3.604   5.817  10.502 -0.1802  0.4529  0.6576
  859TIP3    H223993   3.570   5.697  10.415  0.4307  0.2824  0.6493
  860TIP3   OH223994   4.986   3.528   1.223  1.1839  0.2309 -0.4250
  860TIP3    H123995   5.030   3.595   1.276  0.0035 -0.3760  1.4138
  860TIP3    H223996   4.894   3.535   1.247  0.9139 -1.4548 -0.8785
  861TIP3   OH223997   0.332   1.555  10.994  0.1359 -0.6023  0.7463
  861TIP3    H123998   0.409   1.521  11.040  1.4258 -0.3034 -1.0970
  861TIP3    H223999   0.320   1.495  10.920  0.4596  1.0535 -0.6913
  862TIP3   OH224000   6.634   0.078  13.050  0.1897 -0.1174 -0.5205
  862TIP3    H124001   6.638  -0.012  13.082  0.4117 -0.2391 -0.8838
  862TIP3    H224002   6.699   0.082  12.980 -0.0904  0.2156 -0.7716
  863TIP3   OH224003   0.680   2.524   3.619  0.3972  0.1198 -0.4575
  863TIP3    H124004   0.764   2.551   3.656 -0.6771  0.7379  1.7062
  863TIP3    H224005   0.692   2.432   3.597  0.6549 -0.9381  3.3210
  864TIP3   OH224006   4.690   5.568  13.476 -0.1869  0.3183 -0.1259
  864TIP3    H124007   4.694   5.629  13.403  0.3531 -0.6356 -0.9069
  864TIP3    H224008   4.768   5.514  13.467 -1.7279 -1.9807 -0.7904
  865TIP3   OH224009   0.649   4.519   1.475  0.3614  0.0007  0.3330
  865TIP3    H124010   0.731   4.505   1.522  1.4081 -0.7243 -1.6104
  865TIP3    H224011   0.642   4.615   1.467 -0.2869  0.2059  2.6049
  866TIP3   OH224012   2.351   0.003  11.522 -0.4656 -0.5262 -0.0423
  866TIP3    H124013   2.365  -0.076  11.574  0.9173 -0.0498  0.3568
  866TIP3    H224014   2.302   0.062  11.580 -0.5368 -0.6791  0.0525
  867TIP3   OH224015   5.521   5.066   2.317  0.0237 -0.1376  0.2826
  867TIP3    H124016   5.467   5.008   2.264  0.5484 -2.0406  1.7063
  867TIP3    H224017   5.459   5.127   2.356 -0.7338 -0.5434 -0.2702
  868TIP3   OH224018   1.411   3.492  15.816 -0.5635  0.7982  0.0867
  868TIP3    H124019   1.427   3.585  15.832 -0.9847  0.4974  2.6647
  868TIP3    H224020   1.458   3.447  15.886 -1.0215 -0.8956 -0.6429
  869TIP3   OH224021   0.043   1.797  15.207 -0.3519  0.0809  0.1017
  869TIP3    H124022   0.021   1.785  15.300 -1.2740  0.6299 -0.0327
  869TIP3    H224023   0.111   1.865  15.208 -0.6397  0.3687  0.3553
  870TIP3   OH224024   2.461   5.986  12.715  0.1245  0.5829 -0.7514
  870TIP3    H124025   2.466   5.895  12.745 -1.2681 -0.5405 -3.5007
  870TIP3    H224026   2.550   6.007  12.688  0.1183 -0.7553 -1.9664
  871TIP3   OH224027   1.388   2.124  16.565 -0.3075  0.0833 -0.3654
  871TIP3    H124028   1.439   2.174  16.628 -0.1217  1.3055 -1.4498
  871TIP3    H224029   1.443   2.048  16.545 -1.2417 -1.4703  2.4296
  872TIP3   OH224030   5.037   3.838  11.016  0.1726  0.1896  0.1026
  872TIP3    H124031   5.063   3.925  11.046 -1.4986  0.5691  0.5625
  872TIP3    H224032   4.983   3.854  10.939 -0.7595 -0.3643  0.6186
  873TIP3   OH224033   6.412   5.747   4.417 -0.4937 -0.0099  0.1510
  873TIP3    H124034   6.390   5.737   4.510  1.8705  0.2780  0.8084
  873TIP3    H224035   6.456   5.832   4.412 -0.9002  0.1370 -1.3172
  874TIP3   OH224036   0.181   4.280   3.214  0.2315  0.2606 -0.0095
  874TIP3    H124037   0.232   4.325   3.146 -1.2413 -0.2211 -1.4863
  874TIP3    H224038   0.233   4.291   3.293  1.6569  1.4786 -1.0506
  875TIP3   OH224039   4.061   2.360  16.155 -0.1082 -0.0965  0.2131
  875TIP3    H124040   4.000   2.300  16.197 -0.5593  0.4678  0.3776
  875TIP3    H224041   4.140   2.356  16.209  0.2588 -1.3163 -0.3656
  876TIP3   OH224042   5.360   2.053   4.800 -0.4332 -0.1946 -0.1218
  876TIP3    H124043   5.445   2.087   4.829 -0.1307 -0.1782 -0.9797
  876TIP3    H224044   5.379   2.014   4.714 -1.4699  0.6363 -0.7482
  877TIP3   OH224045   6.670   4.251   5.171 -0.1400 -0.1253  0.4751
  877TIP3    H124046   6.678   4.157   5.182 -0.4196 -0.1180  0.7534
  877TIP3    H224047   6.751   4.287   5.205 -0.7253 -0.1464  1.9735
  878TIP3   OH224048   2.576   2.455   4.254 -0.4598  0.0989  0.4207
  878TIP3    H124049   2.610   2.367   4.239  1.2076  0.8494 -0.4840
  878TIP3    H224050   2.536   2.479   4.170  0.4988  0.7700  0.1367
  879TIP3   OH224051   2.276   3.729   2.039 -0.4393 -0.3335 -0.1571
  879TIP3    H124052   2.224   3.809   2.043  1.0389  0.6184  2.4067
  879TIP3    H224053   2.277   3.705   1.946  0.6393  3.6743 -1.3500
  880TIP3   OH224054   3.124   3.413   4.435 -0.3119 -0.3610  0.1525
  880TIP3    H124055   3.060   3.405   4.364 -0.0001  0.1143 -0.1856
  880TIP3    H224056   3.076   3.387   4.513 -0.9190 -0.0201 -0.0988
  881TIP3   OH224057   2.136   4.023  12.019 -0.7779 -0.0195  0.6946
  881TIP3    H124058   2.176   4.110  12.023 -0.8382  0.0377  0.1344
  881TIP3    H224059   2.156   3.984  12.104 -0.1910  0.2971  0.7081
  882TIP3   OH224060   3.512   5.831   5.115  0.0771 -0.1958 -0.2928
  882TIP3    H124061   3.471   5.880   5.187  2.1170 -0.4433  1.0966
  882TIP3    H224062   3.478   5.874   5.036 -2.0148  0.2573  0.7788
  883TIP3   OH224063   1.898   5.701   1.475 -0.5102  0.5388 -0.2295
  883TIP3    H124064   1.889   5.706   1.571 -0.7587  0.4708 -0.2475
  883TIP3    H224065   1.981   5.745   1.456 -0.9539  1.4697 -0.0714
  884TIP3   OH224066   4.130   0.111   5.297 -0.2688 -0.2892 -0.5074
  884TIP3    H124067   4.181   0.086   5.374  1.0626  0.6321 -1.0674
  884TIP3    H224068   4.139   0.036   5.238  0.0127 -0.3351 -0.4081
  885TIP3   OH224069   3.099   5.949  11.018  0.1243 -0.2381 -0.2537
  885TIP3    H124070   3.090   5.991  10.932 -1.1805  0.7090  0.3123
  885TIP3    H224071   3.009   5.926  11.042  0.2718  0.8644  1.5051
  886TIP3   OH224072   2.743   0.940  12.425  0.3219  0.6067 -0.4780
  886TIP3    H124073   2.674   1.003  12.404  0.3371  0.7188 -0.2002
  886TIP3    H224074   2.748   0.942  12.521  1.0606  0.9804 -0.5144
  887TIP3   OH224075   3.792   0.965  11.590  0.3648 -0.4093 -0.2036
  887TIP3    H124076   3.846   1.034  11.553 -0.0893 -0.1031 -0.3006
  887TIP3    H224077   3.852   0.891  11.601  0.9115  0.0682  0.1147
  888TIP3   OH224078   5.788   2.831   4.527 -0.5207 -0.2714 -1.0118
  888TIP3    H124079   5.696   2.805   4.533 -1.3332  2.5777  0.3292
  888TIP3    H224080   5.810   2.860   4.616  1.8322 -1.2195 -1.2138
  889TIP3   OH224081   3.250   2.094   4.534  0.3475 -0.1045  0.4923
  889TIP3    H124082   3.178   2.085   4.596 -1.3447 -1.6434 -1.5713
  889TIP3    H224083   3.234   2.177   4.490  0.9916  0.5025  1.3590
  890TIP3   OH224084   0.765   4.911   1.052  0.3649  0.5247  0.2194
  890TIP3    H124085   0.700   4.978   1.074  0.3560 -0.2337  2.7764
  890TIP3    H224086   0.797   4.937   0.965 -2.5708  1.4887 -0.6838
  891TIP3   OH224087   0.080   3.090   0.993  0.4164 -0.2766  0.6110
  891TIP3    H124088   0.164   3.078   1.038  1.2747 -0.2653 -0.9333
  891TIP3    H224089   0.101   3.082   0.900 -1.2357  0.1344  0.1709
  892TIP3   OH224090   6.029   2.569   0.990  0.5490 -0.0603  0.4695
  892TIP3    H124091   6.037   2.474   0.983 -1.2308 -0.2443  0.4497
  892TIP3    H224092   5.940   2.583   1.024  0.9799  1.5770  1.0111
  893TIP3   OH224093   1.286   2.908   3.710 -0.2578  0.0726  0.1279
  893TIP3    H124094   1.377   2.883   3.693 -0.4152 -0.0391 -0.5467
  893TIP3    H224095   1.258   2.850   3.781  1.6733  3.2043  3.8641
  894TIP3   OH224096   5.490   5.147   3.519  0.0514 -0.5581  0.2548
  894TIP3    H124097   5.546   5.211   3.474 -1.0697 -0.2214 -0.7054
  894TIP3    H224098   5.513   5.156   3.612  0.8564  0.2974 -0.0132
  895TIP3   OH224099   5.743   0.925  12.724 -0.1128 -0.0909 -0.5972
  895TIP3    H124100   5.744   0.852  12.662 -0.1313  0.3956 -1.1784
  895TIP3    H224101   5.663   0.911  12.775  1.6193 -2.4438  1.7152
  896TIP3   OH224102   3.164   5.167   3.967 -0.4118 -0.4854 -0.2517
  896TIP3    H124103   3.218   5.219   4.027  1.2327 -0.9372 -1.2756
  896TIP3    H224104   3.200   5.079   3.973 -0.7712 -0.7152 -1.2642
  897TIP3   OH224105   3.845   4.309   0.570  0.3183 -0.0064 -0.8869
  897TIP3    H124106   3.834   4.399   0.540  0.0723  0.7998  1.4611
  897TIP3    H224107   3.758   4.281   0.598  1.1420  0.9559  3.2588
  898TIP3   OH224108   0.402   3.868   3.405 -0.5505 -0.2358 -0.5962
  898TIP3    H124109   0.472   3.928   3.381 -0.2918 -0.9217 -1.6259
  898TIP3    H224110   0.446   3.798   3.453 -0.6947 -0.1106 -0.2831
  899TIP3   OH224111   2.291   6.141   0.189 -0.1668  0.2423 -0.1427
  899TIP3    H124112   2.284   6.235   0.170  1.5174  0.7746  1.5504
  899TIP3    H224113   2.300   6.100   0.103 -1.4320  1.5555 -0.9494
  900TIP3   OH224114   4.812   1.848  12.547 -0.3932  0.4443  0.4456
  900TIP3    H124115   4.865   1.827  12.624  0.5891  0.5296 -0.1783
  900TIP3    H224116   4.863   1.815  12.474  0.6885  3.7845 -0.5023
  901TIP3   OH224117   1.645   6.288   4.153 -0.0025  0.2558  0.1124
  901TIP3    H124118   1.640   6.238   4.234 -0.9263 -0.4116 -0.3353
  901TIP3    H224119   1.554   6.313   4.134  0.1021 -0.1777 -1.0612
  902TIP3   OH224120   6.613   5.646  12.779  0.6113  0.1888  0.3958
  902TIP3    H124121   6.708   5.638  12.784  0.8090  2.0483  0.1745
  902TIP3    H224122   6.590   5.707  12.848 -0.2513  0.8919 -0.4895
  903TIP3   OH224123   0.666   0.843  13.637  0.2410 -0.7384  0.2279
  903TIP3    H124124   0.734   0.791  13.680  1.0112  0.7661  0.9320
  903TIP3    H224125   0.650   0.916  13.698 -1.2926 -0.5204 -0.3917
  904TIP3   OH224126   3.311   1.239   4.192  0.3158  0.2064  0.2486
  904TIP3    H124127   3.366   1.206   4.122 -1.3403 -0.4780 -0.7726
  904TIP3    H224128   3.367   1.236   4.270  1.6504 -0.6042 -0.7109
  905TIP3   OH224129   2.922   5.849  10.755 -0.1388 -0.3335 -0.2926
  905TIP3    H124130   2.854   5.865  10.820 -1.2125 -1.2778 -1.1399
  905TIP3    H224131   2.904   5.913  10.686  0.5591  0.1824 -0.0184
  906TIP3   OH224132   3.626   4.255   2.584  0.1055 -0.3411  0.1292
  906TIP3    H124133   3.631   4.292   2.495  1.0265 -2.0254 -0.5668
  906TIP3    H224134   3.717   4.254   2.614  0.0765 -1.7706  0.2143
  907TIP3   OH224135   3.531   3.726  11.711 -0.1837 -0.5917 -0.2279
  907TIP3    H124136   3.456   3.780  11.686 -0.4731 -0.8037  0.1565
  907TIP3    H224137   3.584   3.783  11.767  1.7598  0.7341 -3.1530
  908TIP3   OH224138   2.492   4.439  15.604 -0.1829  0.2753  0.0787
  908TIP3    H124139   2.413   4.406  15.646 -0.4203  0.9087  0.1341
  908TIP3    H224140   2.553   4.454  15.676  0.3920 -1.2167 -0.0412
  909TIP3   OH224141   3.624   5.786   2.306  0.0245 -0.6020  0.1902
  909TIP3    H124142   3.666   5.859   2.261 -0.3043  0.2141  1.1937
  909TIP3    H224143   3.579   5.738   2.236  2.9577 -1.8131 -1.0225
  910TIP3   OH224144   0.823   5.961  17.118  0.3985  0.3851  0.4958
  910TIP3    H124145   0.886   5.921  17.058  1.9740  1.0414  1.6221
  910TIP3    H224146   0.767   5.889  17.146 -0.2371  0.0222 -1.5366
  911TIP3   OH224147   3.711   5.079   3.589 -0.2016 -0.0497 -0.0992
  911TIP3    H124148   3.628   5.125   3.580 -0.1924  0.0214  0.1622
  911TIP3    H224149   3.688   4.995   3.629 -0.0929  0.1804  0.4672
  912TIP3   OH224150   4.690   6.309  16.922 -0.1752  0.4558  0.3709
  912TIP3    H124151   4.704   6.395  16.963  1.2200  0.3476  0.1623
  912TIP3    H224152   4.722   6.246  16.986 -1.2856  0.0608  0.5639
  913TIP3   OH224153   0.484   2.264  14.884 -0.2534 -0.1085  0.2056
  913TIP3    H124154   0.530   2.256  14.801  0.7977 -1.0036  0.8415
  913TIP3    H224155   0.411   2.323  14.866  0.3137  0.2024 -1.1886
  914TIP3   OH224156   0.028   1.449   6.176  0.0624 -0.4575  0.4719
  914TIP3    H124157  -0.032   1.386   6.216 -2.0651  0.2889 -1.3706
  914TIP3    H224158   0.111   1.402   6.170 -0.1538 -1.4106  3.4143
  915TIP3   OH224159   6.447   4.320  12.129 -0.3575  0.5666  0.3901
  915TIP3    H124160   6.502   4.359  12.061  1.1122 -1.2806  0.4233
  915TIP3    H224161   6.498   4.332  12.210 -0.7653  0.2512  0.6935
  916TIP3   OH224162   0.342   2.932   0.545  0.5574 -0.8512 -0.1995
  916TIP3    H124163   0.272   2.941   0.480  1.1482  0.5409 -0.6972
  916TIP3    H224164   0.316   2.858   0.599 -2.1557  0.6307  0.6926
  917TIP3   OH224165   5.550   0.743   1.499 -0.6853  0.4943  0.0916
  917TIP3    H124166   5.585   0.692   1.573 -0.2960  1.2218  0.4234
  917TIP3    H224167   5.466   0.701   1.479  0.5949 -1.6828 -1.1148
  918TIP3   OH224168   0.919   0.258  13.920  0.4308  0.3005 -0.1720
  918TIP3    H124169   0.880   0.259  14.007 -1.7868  0.5484 -1.1038
  918TIP3    H224170   0.995   0.200  13.929  1.0005  1.2808  2.1771
  919TIP3   OH224171   5.402   0.448   3.054 -0.1026 -0.4306 -0.0208
  919TIP3    H124172   5.311   0.446   3.084 -0.1371 -1.0105 -0.1477
  919TIP3    H224173   5.445   0.511   3.112 -0.3788 -0.8409  0.6429
  920TIP3   OH224174   0.687   0.675   1.283 -0.0680  0.2896 -0.0789
  920TIP3    H124175   0.689   0.701   1.375 -0.8394 -0.3191  0.1240
  920TIP3    H224176   0.594   0.672   1.260  0.1388  1.4673 -1.1911
  921TIP3   OH224177   0.457   5.989  13.706 -0.3965 -0.3324 -0.6335
  921TIP3    H124178   0.408   5.916  13.745 -0.0343 -0.8010 -1.0434
  921TIP3    H224179   0.545   5.980  13.741 -0.1199 -0.6299 -1.3796
  922TIP3   OH224180   3.972   3.469   2.494 -0.3472  0.3537 -0.5278
  922TIP3    H124181   3.946   3.395   2.439  1.0273 -0.5635  0.0000
  922TIP3    H224182   4.068   3.472   2.487 -0.3537  2.0796 -0.5092
  923TIP3   OH224183   1.587   5.297  13.121 -0.0435  0.3055 -0.6224
  923TIP3    H124184   1.495   5.320  13.130 -0.2684  0.0319 -1.9971
  923TIP3    H224185   1.596   5.268  13.030  1.2364 -0.4129 -0.2932
  924TIP3   OH224186   3.308   2.351   5.194  0.1852  0.2282  0.0304
  924TIP3    H124187   3.365   2.349   5.117 -0.8985  0.4482 -0.8147
  924TIP3    H224188   3.223   2.321   5.161  0.0368 -0.9967  1.4624
  925TIP3   OH224189   1.034   1.799   2.298  0.3763  0.4516 -0.0107
  925TIP3    H124190   1.122   1.829   2.321  0.4343  0.3973 -0.1601
  925TIP3    H224191   1.013   1.734   2.365  0.9483 -0.4458 -0.6668
  926TIP3   OH224192   3.084   5.589  10.523 -0.3961 -1.0531 -0.3971
  926TIP3    H124193   3.135   5.613  10.601 -1.4231 -0.4559  0.1045
  926TIP3    H224194   3.120   5.644  10.453 -0.0737 -0.9397 -0.1422
  927TIP3   OH224195   1.762   2.436   2.557  0.1592 -0.2240  0.0202
  927TIP3    H124196   1.838   2.468   2.509 -1.2824  0.2747 -2.0268
  927TIP3    H224197   1.789   2.350   2.589  1.4807 -0.1904 -0.9363
  928TIP3   OH224198   6.337   2.297   5.780  0.8120 -0.4162 -0.1900
  928TIP3    H124199   6.390   2.361   5.827 -1.6150  2.9285 -1.5895
  928TIP3    H224200   6.329   2.223   5.840  3.6429  0.6122  1.6331
  929TIP3   OH224201   0.217   1.577  12.167  0.2940 -0.0358 -0.2039
  929TIP3    H124202   0.216   1.556  12.261 -1.0644 -1.8057 -0.5610
  929TIP3    H224203   0.124   1.586  12.144  0.6572  1.8887 -1.1121
  930TIP3   OH224204   5.098   3.083   6.159 -0.1834 -0.2305  0.0089
  930TIP3    H124205   5.033   3.080   6.089 -1.0371 -1.7272  0.8355
  930TIP3    H224206   5.181   3.063   6.115 -0.6531 -0.7659 -0.6479
  931TIP3   OH224207   4.874   1.892  11.717 -0.6612  0.1461 -0.3065
  931TIP3    H124208   4.837   1.966  11.669 -1.4073  0.8648  1.2835
  931TIP3    H224209   4.800   1.831  11.728 -1.1512  1.0421  1.8546
  932TIP3   OH224210   2.786   6.611  17.141  0.0878 -0.2698 -0.3770
  932TIP3    H124211   2.812   6.559  17.065 -0.3886 -0.5447 -0.3543
  932TIP3    H224212   2.790   6.549  17.215  0.3024 -0.0685 -0.2182
  933TIP3   OH224213   2.571   6.585  15.611  0.0564  0.2089  0.2926
  933TIP3    H124214   2.604   6.626  15.691  1.1323  0.3455 -0.2026
  933TIP3    H224215   2.638   6.522  15.587 -0.2407  0.1978 -0.5295
  934TIP3   OH224216   6.078   1.147   2.189 -0.6889  0.1598  0.0032
  934TIP3    H124217   6.099   1.241   2.193  1.8239 -0.2727 -1.0779
  934TIP3    H224218   6.038   1.128   2.273 -0.0013  1.9624  0.7944
  935TIP3   OH224219   5.016   1.976   5.950  0.0278 -0.4761  0.0668
  935TIP3    H124220   5.080   2.040   5.981 -0.4433 -0.3660  0.8317
  935TIP3    H224221   5.006   1.915   6.023  0.2398 -1.2527 -0.5415
  936TIP3   OH224222   4.219   0.320   2.383 -0.2228 -0.3474 -0.1181
  936TIP3    H124223   4.173   0.246   2.423  1.2573 -1.7106 -0.8167
  936TIP3    H224224   4.299   0.330   2.435  0.0727  0.0956 -0.6461
  937TIP3   OH224225   1.678   5.059   6.882  0.0449 -0.2495  0.3900
  937TIP3    H124226   1.718   5.142   6.855  2.2889 -1.9529 -1.9298
  937TIP3    H224227   1.615   5.039   6.813 -1.4522  0.0586  1.5976
  938TIP3   OH224228   0.351   2.261   6.253 -0.5733 -0.3129  0.6652
  938TIP3    H124229   0.382   2.299   6.335 -2.0676 -0.5232  1.3635
  938TIP3    H224230   0.339   2.336   6.195 -1.5815  0.0947  1.3749
  939TIP3   OH224231   2.839   2.775   1.371  0.2569  0.4092 -1.0097
  939TIP3    H124232   2.865   2.855   1.416 -1.1940  0.0385  0.5818
  939TIP3    H224233   2.856   2.705   1.434 -0.5141 -0.2977 -1.5617
  940TIP3   OH224234   2.824   1.823   5.580 -0.2878 -0.2327  0.8597
  940TIP3    H124235   2.797   1.732   5.565  0.6448 -0.1381 -1.9665
  940TIP3    H224236   2.765   1.875   5.526 -0.3408  0.8262  1.8875
  941TIP3   OH224237   5.320   3.282  15.228  0.1461  0.0683 -0.4117
  941TIP3    H124238   5.233   3.248  15.208 -0.3779  0.7351  0.6485
  941TIP3    H224239   5.308   3.337  15.305  1.7998 -1.2324  0.8780
  942TIP3   OH224240   6.426   5.901   6.003  0.1120  0.0443 -0.2566
  942TIP3    H124241   6.333   5.899   6.025  0.1605  0.9048  0.0520
  942TIP3    H224242   6.470   5.930   6.083  0.6292 -0.1177 -0.4724
  943TIP3   OH224243   2.009   3.957  11.455 -0.5966 -0.3865 -0.3089
  943TIP3    H124244   2.093   3.926  11.421  1.6000  0.3108  3.8548
  943TIP3    H224245   2.013   4.052  11.444 -0.6192 -0.3106  0.3191
  944TIP3   OH224246   2.840   3.825   2.789  0.1938  0.4556 -0.1956
  944TIP3    H124247   2.906   3.778   2.840 -1.1681  0.3705  1.5631
  944TIP3    H224248   2.878   3.912   2.775  0.9513  0.1961  0.2152
  945TIP3   OH224249   2.234   4.217  14.144  0.3181 -0.6148  0.3517
  945TIP3    H124250   2.157   4.187  14.193  0.4372 -4.1793 -1.3286
  945TIP3    H224251   2.307   4.204  14.205 -0.1071  0.5191  1.1327
  946TIP3   OH224252   2.956   0.771  12.758 -0.5020 -0.4675 -0.8426
  946TIP3    H124253   2.896   0.841  12.786 -0.1695  0.0059 -1.2827
  946TIP3    H224254   2.986   0.731  12.840  0.0942  0.5884 -0.5200
  947TIP3   OH224255   2.140   4.030  13.621 -0.0421  0.1849  0.2155
  947TIP3    H124256   2.080   4.048  13.694  0.9598 -0.7562  1.3206
  947TIP3    H224257   2.165   3.939  13.633 -0.6330 -0.3080 -1.9345
  948TIP3   OH224258   0.263   5.141   5.194  0.0707 -0.5016 -0.2663
  948TIP3    H124259   0.210   5.141   5.114 -0.2833  0.2158 -0.0420
  948TIP3    H224260   0.353   5.150   5.163 -0.0677 -0.1758 -0.5822
  949TIP3   OH224261   0.241   5.243  13.209 -0.4627  0.3468  0.3461
  949TIP3    H124262   0.230   5.196  13.126 -0.8829 -0.0867  0.6357
  949TIP3    H224263   0.307   5.310  13.191  0.1817 -0.3846 -0.0718
  950TIP3   OH224264   3.696   2.757   6.541  0.2683 -0.3707  0.4953
  950TIP3    H124265   3.675   2.687   6.603  0.0308  0.5256  1.4491
  950TIP3    H224266   3.628   2.823   6.555  1.0458  0.4856  0.3146
  951TIP3   OH224267   0.330   3.008  14.964  0.1614 -0.5638 -0.4007
  951TIP3    H124268   0.319   3.102  14.982 -0.6498 -0.4299 -1.5275
  951TIP3    H224269   0.242   2.971  14.972  0.1276 -0.8682 -1.8577
  952TIP3   OH224270   4.098   4.387  11.522  0.2060 -0.5550 -0.2078
  952TIP3    H124271   4.063   4.476  11.519 -2.7640 -1.6640 -0.8185
  952TIP3    H224272   4.119   4.367  11.431 -1.4832 -1.3042 -0.4612
  953TIP3   OH224273   2.367   1.412  16.420 -0.0725  0.0323  0.6514
  953TIP3    H124274   2.461   1.426  16.404 -0.4719 -0.3310 -2.6864
  953TIP3    H224275   2.342   1.484  16.477  1.8321  1.4763 -0.2166
  954TIP3   OH224276   2.488   6.416   0.039  0.0850 -0.8915 -0.1308
  954TIP3    H124277   2.514   6.455   0.123 -0.2073  0.6036 -0.7161
  954TIP3    H224278   2.558   6.353   0.020  1.4013  0.4280  0.1188
  955TIP3   OH224279   4.365   2.325   3.597 -0.1758  0.0288  0.0078
  955TIP3    H124280   4.284   2.376   3.596  0.2130  0.6629  0.0630
  955TIP3    H224281   4.399   2.337   3.685  0.9626  1.3730 -0.5840
  956TIP3   OH224282   0.901   0.361  12.291  0.4789 -0.3906 -0.5399
  956TIP3    H124283   0.826   0.328  12.341  0.8172 -1.1878 -0.5506
  956TIP3    H224284   0.952   0.411  12.355  0.9027 -1.3946 -0.0820
  957TIP3   OH224285   0.453   2.718  13.288 -0.6495 -0.3254 -0.6486
  957TIP3    H124286   0.490   2.754  13.207  0.0488 -0.6306 -0.4737
  957TIP3    H224287   0.426   2.629  13.264 -1.5405 -0.0186 -0.8442
  958TIP3   OH224288   5.795   0.562   1.783 -0.6853  0.6323 -0.4550
  958TIP3    H124289   5.823   0.651   1.762 -1.1214  0.6149 -1.1407
  958TIP3    H224290   5.747   0.533   1.706  0.9301 -0.8554 -0.9552
  959TIP3   OH224291   6.080   3.255  14.248 -0.1511  0.0946  0.0695
  959TIP3    H124292   6.087   3.264  14.153 -1.7530 -1.7093 -0.2754
  959TIP3    H224293   5.987   3.271  14.267  0.7728  4.9868  1.9977
  960TIP3   OH224294   2.937   4.237   1.901 -0.3671 -0.6798 -0.4150
  960TIP3    H124295   3.011   4.181   1.880  0.8054  0.8389 -0.4750
  960TIP3    H224296   2.885   4.186   1.963  1.1722 -1.4589  0.2749
  961TIP3   OH224297   6.080   5.946  17.209  0.0150  0.4089  0.2778
  961TIP3    H124298   6.136   5.972  17.135  1.1051 -0.4203  0.7912
  961TIP3    H224299   6.086   5.850  17.211 -2.4018  0.1605 -0.3886
  962TIP3   OH224300   2.964   0.374   4.031  0.7812  0.1129 -0.0771
  962TIP3    H124301   2.987   0.360   4.123  1.7518  1.0639 -0.1526
  962TIP3    H224302   2.973   0.288   3.990  0.8724 -0.2071  0.5956
  963TIP3   OH224303   2.149   0.715  17.042  0.6646 -0.3216 -0.2536
  963TIP3    H124304   2.178   0.657  17.112  1.4023  0.2844 -0.0387
  963TIP3    H224305   2.192   0.682  16.963 -0.0949 -0.9499 -0.4152
  964TIP3   OH224306   5.113   0.881   3.061 -0.1651 -0.2356  0.1054
  964TIP3    H124307   5.182   0.844   3.116 -0.2430 -1.8456 -0.8277
  964TIP3    H224308   5.156   0.900   2.978 -0.2722  1.2854  0.3573
  965TIP3   OH224309   4.990   5.995  10.762 -0.7814  0.0116  0.1701
  965TIP3    H124310   4.989   6.072  10.819 -1.6917 -0.3012  0.5971
  965TIP3    H224311   4.950   6.025  10.680  1.9099  0.8843 -0.9363
  966TIP3   OH224312   1.314   4.109  15.485  0.3358  0.3740  0.1948
  966TIP3    H124313   1.379   4.090  15.419  0.1097 -1.5977  0.4754
  966TIP3    H224314   1.232   4.119  15.436  0.4372  0.5133  0.0522
  967TIP3   OH224315   1.492   0.311  12.159 -0.3601  0.2615 -0.4904
  967TIP3    H124316   1.484   0.368  12.083 -1.1177 -0.2459 -0.8041
  967TIP3    H224317   1.571   0.260  12.142 -0.1669  0.6007 -0.6255
  968TIP3   OH224318   2.356   6.586   1.037  0.2240  0.0065 -0.1981
  968TIP3    H124319   2.325   6.524   0.971 -0.0156  0.5281 -0.5796
  968TIP3    H224320   2.361   6.534   1.117 -1.4177 -0.1633 -0.1660
  969TIP3   OH224321   4.668   5.979   4.606  0.0809  0.1396 -0.2347
  969TIP3    H124322   4.629   6.066   4.608 -0.6473 -0.1743  1.1483
  969TIP3    H224323   4.610   5.926   4.662  1.6014 -0.7386  0.5831
  970TIP3   OH224324   5.145   2.887  14.406  0.6517 -0.2653  0.4730
  970TIP3    H124325   5.078   2.943  14.446 -0.6549 -1.9044  0.6666
  970TIP3    H224326   5.214   2.881  14.472  0.6895  0.8320  0.5636
  971TIP3   OH224327   4.244   2.949  17.123  0.2189  0.2283 -0.1253
  971TIP3    H124328   4.177   2.901  17.074  1.4263 -1.3812 -0.2820
  971TIP3    H224329   4.220   2.937  17.215 -1.1984  1.9746 -0.2219
  972TIP3   OH224330   5.857   2.264   2.617  0.1499  0.0874 -0.0002
  972TIP3    H124331   5.787   2.275   2.552 -1.1779  0.5867  1.4574
  972TIP3    H224332   5.847   2.338   2.676  0.1416 -1.3044  1.8347
  973TIP3   OH224333   5.384   4.460  13.182  0.2312  0.3500 -0.1133
  973TIP3    H124334   5.317   4.504  13.130 -0.3703 -0.7379 -0.2913
  973TIP3    H224335   5.343   4.447  13.267  0.5237  0.4320  0.0407
  974TIP3   OH224336   5.713   2.342  14.160  0.2257  0.0378  0.1373
  974TIP3    H124337   5.795   2.351  14.209 -0.4646  1.0892  1.1587
  974TIP3    H224338   5.738   2.356  14.069  1.2970 -0.3837  0.3524
  975TIP3   OH224339   6.334   0.229   2.742  0.2379 -0.1565 -0.3144
  975TIP3    H124340   6.383   0.301   2.703  0.9107  0.5577  1.6762
  975TIP3    H224341   6.264   0.272   2.792  0.2997 -0.8864  0.4354
  976TIP3   OH224342   5.340   3.597  11.301 -0.2553 -1.3165  0.2331
  976TIP3    H124343   5.317   3.626  11.212  0.9893 -1.2096 -0.0695
  976TIP3    H224344   5.419   3.646  11.323 -0.9339 -0.8276  1.6924
  977TIP3   OH224345   6.154   6.200  12.842 -0.2882 -0.3889 -0.1442
  977TIP3    H124346   6.235   6.148  12.834  1.2005  1.8421 -0.5806
  977TIP3    H224347   6.153   6.254  12.763 -2.1203 -0.2062 -0.0160
  978TIP3   OH224348   1.893   3.799   4.402 -0.4656 -0.1985  0.0371
  978TIP3    H124349   1.874   3.705   4.398  0.0177 -0.2774 -3.0174
  978TIP3    H224350   1.935   3.811   4.487 -1.9960 -2.4036  1.2288
  979TIP3   OH224351   4.393   2.173   4.615  0.6744  0.0236  0.1180
  979TIP3    H124352   4.445   2.185   4.694 -1.6394  1.3724  1.5450
  979TIP3    H224353   4.402   2.256   4.567  0.0414  0.2120  0.3021
  980TIP3   OH224354   4.218   3.066  12.150 -0.1078  0.2376 -0.2853
  980TIP3    H124355   4.226   3.134  12.082 -2.7031  1.4884  0.4860
  980TIP3    H224356   4.298   3.015  12.143  1.6770  2.9440 -1.4197
  981TIP3   OH224357   2.536   5.338   2.565  0.3002 -0.1630 -0.0706
  981TIP3    H124358   2.539   5.342   2.660  0.7111  1.1993 -0.1282
  981TIP3    H224359   2.468   5.400   2.540  0.4895 -0.1936 -0.6915
  982TIP3   OH224360   5.274   2.902  11.026  0.1295  0.3918 -0.0196
  982TIP3    H124361   5.301   2.810  11.031 -1.3473 -0.0901 -0.1314
  982TIP3    H224362   5.318   2.944  11.099 -0.4135 -0.7818  1.0425
  983TIP3   OH224363   4.942   6.214  13.768 -0.2043  0.1152  0.0286
  983TIP3    H124364   5.013   6.274  13.745 -0.4584  0.6189  0.5362
  983TIP3    H224365   4.956   6.138  13.712  0.7822  0.1741  0.1776
  984TIP3   OH224366   1.161   3.712   0.604 -0.5293  0.4841  0.7084
  984TIP3    H124367   1.145   3.713   0.699  0.8041 -1.0824  1.0060
  984TIP3    H224368   1.240   3.764   0.593  0.3592 -0.8075  0.7345
  985TIP3   OH224369   0.454   3.331   4.570 -0.6087  0.6735  0.0367
  985TIP3    H124370   0.488   3.300   4.486  1.4348  1.1798  0.6393
  985TIP3    H224371   0.371   3.374   4.547 -0.5428  0.0036 -1.5818
  986TIP3   OH224372   1.662   5.814   5.547  0.3023  0.3197  0.3181
  986TIP3    H124373   1.649   5.830   5.454 -1.4681  1.1787  0.6696
  986TIP3    H224374   1.740   5.758   5.551  0.4613  0.3227 -1.6504
  987TIP3   OH224375   3.295   2.343  11.517  0.4239  0.2263  0.6952
  987TIP3    H124376   3.303   2.435  11.542 -0.4624  1.2903 -2.4289
  987TIP3    H224377   3.205   2.319  11.543 -0.0635  0.9153 -0.3114
  988TIP3   OH224378   5.445   6.748   4.050  0.3787  0.0805  0.0891
  988TIP3    H124379   5.368   6.751   4.107  0.2857  1.3023 -0.0706
  988TIP3    H224380   5.433   6.669   3.997 -0.3490 -0.1798  0.6258
  989TIP3   OH224381   5.820   5.301   1.016 -0.3118  0.1721 -0.4152
  989TIP3    H124382   5.806   5.395   1.006  0.1779  0.1873 -0.9447
  989TIP3    H224383   5.813   5.265   0.928  1.1215 -0.0677 -0.4546
  990TIP3   OH224384   2.117   1.877   2.612 -0.2277  0.2009  0.2720
  990TIP3    H124385   2.021   1.875   2.617 -0.1864 -1.9936  1.0029
  990TIP3    H224386   2.138   1.846   2.524 -0.1873 -0.8811  0.6476
  991TIP3   OH224387   0.613   4.642   4.526  0.0850  0.6126  0.2409
  991TIP3    H124388   0.529   4.674   4.557  0.7425 -0.1245  3.0286
  991TIP3    H224389   0.678   4.684   4.583  1.3361 -1.5387  0.5147
  992TIP3   OH224390   5.074   6.033   2.605  0.0538 -0.4809 -0.0385
  992TIP3    H124391   4.993   6.083   2.599  1.3143  1.5203 -1.5646
  992TIP3    H224392   5.140   6.097   2.630  1.6728 -1.4247 -1.6260
  993TIP3   OH224393   0.721   3.934  15.261  0.4981 -0.1225  0.2222
  993TIP3    H124394   0.727   3.842  15.288  0.2225 -0.0904  0.4005
  993TIP3    H224395   0.752   3.983  15.337 -0.0673 -0.0415  0.4098
  994TIP3   OH224396   2.265   2.600  13.219  0.1099  0.3663  0.6019
  994TIP3    H124397   2.218   2.653  13.154  0.3565  1.7205  1.4899
  994TIP3    H224398   2.205   2.596  13.294  1.2166  1.8933  1.6468
  995TIP3   OH224399   5.212   4.357  13.402 -0.0968 -0.1399 -0.0043
  995TIP3    H124400   5.295   4.325  13.436  0.3752  0.5439 -0.4776
  995TIP3    H224401   5.155   4.365  13.479  1.1683  2.0613  0.7814
  996TIP3   OH224402   1.333   5.487   6.595 -0.3138 -0.4538  0.7296
  996TIP3    H124403   1.273   5.536   6.538  0.3739  0.4454  0.7591
  996TIP3    H224404   1.380   5.429   6.536 -1.9866 -2.0063  0.8462
  997TIP3   OH224405   3.267   5.575  17.220 -0.2233  0.0410  0.6658
  997TIP3    H124406   3.222   5.601  17.301  1.4398  0.0015  1.6529
  997TIP3    H224407   3.360   5.581  17.242  0.2720  0.0705 -1.2796
  998TIP3   OH224408   6.415   0.107   3.847  0.0980 -0.0650  0.0830
  998TIP3    H124409   6.329   0.135   3.880 -0.2394  0.0123 -0.8323
  998TIP3    H224410   6.475   0.125   3.919 -0.7230 -0.5404  0.9002
  999TIP3   OH224411   2.009   1.401  14.011  0.0078 -0.3165  0.5135
  999TIP3    H124412   2.048   1.484  14.038 -2.0456  0.4269  1.3625
  999TIP3    H224413   1.956   1.423  13.934 -1.3181 -0.6111  1.3162
 1000TIP3   OH224414   3.121   4.732   4.003 -0.0223 -0.2206 -0.3965
 1000TIP3    H124415   3.167   4.656   4.039 -1.8590 -0.8200  0.7992
 1000TIP3    H224416   3.130   4.799   4.072  2.4542  1.1049 -1.8451
 1001TIP3   OH224417   4.779   4.616  16.713  0.6937  0.0489  0.5763
 1001TIP3    H124418   4.744   4.530  16.737 -1.1292 -0.1263 -2.2763
 1001TIP3    H224419   4.868   4.598  16.683  0.8551 -0.5973  1.4168
 1002TIP3   OH224420   6.069   4.559   4.031 -0.7468 -0.4230 -0.6133
 1002TIP3    H124421   6.003   4.558   4.100 -1.7971 -1.4584 -1.5859
 1002TIP3    H224422   6.020   4.581   3.952 -0.1154 -2.1569 -1.5229
 1003TIP3   OH224423   3.089   3.860   0.440  0.8137  0.2693  0.2513
 1003TIP3    H124424   3.088   3.944   0.396 -0.8821 -0.4746 -1.2500
 1003TIP3    H224425   3.034   3.873   0.518 -0.0089  0.3981 -0.3383
 1004TIP3   OH224426   1.352   6.070  12.123 -0.1901 -0.3701  0.5875
 1004TIP3    H124427   1.388   5.985  12.096  0.6290  0.3167 -0.6223
 1004TIP3    H224428   1.378   6.079  12.215  1.6859 -0.4817  0.1234
 1005TIP3   OH224429   5.746   0.288   2.161 -0.6232 -0.1086  0.2955
 1005TIP3    H124430   5.805   0.247   2.224 -1.0748 -0.7697  0.2948
 1005TIP3    H224431   5.805   0.322   2.093 -0.0289  1.7837  1.6849
 1006TIP3   OH224432   4.875   0.299  16.986  0.7222  0.2293  0.5810
 1006TIP3    H124433   4.816   0.239  16.940  0.0603  0.7091  0.7892
 1006TIP3    H224434   4.942   0.321  16.921  1.0294 -0.7940  0.5267
 1007TIP3   OH224435   3.905   5.691   5.096  0.6707 -0.1084 -0.6246
 1007TIP3    H124436   3.897   5.606   5.140 -0.0287 -1.1769 -2.6999
 1007TIP3    H224437   3.818   5.708   5.061  1.2643  0.5403 -1.8463
 1008TIP3   OH224438   4.461   4.330   2.639 -0.8469 -0.0113 -0.1210
 1008TIP3    H124439   4.493   4.411   2.679  2.5624 -1.4082  0.3067
 1008TIP3    H224440   4.405   4.360   2.568 -1.1916  2.6667  1.1418
 1009TIP3   OH224441   2.349   1.655  17.016  0.3638 -0.3386 -0.4854
 1009TIP3    H124442   2.268   1.619  16.980  1.4896 -2.5742 -0.9368
 1009TIP3    H224443   2.331   1.665  17.109 -1.2234  1.6140 -0.9415
 1010TIP3   OH224444   5.598   3.271   6.163 -0.5347 -0.0443 -0.1905
 1010TIP3    H124445   5.619   3.262   6.256 -0.5787  0.6719 -0.1080
 1010TIP3    H224446   5.503   3.265   6.160 -0.4598 -1.5384 -0.3665
 1011TIP3   OH224447   4.858   3.409   2.229  0.6080  0.0566 -0.2294
 1011TIP3    H124448   4.789   3.421   2.295  1.2415  3.3433  0.0237
 1011TIP3    H224449   4.867   3.314   2.220 -2.0650 -0.4883  1.6767
 1012TIP3   OH224450   6.037   4.200   1.373  0.0529 -0.0768  0.1263
 1012TIP3    H124451   6.069   4.210   1.463  0.6436  2.4261 -0.2975
 1012TIP3    H224452   6.104   4.147   1.330  0.5843  0.0561  0.7681
 1013TIP3   OH224453   3.856   4.482  15.382  0.3152 -0.0980  0.7032
 1013TIP3    H124454   3.898   4.397  15.398  1.5462  0.3110 -0.2024
 1013TIP3    H224455   3.787   4.463  15.318  1.3854 -0.2491 -0.4454
 1014TIP3   OH224456   2.223   0.082   4.474  0.6541 -0.2054  0.2467
 1014TIP3    H124457   2.129   0.098   4.479  0.7127  0.3426 -0.3012
 1014TIP3    H224458   2.262   0.148   4.531  0.8409  1.1451 -1.3567
 1015TIP3   OH224459   4.961   4.985   1.041  0.3305  0.0036  0.1236
 1015TIP3    H124460   4.924   4.937   0.968  2.0198  1.2385 -1.6548
 1015TIP3    H224461   4.990   4.917   1.102 -0.6655 -1.0753 -0.5659
 1016TIP3   OH224462   4.712   3.297  15.897  0.3459  0.3231 -0.3470
 1016TIP3    H124463   4.633   3.274  15.946 -0.4508  1.9095 -0.8320
 1016TIP3    H224464   4.744   3.377  15.940  0.7815  0.5777 -1.1401
 1017TIP3   OH224465   5.721   0.982  10.707 -0.2974 -0.5261 -0.1406
 1017TIP3    H124466   5.803   0.963  10.751 -0.0275 -0.9224 -0.8010
 1017TIP3    H224467   5.729   1.073  10.679 -0.1807 -0.4973 -0.0133
 1018TIP3   OH224468   1.682   0.737  15.818 -0.2470 -0.0377 -0.0492
 1018TIP3    H124469   1.667   0.820  15.863 -1.4027  0.2093 -0.8608
 1018TIP3    H224470   1.596   0.694  15.817  0.1663 -0.8823 -0.3507
 1019TIP3   OH224471   3.991   4.773   2.133  0.9022 -0.4201  0.8173
 1019TIP3    H124472   4.073   4.818   2.152  0.2405  0.7553  0.9723
 1019TIP3    H224473   4.018   4.684   2.109  2.3329  0.3971 -0.8117
 1020TIP3   OH224474   3.436   6.749   6.675 -0.3744 -0.2529  0.3722
 1020TIP3    H124475   3.419   6.670   6.726 -1.6337  0.2824  0.8161
 1020TIP3    H224476   3.351   6.793   6.669 -0.4959 -0.6624 -2.8675
 1021TIP3   OH224477   5.530   6.236  13.681  0.4786 -0.6342  0.8211
 1021TIP3    H124478   5.611   6.280  13.653 -0.4898  0.7860  0.1438
 1021TIP3    H224479   5.465   6.263  13.616 -1.3337  0.9871  3.1349
 1022TIP3   OH224480   3.550   1.550   1.179 -0.1324 -0.2717  0.3110
 1022TIP3    H124481   3.628   1.533   1.126  0.7626 -0.7097  1.7157
 1022TIP3    H224482   3.478   1.516   1.126  0.4866  0.9780 -1.4190
 1023TIP3   OH224483   2.542   0.975  15.552 -0.0034  0.1284  0.5442
 1023TIP3    H124484   2.516   1.067  15.553 -0.5511 -0.0239  0.9662
 1023TIP3    H224485   2.539   0.950  15.460 -0.1563  0.4549  0.4584
 1024TIP3   OH224486   6.602   1.552   4.201  0.2542 -0.0828  0.0748
 1024TIP3    H124487   6.674   1.507   4.245 -0.3357 -1.0517  0.0608
 1024TIP3    H224488   6.545   1.581   4.273  1.7684  2.7828  0.2971
 1025TIP3   OH224489   4.867   1.335  12.974 -0.0979 -0.7203 -0.0172
 1025TIP3    H124490   4.942   1.382  12.938 -2.0582  0.6423 -2.7415
 1025TIP3    H224491   4.877   1.342  13.069  2.1456  1.1365 -0.2995
 1026TIP3   OH224492   2.457   2.074  12.405  0.4333  0.3226  0.4306
 1026TIP3    H124493   2.379   2.018  12.398  0.8188 -0.3824  1.4342
 1026TIP3    H224494   2.424   2.163  12.395 -0.1652 -0.0597 -1.5080
 1027TIP3   OH224495   1.619   6.091  13.309  0.2533  0.3233 -0.0430
 1027TIP3    H124496   1.608   6.177  13.269 -0.5647  0.7001  0.9684
 1027TIP3    H224497   1.634   6.109  13.401  2.2117 -0.5339 -0.1306
 1028TIP3   OH224498   5.356   2.614  10.954  0.3325  0.1594 -0.0293
 1028TIP3    H124499   5.382   2.551  10.887  0.0936  0.3060 -0.2603
 1028TIP3    H224500   5.435   2.626  11.008  0.3458 -0.4146  0.0782
 1029TIP3   OH224501   4.611   4.108   0.080 -0.5903  0.0993 -0.4050
 1029TIP3    H124502   4.621   4.187   0.132 -1.5768  0.7764 -1.2200
 1029TIP3    H224503   4.599   4.038   0.144 -2.3039  0.9847  0.2973
 1030TIP3   OH224504   4.376   0.001   2.982 -0.1850 -0.5027 -0.0262
 1030TIP3    H124505   4.416  -0.073   3.028  0.3455 -0.7007 -0.7924
 1030TIP3    H224506   4.357  -0.033   2.895 -1.3778 -0.1917  0.1025
 1031TIP3   OH224507   4.461   5.713   0.348  0.0370 -0.5297  0.5344
 1031TIP3    H124508   4.442   5.643   0.286 -0.5258  1.2337 -1.3881
 1031TIP3    H224509   4.556   5.716   0.353  0.0739 -1.9379  1.3209
 1032TIP3   OH224510   0.177   1.955  12.190  0.6475 -0.0299 -0.2922
 1032TIP3    H124511   0.186   1.917  12.103  1.7265 -1.2174  0.3104
 1032TIP3    H224512   0.257   2.007  12.202  0.0287  0.9704 -0.3913
 1033TIP3   OH224513   2.721   1.809  12.675  0.2366  0.5585 -0.0685
 1033TIP3    H124514   2.813   1.830  12.692  0.5716 -0.7359 -0.1840
 1033TIP3    H224515   2.707   1.837  12.584  1.0166 -0.7876 -0.6241
 1034TIP3   OH224516   3.101   0.516   1.744 -0.4017  0.0739 -0.1939
 1034TIP3    H124517   3.060   0.512   1.657  2.2705  2.1464 -1.7351
 1034TIP3    H224518   3.135   0.428   1.758 -2.2009 -0.7122 -0.4881
 1035TIP3   OH224519   0.876   1.030   0.906  0.8417  0.5462 -0.0975
 1035TIP3    H124520   0.928   1.012   0.828 -1.3495 -4.1163 -0.9002
 1035TIP3    H224521   0.905   0.965   0.970 -1.8556 -0.3217  0.4075
 1036TIP3   OH224522   0.886   3.387  15.517  0.6109  0.3854 -0.3240
 1036TIP3    H124523   0.849   3.382  15.428  1.1847 -0.1903 -0.5374
 1036TIP3    H224524   0.970   3.342  15.510  0.1722 -0.6644  0.7605
 1037TIP3   OH224525   5.023   3.987   0.788  0.1613  0.0705  0.0967
 1037TIP3    H124526   4.997   4.039   0.712 -0.7996 -1.4722 -0.6697
 1037TIP3    H224527   5.110   3.952   0.765  0.4068  0.5816  0.2329
 1038TIP3   OH224528   2.005   1.562   2.819  0.2596  0.0158  0.2341
 1038TIP3    H124529   2.074   1.537   2.881  0.1494 -0.4280  0.1849
 1038TIP3    H224530   2.019   1.504   2.744 -0.2921 -0.2274  0.3100
 1039TIP3   OH224531   2.960   4.947  11.492  0.6324 -0.5223 -0.2738
 1039TIP3    H124532   3.023   4.995  11.437  1.3145 -0.5048  0.5050
 1039TIP3    H224533   3.014   4.884  11.540  0.2681  0.4047  1.4270
 1040TIP3   OH224534   3.785   2.581  13.254 -1.1874 -0.3775 -0.2872
 1040TIP3    H124535   3.732   2.551  13.328 -1.2563 -1.5874 -0.7986
 1040TIP3    H224536   3.750   2.668  13.233 -0.6115  0.3778  1.6041
 1041TIP3   OH224537   2.271   1.900   0.085  0.0125  0.2354  0.3088
 1041TIP3    H124538   2.188   1.947   0.091 -0.2689  0.1618 -2.1697
 1041TIP3    H224539   2.327   1.956   0.031  0.6766 -0.8936 -0.2216
 1042TIP3   OH224540   2.590   1.095   3.670  0.0094  0.0844  0.5290
 1042TIP3    H124541   2.504   1.082   3.712 -0.1404  0.1724  0.2532
 1042TIP3    H224542   2.649   1.117   3.743 -0.1656 -0.1402  0.7419
 1043TIP3   OH224543   3.916   1.640   2.774 -0.1929 -0.6209  0.3748
 1043TIP3    H124544   3.878   1.709   2.829  1.1537  0.7375 -0.3111
 1043TIP3    H224545   3.938   1.570   2.835  0.5152  0.5098  1.4755
 1044TIP3   OH224546   0.773   4.812  17.195  0.1407 -0.3195 -0.2484
 1044TIP3    H124547   0.787   4.725  17.158  0.3187 -0.2542 -0.3361
 1044TIP3    H224548   0.758   4.796  17.288 -1.1214 -0.5597 -0.4744
 1045TIP3   OH224549   2.645   1.130   2.609  0.1691  0.1365 -0.0007
 1045TIP3    H124550   2.711   1.098   2.671  0.5511 -1.0271 -0.9704
 1045TIP3    H224551   2.620   1.216   2.644 -0.7212 -1.0562  2.5773
 1046TIP3   OH224552   6.192   1.753  13.141 -0.2160 -0.6105  0.0776
 1046TIP3    H124553   6.286   1.766  13.147 -0.3295 -0.5076  2.3306
 1046TIP3    H224554   6.167   1.713  13.224 -2.4739  1.6193  0.6233
 1047TIP3   OH224555   1.015   1.391  12.518  0.0104 -0.0678  0.0829
 1047TIP3    H124556   0.931   1.398  12.474 -0.8309  0.1479  1.6495
 1047TIP3    H224557   0.998   1.418  12.608  1.8348  0.3146  0.3664
 1048TIP3   OH224558   5.063   4.679  17.106  0.4242  0.2253  0.1174
 1048TIP3    H124559   5.118   4.725  17.043  0.1111 -1.1491 -1.2349
 1048TIP3    H224560   5.112   4.683  17.188  1.1871  1.4615 -0.3769
 1049TIP3   OH224561   5.070   2.144   3.480 -0.9771  0.1646 -0.1208
 1049TIP3    H124562   5.160   2.173   3.491 -0.3395 -1.6861 -0.0224
 1049TIP3    H224563   5.025   2.218   3.439  0.6961  0.9483 -0.6091
 1050TIP3   OH224564   4.507   2.665  14.377 -0.0731  0.1808  0.2214
 1050TIP3    H124565   4.592   2.625  14.363 -0.4075 -0.1767 -0.8118
 1050TIP3    H224566   4.520   2.758  14.357  0.3824  0.3855  1.3664
 1051TIP3   OH224567   4.419   6.396  13.161 -0.2858 -0.0488  0.7862
 1051TIP3    H124568   4.491   6.334  13.145  0.0053  0.8192 -1.6957
 1051TIP3    H224569   4.462   6.474  13.196 -0.3075 -0.2781  1.3319
 1052TIP3   OH224570   4.380   1.906   4.305  0.2590  0.1153  0.3214
 1052TIP3    H124571   4.381   1.827   4.251 -1.7819 -1.4277  2.3327
 1052TIP3    H224572   4.469   1.911   4.341  1.2365  0.3959 -1.9465
 1053TIP3   OH224573   3.740   4.053  14.463  0.3023 -0.4938  0.3655
 1053TIP3    H124574   3.666   4.014  14.417 -0.1024 -1.0519  1.4378
 1053TIP3    H224575   3.751   4.140  14.424 -1.6764  0.0654  0.9588
 1054TIP3   OH224576   3.510   3.570   2.672  0.0738 -0.4216  0.2283
 1054TIP3    H124577   3.441   3.613   2.723  0.3073 -0.6016  0.7017
 1054TIP3    H224578   3.464   3.528   2.599 -0.2901 -0.3634  0.4235
 1055TIP3   OH224579   3.096   0.075   2.891 -0.2763 -0.3088 -0.3368
 1055TIP3    H124580   3.180   0.105   2.927 -0.3824  0.2606 -0.5589
 1055TIP3    H224581   3.070   0.004   2.949  0.5583 -0.7629 -0.5044
 1056TIP3   OH224582   0.335   3.062   6.402 -0.0538  0.6933 -0.4006
 1056TIP3    H124583   0.311   3.080   6.311 -1.3607  2.3297  0.2079
 1056TIP3    H224584   0.345   3.149   6.441  1.7002  0.0177  0.7336
 1057TIP3   OH224585   4.630   5.301  11.210  0.3129 -0.2114 -0.6550
 1057TIP3    H124586   4.704   5.363  11.211  0.7547 -0.7357 -0.7363
 1057TIP3    H224587   4.621   5.275  11.119  1.6433 -2.0486 -0.3216
 1058TIP3   OH224588   5.039   5.818   0.285 -0.2348  0.0725  0.3172
 1058TIP3    H124589   4.974   5.887   0.297  1.2833  1.7989 -0.8826
 1058TIP3    H224590   5.065   5.825   0.193  2.8122  0.6161  1.1060
 1059TIP3   OH224591   4.961   5.418  12.537 -0.4935  0.0292  0.8292
 1059TIP3    H124592   4.940   5.504  12.501  0.8671  0.1540  0.2803
 1059TIP3    H224593   4.972   5.432  12.630  1.9052  0.9394  0.4715
 1060TIP3   OH224594   5.963   4.222   0.347 -0.5051 -0.3330 -0.0051
 1060TIP3    H124595   5.922   4.256   0.427  0.6127  0.2868  0.3387
 1060TIP3    H224596   6.024   4.291   0.321  0.6462 -1.4012 -0.2312
 1061TIP3   OH224597   4.893   4.093   0.176  1.0630 -0.4956 -0.5318
 1061TIP3    H124598   4.932   4.180   0.180 -0.0272  0.0165 -0.5464
 1061TIP3    H224599   4.813   4.105   0.125  0.4686 -1.3319  0.1707
 1062TIP3   OH224600   4.054   0.839  11.673 -0.1518  0.1766  0.1665
 1062TIP3    H124601   4.008   0.766  11.631  0.5554 -1.0940  1.4807
 1062TIP3    H224602   4.082   0.803  11.758  0.7674  1.7993  0.5885
 1063TIP3   OH224603   3.712   0.464   3.957 -0.3985 -0.5608  0.0206
 1063TIP3    H124604   3.730   0.374   3.983 -1.4129 -0.7564  0.0880
 1063TIP3    H224605   3.750   0.517   4.028  1.9735 -0.7947 -0.9640
 1064TIP3   OH224606   0.642   6.110   5.879 -0.0205 -0.4080  0.4618
 1064TIP3    H124607   0.648   6.183   5.818  0.6169 -0.1579  0.8087
 1064TIP3    H224608   0.669   6.033   5.828 -0.9510 -0.4582  0.0230
 1065TIP3   OH224609   6.315   0.541   5.351 -0.0708  0.2557 -0.3364
 1065TIP3    H124610   6.386   0.586   5.397  0.0617  0.3313 -0.6108
 1065TIP3    H224611   6.262   0.612   5.313  1.3277  0.1916 -2.5731
 1066TIP3   OH224612   5.713   3.363  16.896 -0.1306 -0.3800 -0.3074
 1066TIP3    H124613   5.732   3.437  16.954 -0.2507  0.5751 -1.4334
 1066TIP3    H224614   5.644   3.396  16.838 -0.6950 -1.6368 -0.3727
 1067TIP3   OH224615   0.056   5.910   5.227  0.3437  0.1311 -0.1090
 1067TIP3    H124616   0.111   5.923   5.304 -0.5024  2.5469  0.1623
 1067TIP3    H224617  -0.028   5.882   5.263  0.5120 -0.6658 -0.3178
 1068TIP3   OH224618   3.632   4.358   2.341  0.8205  0.0129 -0.8615
 1068TIP3    H124619   3.563   4.423   2.349  0.3716 -0.4806 -0.6637
 1068TIP3    H224620   3.710   4.408   2.317  1.3453  1.1678  2.5699
 1069TIP3   OH224621   0.881   0.466   1.185  0.2844 -0.1261 -0.0995
 1069TIP3    H124622   0.808   0.524   1.166  0.7201  0.1567 -0.9802
 1069TIP3    H224623   0.862   0.429   1.271 -0.6834  0.2547 -0.1484
 1070TIP3   OH224624   2.380   5.883  13.437 -0.2121 -0.5814 -0.2323
 1070TIP3    H124625   2.310   5.818  13.447  0.4638 -1.3577 -0.4446
 1070TIP3    H224626   2.385   5.898  13.342 -0.2842 -0.3046 -0.1940
 1071TIP3   OH224627   3.672   0.523   2.373 -0.1407  0.4036  0.0651
 1071TIP3    H124628   3.600   0.488   2.426  1.0511 -1.0649  0.7961
 1071TIP3    H224629   3.708   0.595   2.425  1.7870 -1.7745  1.9719
 1072TIP3   OH224630   1.196   0.731   2.546  0.1819  0.2434 -0.0622
 1072TIP3    H124631   1.124   0.669   2.540  0.2391  0.2704 -1.3076
 1072TIP3    H224632   1.162   0.812   2.508 -0.0766  1.1873  2.0505
 1073TIP3   OH224633   4.697   3.135   4.539  0.0544  0.5441 -0.0891
 1073TIP3    H124634   4.672   3.043   4.549 -1.2934  0.8948 -0.0739
 1073TIP3    H224635   4.614   3.183   4.543  0.6112  1.6665 -1.3286
 1074TIP3   OH224636   2.111   1.546   0.510 -0.4683 -0.1437 -0.1500
 1074TIP3    H124637   2.016   1.551   0.502 -0.3202  0.3416 -2.0823
 1074TIP3    H224638   2.142   1.526   0.422  1.2755  0.3578  0.3044
 1075TIP3   OH224639   3.832   4.323  12.526  0.2985 -0.1658 -0.0783
 1075TIP3    H124640   3.912   4.350  12.571  1.5302 -2.4070 -0.7549
 1075TIP3    H224641   3.859   4.246  12.475 -1.8802  0.1203 -1.7703
 1076TIP3   OH224642   0.822   5.673   0.426 -0.4653  0.1721  0.0913
 1076TIP3    H124643   0.899   5.617   0.420 -1.1924 -1.1006  1.8886
 1076TIP3    H224644   0.848   5.743   0.487 -0.2519  0.6074 -0.4919
 1077TIP3   OH224645   0.736   3.779   4.710  0.2045  0.4011 -0.2585
 1077TIP3    H124646   0.716   3.817   4.796 -0.5193 -1.1322  0.2758
 1077TIP3    H224647   0.828   3.801   4.695  0.0857  1.4714  0.4769
 1078TIP3   OH224648   3.967   2.782   0.807  0.1962 -0.2924 -0.2494
 1078TIP3    H124649   4.034   2.847   0.826 -0.3192  0.5055 -1.1377
 1078TIP3    H224650   4.016   2.705   0.777  0.7718 -0.1867  0.3861
 1079TIP3   OH224651   5.519   4.861   3.456 -0.0704 -0.2961  0.4265
 1079TIP3    H124652   5.516   4.952   3.483  0.7332 -0.3357  0.7119
 1079TIP3    H224653   5.499   4.862   3.363 -1.7292 -0.0195  0.7682
 1080TIP3   OH224654   2.489   0.302   3.326  0.2620  0.0494 -0.5872
 1080TIP3    H124655   2.484   0.319   3.420  3.5345 -3.9087  0.6140
 1080TIP3    H224656   2.405   0.261   3.304  0.4483 -1.5894  1.4369
 1081TIP3   OH224657   1.883   3.264  16.171  0.0611  0.3087  0.5442
 1081TIP3    H124658   1.962   3.317  16.185 -0.2483  1.1870 -0.8493
 1081TIP3    H224659   1.811   3.324  16.189 -0.2881  0.2020 -0.4252
 1082TIP3   OH224660   1.258   3.230   0.454  0.4582 -0.2649  0.2398
 1082TIP3    H124661   1.334   3.176   0.434  0.6037 -0.3185  0.9132
 1082TIP3    H224662   1.294   3.314   0.482  0.2262  0.3489 -1.2017
 1083TIP3   OH224663   0.143   0.960  15.319 -1.0738 -0.1854  0.1080
 1083TIP3    H124664   0.125   0.866  15.311  0.9107 -0.5713 -0.3710
 1083TIP3    H224665   0.141   0.993  15.229 -0.8291  0.0339  0.1807
 1084TIP3   OH224666   2.384   0.835   0.157  0.1296  0.1056 -0.4444
 1084TIP3    H124667   2.316   0.812   0.220  0.8126  0.9741  0.6525
 1084TIP3    H224668   2.403   0.928   0.175  1.3397 -0.0232 -0.9497
 1085TIP3   OH224669   1.578   2.499   0.575  0.0539 -0.2232 -0.3726
 1085TIP3    H124670   1.533   2.570   0.621  1.4481  0.4868 -0.0654
 1085TIP3    H224671   1.611   2.539   0.495  0.0243 -0.7777 -0.6718
 1086TIP3   OH224672   1.615   2.874   1.359  0.6520  0.2733  0.2684
 1086TIP3    H124673   1.696   2.828   1.337 -0.5755 -1.2219 -1.3470
 1086TIP3    H224674   1.561   2.809   1.403  0.7455  1.6101  2.4913
 1087TIP3   OH224675   6.157   2.267  17.067 -0.1822 -0.7618  0.0889
 1087TIP3    H124676   6.067   2.262  17.099 -0.9016 -1.6416 -1.8633
 1087TIP3    H224677   6.187   2.354  17.093 -1.4794 -0.5715  1.0536
 1088TIP3   OH224678   6.650   5.356   1.723 -0.7513 -0.1549 -0.3864
 1088TIP3    H124679   6.651   5.416   1.798 -2.5574  0.5314 -0.8458
 1088TIP3    H224680   6.567   5.309   1.732 -0.5225 -0.7856 -1.4101
 1089TIP3   OH224681   0.475   3.907   1.138  0.0332  0.7016  0.3282
 1089TIP3    H124682   0.425   3.974   1.185  1.1809  0.9135  1.3161
 1089TIP3    H224683   0.544   3.881   1.200  0.4812 -0.3513 -0.5785
 1090TIP3   OH224684   0.240   3.331  15.810 -0.0849  0.2507  0.1366
 1090TIP3    H124685   0.166   3.331  15.871 -1.5118  3.7897 -1.3415
 1090TIP3    H224686   0.213   3.271  15.740  0.7163 -2.2822  1.8435
 1091TIP3   OH224687   2.769   6.184  15.166  0.0710 -0.1814 -0.3425
 1091TIP3    H124688   2.710   6.224  15.230  2.6893  0.1086  2.1001
 1091TIP3    H224689   2.821   6.257  15.134  0.0066 -0.6159 -1.4759
 1092TIP3   OH224690   3.930   6.656   3.435  0.1443  0.0195 -0.2456
 1092TIP3    H124691   3.895   6.627   3.351  0.6014  0.5792 -0.6371
 1092TIP3    H224692   4.003   6.714   3.412  1.0056 -0.7202  0.5433
 1093TIP3   OH224693   0.510   6.741  14.932 -0.0514 -0.1566  0.0801
 1093TIP3    H124694   0.508   6.694  14.849 -3.1014  0.6042 -0.3931
 1093TIP3    H224695   0.474   6.827  14.913  3.8522  2.0089  1.2657
 1094TIP3   OH224696   6.513   3.069  11.984  0.4303 -0.0389  0.7703
 1094TIP3    H124697   6.474   3.138  11.929  0.2342 -0.5421  0.2609
 1094TIP3    H224698   6.599   3.054  11.946  0.3193 -0.3439  0.6321
 1095TIP3   OH224699   6.429   3.586   4.735  0.2681  0.1688  0.1059
 1095TIP3    H124700   6.505   3.529   4.722 -0.7294 -0.9362 -1.0623
 1095TIP3    H224701   6.424   3.637   4.654 -0.2558  0.2200  0.1712
 1096TIP3   OH224702   1.715   6.459  13.105  0.3171 -0.3093 -0.2609
 1096TIP3    H124703   1.646   6.417  13.155  0.4100 -0.2812 -0.1073
 1096TIP3    H224704   1.671   6.492  13.027  0.6069 -2.4942 -1.4186
 1097TIP3   OH224705   0.709   5.147   1.292  0.1609 -0.2250 -0.1127
 1097TIP3    H124706   0.622   5.110   1.281  0.3162 -1.1937  1.5133
 1097TIP3    H224707   0.698   5.241   1.282 -1.1699 -0.2903  0.5848
 1098TIP3   OH224708   1.227   5.610   2.268 -0.3249 -0.1127  0.3433
 1098TIP3    H124709   1.169   5.540   2.239  0.0415  0.3137 -1.5607
 1098TIP3    H224710   1.309   5.594   2.220  0.3933  0.5386  1.3196
 1099TIP3   OH224711   6.566   1.919   4.175  0.3701 -0.0246  0.4366
 1099TIP3    H124712   6.595   1.973   4.249 -1.2622  0.8501  0.4863
 1099TIP3    H224713   6.644   1.871   4.149  0.6973 -1.5635  3.6981
 1100TIP3   OH224714   1.875   0.515  13.908 -0.1364  0.2607  0.1759
 1100TIP3    H124715   1.836   0.590  13.952 -1.0131  1.3633 -2.3233
 1100TIP3    H224716   1.857   0.529  13.815  1.4355 -2.0328 -0.5682
 1101TIP3   OH224717   0.110   6.703   3.235  0.3636  0.2972  1.1048
 1101TIP3    H124718   0.076   6.645   3.166 -1.6954  0.3859  1.9659
 1101TIP3    H224719   0.182   6.750   3.193  0.1435 -0.7337 -0.5293
 1102TIP3   OH224720   6.601   5.167   2.615 -0.5610 -0.1389  0.0521
 1102TIP3    H124721   6.590   5.164   2.710  0.5513 -2.3429  0.1595
 1102TIP3    H224722   6.679   5.222   2.602 -0.3222 -0.3744  0.4603
 1103TIP3   OH224723   4.047   0.932   0.625 -0.1866  0.1098 -0.2111
 1103TIP3    H124724   4.125   0.948   0.572  0.0469  4.6782  1.0449
 1103TIP3    H224725   3.974   0.961   0.570 -0.9300 -2.5715 -0.7617
 1104TIP3   OH224726   2.704   0.366   5.560  0.0186  0.8098 -0.5727
 1104TIP3    H124727   2.798   0.356   5.545  0.0490  0.5093 -0.1851
 1104TIP3    H224728   2.663   0.309   5.495  0.1721 -1.3550  1.1006
 1105TIP3   OH224729   1.877   0.280  17.049  0.2072 -0.4301 -0.6920
 1105TIP3    H124730   1.848   0.368  17.025 -0.7603 -0.7816 -0.8756
 1105TIP3    H224731   1.932   0.292  17.126 -2.1699  0.1100  1.0366
 1106TIP3   OH224732   5.361   1.677   2.557  0.1626  0.3339  0.0357
 1106TIP3    H124733   5.280   1.700   2.602  0.0131  1.0789 -0.5986
 1106TIP3    H224734   5.336   1.606   2.498 -0.1093  0.8082 -0.4213
 1107TIP3   OH224735   0.033   3.266  13.759 -0.3363  0.7323 -0.0871
 1107TIP3    H124736   0.047   3.348  13.807  0.5437 -0.3681  1.6222
 1107TIP3    H224737   0.096   3.269  13.687  0.8149  0.8785  0.8949
 1108TIP3   OH224738   6.460   1.367   4.680  0.0011  0.3244 -0.0322
 1108TIP3    H124739   6.520   1.348   4.752  0.6950 -1.8372 -1.1044
 1108TIP3    H224740   6.389   1.303   4.691 -0.7373  1.0710 -0.3433
 1109TIP3   OH224741   6.464   3.442   2.391 -0.2698  0.5126  0.6349
 1109TIP3    H124742   6.525   3.456   2.319 -1.2235  2.7822  0.1884
 1109TIP3    H224743   6.515   3.391   2.455  1.5694  0.9861 -0.3702
 1110TIP3   OH224744   4.809   5.676   3.418 -0.3494 -0.5204  0.1564
 1110TIP3    H124745   4.843   5.764   3.403 -3.0542  0.7636  0.8176
 1110TIP3    H224746   4.862   5.642   3.490 -0.0558  1.1005  0.7611
 1111TIP3   OH224747   0.513   5.177   2.467  0.3301  0.3502  0.2003
 1111TIP3    H124748   0.545   5.267   2.468 -1.1782  0.9424  2.5138
 1111TIP3    H224749   0.441   5.178   2.403  0.4444  0.7268  0.0724
 1112TIP3   OH224750   4.687   5.678   1.208 -0.5352 -0.4973  0.1733
 1112TIP3    H124751   4.643   5.702   1.127 -1.9105 -0.2984  0.9587
 1112TIP3    H224752   4.631   5.712   1.277  0.4740 -0.9002  1.2175
 1113TIP3   OH224753   0.342   4.861  10.460  0.2207  0.3382 -0.3745
 1113TIP3    H124754   0.269   4.870  10.521 -1.1325 -2.1492 -1.4652
 1113TIP3    H224755   0.314   4.910  10.382 -0.8891 -1.5330 -1.2150
 1114TIP3   OH224756   5.837   5.898  15.708 -0.1579  0.1627  0.1595
 1114TIP3    H124757   5.862   5.819  15.756  0.4559 -0.4889 -1.1731
 1114TIP3    H224758   5.874   5.970  15.760  0.6594 -0.5233  0.5581
 1115TIP3   OH224759   0.874   0.820   5.924 -0.0186  0.1794 -0.3781
 1115TIP3    H124760   0.964   0.790   5.933  1.2094  3.2861 -1.2360
 1115TIP3    H224761   0.846   0.787   5.838  0.2520 -0.8350 -0.0854
 1116TIP3   OH224762   6.531   4.798   1.362  0.8581  0.1928 -0.5761
 1116TIP3    H124763   6.513   4.834   1.448  3.6108  0.7628 -0.1484
 1116TIP3    H224764   6.467   4.839   1.304 -0.1327  0.8760  0.9587
 1117TIP3   OH224765   3.833   6.270   5.128  0.4137  0.0494  0.3657
 1117TIP3    H124766   3.858   6.248   5.038  3.8900 -1.4450  1.5248
 1117TIP3    H224767   3.769   6.203   5.152 -0.4436  0.3791 -0.8812
 1118TIP3   OH224768   2.757   3.413  11.809  0.0749 -0.1428 -0.3595
 1118TIP3    H124769   2.722   3.422  11.898 -0.3379 -0.3638 -0.4988
 1118TIP3    H224770   2.682   3.389  11.755 -0.3646  3.1547 -1.3965
 1119TIP3   OH224771   6.699   4.972   3.481 -0.6888 -0.1158  0.1319
 1119TIP3    H124772   6.666   4.886   3.503  0.2441 -1.0003 -1.6660
 1119TIP3    H224773   6.630   5.012   3.429 -0.8545 -0.0437  0.4075
 1120TIP3   OH224774   5.738   4.242  15.038 -0.3206 -0.3606 -0.3733
 1120TIP3    H124775   5.779   4.222  14.954  0.6508 -0.2454  0.0686
 1120TIP3    H224776   5.692   4.161  15.061  1.5860 -1.3113  0.2328
 1121TIP3   OH224777   1.555   1.423  12.518 -0.6938  0.9142 -0.0439
 1121TIP3    H124778   1.515   1.338  12.500 -0.6632  0.8530  0.1686
 1121TIP3    H224779   1.604   1.410  12.600 -0.2339  0.9860 -0.3027
 1122TIP3   OH224780   0.014   4.182   4.742  0.4869  0.7005 -0.2604
 1122TIP3    H124781   0.021   4.112   4.807 -2.5638  0.9734  0.5340
 1122TIP3    H224782   0.058   4.147   4.665 -0.2664 -1.8254  0.3537
 1123TIP3   OH224783   4.157   2.870   5.091 -0.4640  0.7670  0.3382
 1123TIP3    H124784   4.245   2.875   5.128 -0.8294  0.4409  1.2881
 1123TIP3    H224785   4.171   2.853   4.998  0.4655  0.2608  0.5593
 1124TIP3   OH224786   0.807   3.527  10.637 -0.0444  0.2144  0.5296
 1124TIP3    H124787   0.808   3.602  10.697  2.3263 -0.0689  0.9487
 1124TIP3    H224788   0.850   3.560  10.558 -0.4540 -0.2628  0.1026
 1125TIP3   OH224789   3.000   0.093   2.609  0.0133  0.3804 -0.2860
 1125TIP3    H124790   3.093   0.081   2.624  0.1860 -0.6932 -2.0282
 1125TIP3    H224791   2.969   0.138   2.688  1.7834 -0.2138  0.8034
 1126TIP3   OH224792   0.443   4.260  14.731  0.1885  0.1212  0.1143
 1126TIP3    H124793   0.478   4.316  14.662 -1.4746  1.0744  0.0045
 1126TIP3    H224794   0.385   4.199  14.685  0.5893 -0.5254  0.4504
 1127TIP3   OH224795   4.601   3.765   6.738 -0.6654 -0.7686  0.2925
 1127TIP3    H124796   4.587   3.771   6.832  0.2674 -1.4506  0.4912
 1127TIP3    H224797   4.545   3.833   6.701 -0.0082  0.4616  1.4470
 1128TIP3   OH224798   1.684   2.702   0.959 -0.2773 -0.2273  0.2992
 1128TIP3    H124799   1.675   2.649   1.039  0.2663 -1.8406 -0.6565
 1128TIP3    H224800   1.777   2.722   0.954 -0.4461  0.6719  0.5301
 1129TIP3   OH224801   2.851   5.666   6.221 -0.1562 -0.0360  0.1391
 1129TIP3    H124802   2.894   5.589   6.184 -1.6816 -0.8117 -0.1082
 1129TIP3    H224803   2.921   5.716   6.262  1.0647 -0.9020 -0.8139
 1130TIP3   OH224804   3.057   0.401   0.579  0.1809  0.5556  0.5091
 1130TIP3    H124805   3.101   0.455   0.513 -1.1113  1.8598  0.6567
 1130TIP3    H224806   3.100   0.423   0.661  1.6383 -0.8988  0.1800
 1131TIP3   OH224807   1.121   5.039   4.931  0.2948 -0.3451 -0.1082
 1131TIP3    H124808   1.091   4.952   4.905  0.3918 -0.0615 -1.2182
 1131TIP3    H224809   1.180   5.022   5.004 -0.2559 -1.1472  0.1724
 1132TIP3   OH224810   0.841   5.878  10.730 -0.4778  0.4907  0.3345
 1132TIP3    H124811   0.791   5.924  10.797  1.0050  1.5778  0.7559
 1132TIP3    H224812   0.932   5.882  10.761  0.0345 -0.3853 -0.9644
 1133TIP3   OH224813   3.264   1.656  12.134  0.3963 -0.3343  0.2967
 1133TIP3    H124814   3.298   1.576  12.093  2.0985  1.3357 -1.7653
 1133TIP3    H224815   3.170   1.656  12.113  0.3440 -1.7839  0.4149
 1134TIP3   OH224816   5.011   1.848  14.658  0.2383 -0.1439 -0.3017
 1134TIP3    H124817   5.050   1.805  14.582 -2.2682  1.8708 -2.9315
 1134TIP3    H224818   4.963   1.778  14.703  0.1407 -0.9968 -1.6890
 1135TIP3   OH224819   3.975   3.734  11.879  0.1378  0.0637  0.5948
 1135TIP3    H124820   4.032   3.765  11.949 -0.3328  1.7957  0.2562
 1135TIP3    H224821   3.925   3.663  11.918  0.5608  0.3703  1.7241
 1136TIP3   OH224822   5.837   5.293   4.804 -0.5247  0.0196  0.2895
 1136TIP3    H124823   5.884   5.233   4.863 -1.0588 -1.4068 -0.7006
 1136TIP3    H224824   5.877   5.279   4.719 -0.7978  0.9514 -0.0005
 1137TIP3   OH224825   6.624   3.567  13.999 -0.3871  1.0638  0.1964
 1137TIP3    H124826   6.717   3.567  13.977 -0.4516  0.2583 -0.1008
 1137TIP3    H224827   6.621   3.540  14.090 -0.4257 -1.0202 -0.3618
 1138TIP3   OH224828   1.249   3.808  10.701 -0.1001  0.2847  0.0228
 1138TIP3    H124829   1.301   3.731  10.725 -1.1063 -0.0456  1.2473
 1138TIP3    H224830   1.271   3.824  10.609  1.1493 -0.6379  0.1394
 1139TIP3   OH224831   1.443   3.211   2.452 -0.0566 -0.3449  0.1775
 1139TIP3    H124832   1.479   3.249   2.532  0.4047 -0.8783  0.2338
 1139TIP3    H224833   1.407   3.126   2.480 -0.5323 -0.2211 -0.0505
 1140TIP3   OH224834   1.378   5.358  14.354  0.3607 -0.5419  0.1224
 1140TIP3    H124835   1.403   5.266  14.343  1.0644 -0.5116  1.3551
 1140TIP3    H224836   1.420   5.385  14.435 -0.5540  0.6294  0.2335
 1141TIP3   OH224837   3.374   5.509   1.880 -0.6738  0.6432 -0.0873
 1141TIP3    H124838   3.450   5.523   1.823 -0.9141  1.8251 -0.1427
 1141TIP3    H224839   3.299   5.517   1.821 -0.8528 -2.3928 -0.4189
 1142TIP3   OH224840   4.396   5.680   5.200 -0.1537 -0.1599 -0.0819
 1142TIP3    H124841   4.476   5.628   5.190 -1.6441 -2.3261 -1.8581
 1142TIP3    H224842   4.403   5.748   5.133  0.6799  0.3939  0.5503
 1143TIP3   OH224843   1.022   1.367  11.489 -0.1806  0.3008 -0.2923
 1143TIP3    H124844   1.024   1.272  11.482  1.9232  0.2288  0.5406
 1143TIP3    H224845   0.999   1.397  11.401 -3.1387 -0.9418 -0.0777
 1144TIP3   OH224846   6.465   3.725   3.803  0.0679  0.3241  0.0842
 1144TIP3    H124847   6.558   3.719   3.784  0.5852 -0.3664  2.5208
 1144TIP3    H224848   6.441   3.638   3.835 -1.6117  0.2807 -1.1634
 1145TIP3   OH224849   5.197   3.354   6.815 -0.1989  0.9767  0.6506
 1145TIP3    H124850   5.223   3.265   6.841  1.5719  1.8014  1.9110
 1145TIP3    H224851   5.102   3.350   6.807 -0.0643 -1.4115 -0.8466
 1146TIP3   OH224852   1.384   1.507  14.526 -0.5196 -0.6217 -0.0790
 1146TIP3    H124853   1.303   1.535  14.569 -0.6468 -0.3174 -0.5127
 1146TIP3    H224854   1.360   1.428  14.479 -0.0977 -1.6562  1.3618
 1147TIP3   OH224855   1.383   2.075  14.588  0.0854 -0.0174  0.4570
 1147TIP3    H124856   1.478   2.065  14.579  0.2434  0.0314  1.8380
 1147TIP3    H224857   1.353   1.992  14.625 -0.6798 -0.6854 -1.5680
 1148TIP3   OH224858   6.479   1.225  14.337  0.1273 -0.1347 -0.0339
 1148TIP3    H124859   6.489   1.185  14.423  0.7641 -0.6532 -0.3383
 1148TIP3    H224860   6.559   1.202  14.290  0.1735  0.8723 -0.4813
 1149TIP3   OH224861   4.964   5.799  11.688 -0.3605  0.9313 -0.0545
 1149TIP3    H124862   5.037   5.749  11.724 -1.0748 -0.3185 -0.2861
 1149TIP3    H224863   5.006   5.871  11.641  0.6408  1.6235  1.7777
 1150TIP3   OH224864   3.241   0.928  16.492  0.1903 -0.2443 -0.6397
 1150TIP3    H124865   3.217   0.975  16.413  0.2748  0.5657 -0.1952
 1150TIP3    H224866   3.286   0.993  16.546 -1.3185 -0.2977  0.7787
 1151TIP3   OH224867   3.009   6.645   6.704 -0.2358  0.3024  0.1775
 1151TIP3    H124868   2.944   6.674   6.641  1.5287  1.1197 -1.3544
 1151TIP3    H224869   3.077   6.712   6.701  0.3142 -0.0883  2.3409
 1152TIP3   OH224870   4.363   4.059   1.381  0.8678  0.0324 -0.5009
 1152TIP3    H124871   4.391   3.969   1.362  1.4022 -0.0858  0.7189
 1152TIP3    H224872   4.425   4.114   1.332  0.0805 -0.2434 -1.8503
 1153TIP3   OH224873   3.280   5.723  13.138 -0.3559  0.6343  0.0988
 1153TIP3    H124874   3.220   5.660  13.179 -1.8870  2.5452  0.9733
 1153TIP3    H224875   3.290   5.792  13.203  2.6842  0.5550 -0.1312
 1154TIP3   OH224876   6.208   6.041   2.023  0.2533  0.1111  0.1112
 1154TIP3    H124877   6.187   6.129   1.993 -0.3822 -0.2298 -0.4941
 1154TIP3    H224878   6.178   6.039   2.114 -0.8057  0.1832 -0.2149
 1155TIP3   OH224879   4.027   3.094   4.770  0.2683  0.0863  0.6014
 1155TIP3    H124880   4.108   3.090   4.719 -0.1717  2.3338 -0.3933
 1155TIP3    H224881   4.056   3.112   4.860  0.9034  1.4598  0.1587
 1156TIP3   OH224882   2.710   0.949  12.090  0.0457 -0.1076 -0.0983
 1156TIP3    H124883   2.742   1.038  12.109  0.7241 -0.8959  3.0188
 1156TIP3    H224884   2.784   0.892  12.111 -1.6204 -1.6395  2.1118
 1157TIP3   OH224885   3.429   2.028   5.176  0.0360 -0.1932  0.3233
 1157TIP3    H124886   3.455   1.993   5.091  1.4033 -0.0181  0.6518
 1157TIP3    H224887   3.335   2.044   5.167  0.1000 -0.4405 -1.0545
 1158TIP3   OH224888   1.182   3.136  13.858  0.2742  0.1450  0.3517
 1158TIP3    H124889   1.129   3.083  13.798  0.8883  0.4939 -0.5341
 1158TIP3    H224890   1.272   3.112  13.837  0.5287  0.9660  0.4759
 1159TIP3   OH224891   3.220   1.510  14.483  0.1437  0.1848 -0.3633
 1159TIP3    H124892   3.175   1.594  14.491 -0.5790 -0.3172  1.3906
 1159TIP3    H224893   3.313   1.532  14.481 -0.0258  1.0301  0.3436
 1160TIP3   OH224894   1.857   6.729   1.768 -0.2406  0.5275  0.4997
 1160TIP3    H124895   1.775   6.756   1.809  0.4531  0.1131  2.2117
 1160TIP3    H224896   1.871   6.639   1.796  2.2089  1.4541  2.6846
 1161TIP3   OH224897   1.291   5.042  13.210 -0.1490  0.3607 -0.2052
 1161TIP3    H124898   1.353   5.071  13.277  1.2324 -1.1691 -0.7616
 1161TIP3    H224899   1.218   5.004  13.260  1.5447 -2.1522  0.5174
 1162TIP3   OH224900   5.040   6.688  13.815 -0.6475 -0.0518  0.2964
 1162TIP3    H124901   5.089   6.762  13.851  1.1114 -0.6963 -0.6298
 1162TIP3    H224902   4.974   6.669  13.881 -1.2481  2.3997  0.5104
 1163TIP3   OH224903   0.472   4.176   3.975  0.3006 -0.1731 -0.4113
 1163TIP3    H124904   0.525   4.247   3.940  1.7075 -1.3272 -0.7416
 1163TIP3    H224905   0.381   4.204   3.961  0.8157  0.8478 -1.9670
 1164TIP3   OH224906   6.133   0.003   1.415  0.1039 -0.2276  0.6833
 1164TIP3    H124907   6.168  -0.049   1.343 -1.2697  0.0778 -0.2258
 1164TIP3    H224908   6.206   0.060   1.441  0.2560  0.6096 -1.3671
 1165TIP3   OH224909   4.017   1.216  12.392  0.2430  0.2222  0.0899
 1165TIP3    H124910   4.069   1.193  12.469 -1.1128  2.3862  1.7635
 1165TIP3    H224911   3.927   1.222  12.424 -0.5457  0.1354 -1.9290
 1166TIP3   OH224912   2.474   2.070  11.845  0.1676  0.4674  0.4990
 1166TIP3    H124913   2.417   2.135  11.805 -0.5105  0.2609  1.1033
 1166TIP3    H224914   2.495   2.010  11.773  0.6039  1.2055 -0.0024
 1167TIP3   OH224915   5.072   2.957   3.059 -0.5630 -0.0368  0.4351
 1167TIP3    H124916   5.123   2.962   3.140 -0.1092 -1.6870  0.2804
 1167TIP3    H224917   5.118   3.016   2.999 -0.6426  0.8499  1.2162
 1168TIP3   OH224918   4.324   1.828  17.225 -0.2972  0.3136  0.5196
 1168TIP3    H124919   4.259   1.825  17.295 -1.1600 -1.6092 -0.2891
 1168TIP3    H224920   4.384   1.756  17.243  0.3456  0.7138  0.0679
 1169TIP3   OH224921   2.207   4.701  10.746 -0.1089 -0.2333  0.2467
 1169TIP3    H124922   2.177   4.763  10.680  1.3574 -0.2895 -0.5352
 1169TIP3    H224923   2.296   4.677  10.717  0.8395  0.1993  2.5499
 1170TIP3   OH224924   4.053   5.553   0.691  0.9478 -0.4409 -0.2070
 1170TIP3    H124925   4.146   5.564   0.670  1.9352 -0.0321  3.5823
 1170TIP3    H224926   4.051   5.477   0.750 -1.1457 -0.3926 -0.1443
 1171TIP3   OH224927   1.951   0.109  14.612 -0.0524  0.7172 -0.4615
 1171TIP3    H124928   2.032   0.144  14.575  0.8274  0.4554  1.0887
 1171TIP3    H224929   1.981   0.046  14.678 -1.5536 -0.7896 -1.1374
 1172TIP3   OH224930   5.840   5.541   5.082  0.0915  0.1960 -0.1534
 1172TIP3    H124931   5.747   5.541   5.060  0.0913 -2.0121 -0.3756
 1172TIP3    H224932   5.846   5.493   5.165  1.0584  0.1029 -0.2581
 1173TIP3   OH224933   3.746   3.212  13.316 -0.7448 -0.1747  0.1509
 1173TIP3    H124934   3.815   3.267  13.354  0.2784 -0.5650 -1.0810
 1173TIP3    H224935   3.790   3.132  13.290 -1.4372 -0.0643 -1.5316
 1174TIP3   OH224936   4.776   1.291  15.575 -0.4530  0.0018  0.0275
 1174TIP3    H124937   4.787   1.376  15.532 -0.4648 -0.3480 -0.6634
 1174TIP3    H224938   4.725   1.239  15.514  0.5233 -0.8902 -0.0557
 1175TIP3   OH224939   4.782   0.816   5.370 -0.3846 -0.2285 -0.1979
 1175TIP3    H124940   4.740   0.744   5.417 -0.4867 -0.4191 -0.5821
 1175TIP3    H224941   4.714   0.883   5.363 -0.4938 -0.3650 -0.4397
 1176TIP3   OH224942   0.614   3.107  11.790 -0.1891  0.2484  0.9926
 1176TIP3    H124943   0.660   3.138  11.712 -1.7858 -0.8525 -0.4724
 1176TIP3    H224944   0.631   3.013  11.791 -0.7545  0.1490  1.5744
 1177TIP3   OH224945   0.124   2.611   2.188 -0.5253 -0.7666 -0.1136
 1177TIP3    H124946   0.047   2.654   2.226 -0.3460  0.4217 -1.0220
 1177TIP3    H224947   0.090   2.564   2.112 -0.4670 -0.8507 -0.0875
 1178TIP3   OH224948   1.788   6.302  12.372 -0.0888  0.3004 -0.0311
 1178TIP3    H124949   1.698   6.323  12.395  0.5065  1.1449  1.6918
 1178TIP3    H224950   1.839   6.329  12.448  1.4180 -1.9672 -0.1578
 1179TIP3   OH224951   6.628   6.459  14.509 -0.0650  0.2088 -0.4610
 1179TIP3    H124952   6.563   6.460  14.439 -0.3927 -0.3087 -0.1797
 1179TIP3    H224953   6.682   6.382  14.490 -0.0872  0.1288 -0.2168
 1180TIP3   OH224954   5.156   4.350   0.563  0.3445  0.5370 -0.6187
 1180TIP3    H124955   5.158   4.366   0.658 -1.7873  0.1048 -0.4471
 1180TIP3    H224956   5.245   4.322   0.542  0.2370 -2.1164  1.8032
 1181TIP3   OH224957   4.598   4.429  13.091  1.0724 -0.6112 -0.0936
 1181TIP3    H124958   4.514   4.470  13.070  0.7482 -1.1997  0.0360
 1181TIP3    H224959   4.580   4.378  13.170  2.5236  2.4803  2.4860
 1182TIP3   OH224960   4.215   6.601   0.762  0.1074 -0.0467 -0.7477
 1182TIP3    H124961   4.257   6.516   0.777 -0.7804 -0.2307  0.9111
 1182TIP3    H224962   4.257   6.660   0.826  0.8508  0.8563 -2.0014
 1183TIP3   OH224963   4.188   0.082   0.204  0.4190 -0.1724 -0.8457
 1183TIP3    H124964   4.169   0.164   0.159 -0.8417 -0.2646 -0.5406
 1183TIP3    H224965   4.219   0.109   0.291  2.4841 -0.0028 -1.5826
 1184TIP3   OH224966   4.199   5.960   4.788  0.4188  0.2413 -0.3655
 1184TIP3    H124967   4.188   5.896   4.858  1.3582  0.2456 -0.2009
 1184TIP3    H224968   4.128   5.941   4.726  0.5373 -0.7882 -0.1908
 1185TIP3   OH224969   2.615   4.599   0.117 -0.2193 -0.3101 -0.6439
 1185TIP3    H124970   2.692   4.607   0.174 -1.2889 -0.6853  0.9293
 1185TIP3    H224971   2.643   4.636   0.033  0.8022  2.2661  0.7191
 1186TIP3   OH224972   5.260   0.472  13.547  0.6209 -0.0161 -0.2259
 1186TIP3    H124973   5.298   0.397  13.503 -1.8490 -1.5557  0.1028
 1186TIP3    H224974   5.219   0.436  13.625 -1.5987  1.4657 -0.6237
 1187TIP3   OH224975   0.864   4.452   4.709  0.1084  0.7413  0.3506
 1187TIP3    H124976   0.929   4.397   4.666 -1.1853 -0.9024  0.3998
 1187TIP3    H224977   0.902   4.472   4.795  0.2896 -0.7470  0.6336
 1188TIP3   OH224978   5.028   4.839  16.139  0.3148 -0.6575 -0.6129
 1188TIP3    H124979   5.102   4.877  16.185 -1.8955  1.9511  1.1115
 1188TIP3    H224980   5.036   4.873  16.050  1.7112 -1.3209 -0.7731
 1189TIP3   OH224981   0.945   3.468  14.160  0.2479 -0.6664 -0.2874
 1189TIP3    H124982   0.971   3.377  14.168  0.9416 -0.4567 -0.1331
 1189TIP3    H224983   0.925   3.496  14.249 -1.5482 -1.1092 -0.4995
 1190TIP3   OH224984   3.017   4.926   5.572  0.3598 -0.3215  0.2067
 1190TIP3    H124985   3.080   4.977   5.623 -1.1442  2.2578 -0.3730
 1190TIP3    H224986   2.967   4.878   5.638  1.5693 -0.8341  0.7925
 1191TIP3   OH224987   1.966   3.150   2.651  0.0624 -0.0589  0.0764
 1191TIP3    H124988   1.997   3.179   2.737  1.8671 -0.5458 -0.3797
 1191TIP3    H224989   1.982   3.056   2.650 -1.2476 -0.2984 -0.2904
 1192TIP3   OH224990   1.541   0.441   6.539 -0.2644 -0.1614  0.0659
 1192TIP3    H124991   1.523   0.515   6.598 -0.6239 -0.8134  0.7953
 1192TIP3    H224992   1.477   0.451   6.469 -0.6269 -0.0375  0.4090
 1193TIP3   OH224993   2.842   2.158   2.541 -0.4403 -0.1943  0.3888
 1193TIP3    H124994   2.843   2.070   2.506  1.6371 -0.0647  0.0249
 1193TIP3    H224995   2.787   2.152   2.620 -1.2350 -1.5203 -0.2377
 1194TIP3   OH224996   2.068   0.067  11.398 -0.3382 -0.0491 -0.5336
 1194TIP3    H124997   2.025  -0.017  11.384 -1.6021  0.5861 -0.6006
 1194TIP3    H224998   2.154   0.044  11.433 -0.4858 -1.3745 -0.9740
 1195TIP3   OH224999   4.871   0.249  14.716  0.0540 -0.4967  0.6723
 1195TIP3    H125000   4.885   0.278  14.806 -0.3330 -3.0207  1.6537
 1195TIP3    H225001   4.792   0.295  14.688 -0.2326 -0.1976  1.9109
 1196TIP3   OH225002   2.959   3.513   0.926  0.6120 -0.4747 -0.3621
 1196TIP3    H125003   3.041   3.510   0.973  0.8185  0.0664 -0.6761
 1196TIP3    H225004   2.900   3.563   0.983  1.1146  0.9474 -1.0261
 1197TIP3   OH225005   5.144   0.626  12.832 -0.0126 -0.0808  0.0148
 1197TIP3    H125006   5.096   0.618  12.750  0.6920 -1.7986 -0.2726
 1197TIP3    H225007   5.226   0.579  12.817  0.6808  0.6325  1.3098
 1198TIP3   OH225008   3.918   2.977  16.138 -0.3417 -0.0188 -0.3135
 1198TIP3    H125009   3.937   2.928  16.218 -1.0858 -1.2910 -0.8902
 1198TIP3    H225010   3.831   3.014  16.151  0.1354  1.0269  0.0370
 1199TIP3   OH225011   5.878   1.722  13.508 -0.7882 -0.3996  0.0043
 1199TIP3    H125012   5.852   1.698  13.419 -1.4290  3.1826 -0.9082
 1199TIP3    H225013   5.795   1.727  13.556 -0.5359 -1.2772  0.5503
 1200TIP3   OH225014   0.307   6.284   0.328 -0.0086  0.1483  0.5277
 1200TIP3    H125015   0.364   6.227   0.380  1.3459  0.5561 -0.4592
 1200TIP3    H225016   0.221   6.275   0.369  0.4356 -1.6125  1.1732
 1201TIP3   OH225017   1.336   1.783  14.419 -0.1982  0.3015 -0.5974
 1201TIP3    H125018   1.357   1.709  14.362 -1.9368  0.0308 -0.9328
 1201TIP3    H225019   1.359   1.753  14.507 -0.6601 -0.5686 -0.7569
 1202TIP3   OH225020   1.677   4.649   0.177 -0.4279 -0.1177 -0.1717
 1202TIP3    H125021   1.598   4.611   0.138 -1.1591  2.4139 -1.3854
 1202TIP3    H225022   1.692   4.729   0.127  2.1456  0.1835  0.9307
 1203TIP3   OH225023   1.097   6.763  14.436  0.2435 -0.2963 -0.0276
 1203TIP3    H125024   1.076   6.670  14.443 -0.3273 -0.2241 -0.7001
 1203TIP3    H225025   1.070   6.801  14.519 -1.5081 -0.3646 -0.5356
 1204TIP3   OH225026   0.860   2.760  15.552 -0.1348 -0.4020  0.1295
 1204TIP3    H125027   0.767   2.775  15.534 -0.2239  0.7004  1.3650
 1204TIP3    H225028   0.860   2.684  15.612 -0.0912 -1.5591 -1.2892
 1205TIP3   OH225029   4.904   1.919   3.754  0.3059  0.2279  0.0080
 1205TIP3    H125030   4.850   1.857   3.706 -0.0296  0.9160 -0.5271
 1205TIP3    H225031   4.938   1.869   3.828  0.2888 -0.6663 -0.5700
 1206TIP3   OH225032   1.730   4.328  16.156 -0.3960  0.2260 -0.0510
 1206TIP3    H125033   1.737   4.423  16.153 -2.1948  0.4151  0.5769
 1206TIP3    H225034   1.647   4.311  16.202 -0.1985 -1.6372 -0.2936
 1207TIP3   OH225035   1.176   6.424   0.405 -0.0441  0.3922  0.1971
 1207TIP3    H125036   1.090   6.417   0.445 -0.8007 -0.3958 -1.4501
 1207TIP3    H225037   1.160   6.412   0.311  1.7960  0.7193 -0.2062
 1208TIP3   OH225038   3.381   2.005   4.876  0.0884  0.1246 -0.0694
 1208TIP3    H125039   3.462   1.988   4.827 -0.7832  0.0938 -1.5668
 1208TIP3    H225040   3.343   1.918   4.889  0.0639  0.1786  0.2093
 1209TIP3   OH225041   4.750   1.498  13.725 -0.3883 -0.5412  0.0880
 1209TIP3    H125042   4.839   1.472  13.698 -0.1985  0.9736 -0.8395
 1209TIP3    H225043   4.693   1.456  13.662 -0.2726 -0.7574  0.1248
 1210TIP3   OH225044   1.829   2.492  16.315  0.3505 -0.3654 -0.3982
 1210TIP3    H125045   1.904   2.483  16.374 -0.0356  2.1349  0.5741
 1210TIP3    H225046   1.867   2.509  16.229  0.8939 -1.0732 -0.3064
 1211TIP3   OH225047   4.756   3.765  11.545 -0.1134 -0.4751  0.0707
 1211TIP3    H125048   4.835   3.734  11.501 -0.6550  0.0411 -1.3359
 1211TIP3    H225049   4.725   3.837  11.490 -0.6611  0.4220  1.4966
 1212TIP3   OH225050   4.280   3.556   0.704  0.2734  0.0362 -0.3289
 1212TIP3    H125051   4.313   3.636   0.747 -0.2129  0.1198 -0.1058
 1212TIP3    H225052   4.190   3.576   0.681  0.1619 -0.4346 -0.3163
 1213TIP3   OH225053   5.775   5.354   4.239  0.5059  0.5379 -0.2097
 1213TIP3    H125054   5.870   5.342   4.234  0.2738 -2.7511  0.8946
 1213TIP3    H225055   5.740   5.300   4.169 -0.6107 -0.5622  1.1485
 1214TIP3   OH225056   2.530   5.730   0.488 -0.4877 -0.5673 -0.3586
 1214TIP3    H125057   2.562   5.640   0.481 -0.1651 -0.5138  0.3318
 1214TIP3    H225058   2.438   5.721   0.514 -0.3210 -0.6929  0.1917
 1215TIP3   OH225059   5.432   6.120   3.799 -0.3077 -0.7295 -0.4374
 1215TIP3    H125060   5.471   6.044   3.758  0.1306  0.5676 -2.5578
 1215TIP3    H225061   5.354   6.139   3.747 -1.1608 -0.4753  0.8663
 1216TIP3   OH225062   2.927   4.807   2.283  0.2559 -0.2352  0.4060
 1216TIP3    H125063   2.993   4.835   2.346  1.1567  2.9882 -1.7564
 1216TIP3    H225064   2.849   4.857   2.305  0.0130 -0.4560  0.0668
 1217TIP3   OH225065   6.284   5.869   5.335  0.1014  0.2042  0.2963
 1217TIP3    H125066   6.270   5.785   5.378 -1.7616  0.0836 -0.4352
 1217TIP3    H225067   6.370   5.898   5.365  0.6560 -1.8162  0.7843
 1218TIP3   OH225068   0.721   2.571   2.074  0.1653 -0.2675 -0.0703
 1218TIP3    H125069   0.635   2.598   2.042  0.5518 -0.8376 -1.7031
 1218TIP3    H225070   0.769   2.652   2.085 -0.3448  0.0125  0.1346
 1219TIP3   OH225071   3.130   1.109  16.929 -0.2345  0.2798 -0.2601
 1219TIP3    H125072   3.131   1.062  17.013  2.2408 -1.6998 -1.2661
 1219TIP3    H225073   3.205   1.168  16.934  1.2394 -1.3475 -1.7503
 1220TIP3   OH225074   1.460   4.618   4.428 -0.2577 -0.1867  0.0034
 1220TIP3    H125075   1.551   4.637   4.406  0.3848 -1.0384  1.7299
 1220TIP3    H225076   1.465   4.542   4.486 -2.0730 -0.1918  0.2014
 1221TIP3   OH225077   1.057   6.321   1.693 -0.4512 -0.7260  0.3777
 1221TIP3    H125078   1.005   6.379   1.748 -0.5005  0.6376 -1.0732
 1221TIP3    H225079   1.016   6.235   1.704 -1.0685 -0.2943  1.6771
 1222TIP3   OH225080   4.729   6.076  12.163 -0.1607 -0.6197  0.2924
 1222TIP3    H125081   4.648   6.028  12.182  1.5715 -2.9722  2.3094
 1222TIP3    H225082   4.745   6.128  12.242 -0.1330  0.5416 -0.4572
 1223TIP3   OH225083   1.598   3.497   3.063  0.0714 -0.1635 -0.4458
 1223TIP3    H125084   1.665   3.544   3.112  0.1512 -0.1195 -0.5959
 1223TIP3    H225085   1.516   3.513   3.111 -0.3895  2.3282 -1.9169
 1224TIP3   OH225086   4.858   1.456  14.423 -0.3294  0.1413 -0.5693
 1224TIP3    H125087   4.829   1.530  14.477 -0.9562  0.1064 -0.8607
 1224TIP3    H225088   4.801   1.384  14.448 -0.1289 -0.0786 -0.7405
 1225TIP3   OH225089   3.817   0.994   2.979 -0.3038  0.1197  0.0413
 1225TIP3    H125090   3.785   1.059   2.916  0.5012 -1.4546 -2.1129
 1225TIP3    H225091   3.910   1.015   2.990  0.3040 -1.3194 -1.7022
 1226TIP3   OH225092   1.784   5.491  14.107 -0.0366 -0.3276  0.1617
 1226TIP3    H125093   1.754   5.520  14.194  0.7561  0.4967  0.1676
 1226TIP3    H225094   1.857   5.431  14.126  2.3920  2.3905  0.0619
 1227TIP3   OH225095   4.120   2.165   3.358 -1.1084  1.0524  0.0972
 1227TIP3    H125096   4.113   2.253   3.394  0.1923  0.5362  1.7471
 1227TIP3    H225097   4.056   2.114   3.408 -0.2817  0.6204  0.7316
 1228TIP3   OH225098   5.444   5.502  12.537 -0.3484 -0.1232  0.3274
 1228TIP3    H125099   5.455   5.583  12.488 -0.2960 -0.6770 -0.6009
 1228TIP3    H225100   5.458   5.433  12.473 -0.4464 -0.8719  1.0916
 1229TIP3   OH225101   5.170   2.975   5.167 -0.3074 -0.6675  0.4724
 1229TIP3    H125102   5.146   2.994   5.076  0.0633  0.1925  0.5433
 1229TIP3    H225103   5.208   2.888   5.164  0.3641 -0.3679 -0.3272
 1230TIP3   OH225104   3.285   0.762   4.517 -0.1964  0.0932 -0.7082
 1230TIP3    H125105   3.244   0.676   4.519  0.3915 -0.2077 -1.0649
 1230TIP3    H225106   3.252   0.802   4.437 -0.0906 -0.0002 -0.8000
 1231TIP3   OH225107   3.438   2.517  11.126  0.0028  0.1387 -0.1520
 1231TIP3    H125108   3.488   2.555  11.053 -2.9842  0.6088 -2.1504
 1231TIP3    H225109   3.417   2.592  11.182 -0.4491  0.3621 -0.6107
 1232TIP3   OH225110   5.090   0.314   2.963  0.3032 -0.0197  0.2073
 1232TIP3    H125111   5.061   0.309   2.872  0.3113  0.1506  0.1939
 1232TIP3    H225112   5.092   0.408   2.982  0.6275 -0.0376  0.2770
 1233TIP3   OH225113   6.027   3.088  15.665 -0.1394  0.2270  0.1364
 1233TIP3    H125114   6.062   3.028  15.731 -1.1846 -0.7255 -0.1325
 1233TIP3    H225115   6.086   3.079  15.590  1.0351  1.2862  0.8978
 1234TIP3   OH225116   1.363   0.589  16.325  0.6355 -0.4250  0.4397
 1234TIP3    H125117   1.456   0.611  16.329  0.2720  2.0362 -1.8239
 1234TIP3    H225118   1.357   0.523  16.257  0.7702 -0.9976  0.9788
 1235TIP3   OH225119   4.409   1.652   4.545  0.0094  0.9499  0.2576
 1235TIP3    H125120   4.472   1.722   4.559  2.0805 -0.6646 -0.4025
 1235TIP3    H225121   4.403   1.644   4.450 -0.0221  0.0830  0.3260
 1236TIP3   OH225122   4.435   3.672  11.466  0.4285  0.1987  0.4619
 1236TIP3    H125123   4.440   3.767  11.473 -0.2489  0.2346  0.5229
 1236TIP3    H225124   4.349   3.650  11.500  0.9217 -0.5215  1.2616
 1237TIP3   OH225125   0.757   4.438  10.613 -0.7180  0.5678  0.0841
 1237TIP3    H125126   0.744   4.365  10.553 -0.7259 -0.2423  1.0597
 1237TIP3    H225127   0.686   4.499  10.593 -1.5622 -0.3564  0.2401
 1238TIP3   OH225128   4.628   1.966   3.466  0.0358  0.5465  0.3840
 1238TIP3    H125129   4.641   1.871   3.465  0.6663  0.6144  1.2899
 1238TIP3    H225130   4.534   1.977   3.458 -0.2653 -0.2396  2.2323
 1239TIP3   OH225131   5.594   6.730   4.995 -0.3468  0.3587  0.2437
 1239TIP3    H125132   5.547   6.647   4.989  0.0284  0.0909  0.9188
 1239TIP3    H225133   5.631   6.731   5.083  2.2461 -0.1713 -0.7388
 1240TIP3   OH225134   3.720   2.219  15.531 -0.1226 -0.6510 -0.2037
 1240TIP3    H125135   3.749   2.211  15.440 -0.1750 -1.1557 -0.1783
 1240TIP3    H225136   3.706   2.313  15.543 -1.9302 -0.7236 -1.2850
 1241TIP3   OH225137   2.140   5.715  13.539 -0.0661  0.3700  0.0477
 1241TIP3    H125138   2.071   5.737  13.476 -0.6327 -0.3238  0.4025
 1241TIP3    H225139   2.132   5.780  13.608 -0.2587  0.3927  0.0043
 1242TIP3   OH225140   4.410   3.669  14.105 -0.0109 -0.0402 -0.4879
 1242TIP3    H125141   4.431   3.705  14.019  1.0924  1.8282  0.5116
 1242TIP3    H225142   4.349   3.732  14.144 -0.6906 -0.9843  0.0294
 1243TIP3   OH225143   2.161   3.794  16.676  0.5260  0.4435  0.3793
 1243TIP3    H125144   2.094   3.731  16.705  0.2701  1.3178  1.7967
 1243TIP3    H225145   2.118   3.846  16.609  1.0900 -1.5599 -1.6606
 1244TIP3   OH225146   1.431   6.382   1.256  0.8384 -0.0400  0.4001
 1244TIP3    H125147   1.452   6.291   1.276 -0.1445 -0.2451  0.5590
 1244TIP3    H225148   1.341   6.379   1.224  0.2775  1.0346  1.7538
 1245TIP3   OH225149   5.743   2.544  16.907  0.1037  0.4583 -0.7243
 1245TIP3    H125150   5.682   2.489  16.858  0.2178 -0.1874 -0.1588
 1245TIP3    H225151   5.688   2.613  16.945 -0.0109  0.8542 -1.5984
 1246TIP3   OH225152   3.337   1.859  13.737 -0.0854 -0.0589  0.3735
 1246TIP3    H125153   3.287   1.911  13.674 -0.4384 -1.2176 -0.3144
 1246TIP3    H225154   3.401   1.921  13.773  1.8905  0.0799 -3.0004
 1247TIP3   OH225155   3.210   5.259   3.716  0.4954  0.5865  0.7158
 1247TIP3    H125156   3.195   5.231   3.806 -0.4949 -2.1062 -0.1835
 1247TIP3    H225157   3.298   5.228   3.695 -0.3391 -1.4263 -0.0629
 1248TIP3   OH225158   2.619   6.563  12.623 -0.3884  0.1319 -0.6996
 1248TIP3    H125159   2.668   6.644  12.638 -0.9875  0.1786  1.3402
 1248TIP3    H225160   2.527   6.590  12.620 -0.7016 -0.5290  1.2025
 1249TIP3   OH225161   5.648   1.459   0.297 -0.7334  0.0051 -0.3488
 1249TIP3    H125162   5.649   1.471   0.392  0.7059 -1.2773 -0.1644
 1249TIP3    H225163   5.720   1.513   0.265  0.4690 -1.5376 -0.3858
 1250TIP3   OH225164   6.763   5.621  16.488  0.0200  0.4667 -0.5502
 1250TIP3    H125165   6.827   5.690  16.510 -0.8179  1.7376 -1.9331
 1250TIP3    H225166   6.682   5.669  16.471 -1.4100 -1.1358  1.3648
 1251TIP3   OH225167   1.877   1.167  11.713 -0.0528  0.0531  0.0427
 1251TIP3    H125168   1.835   1.188  11.630 -0.6053 -0.8724  0.0718
 1251TIP3    H225169   1.971   1.176  11.695 -0.1917  0.4424 -0.5101
 1252TIP3   OH225170   4.770   6.478   5.230  0.0740 -0.6311 -0.1682
 1252TIP3    H125171   4.768   6.555   5.174  0.1679 -0.8080 -0.4196
 1252TIP3    H225172   4.834   6.499   5.298 -0.1244 -0.3717 -0.0595
 1253TIP3   OH225173   5.781   0.851   6.321  0.7121 -0.5382  0.1744
 1253TIP3    H125174   5.805   0.904   6.244  0.5614 -0.3248  0.2728
 1253TIP3    H225175   5.864   0.811   6.348  1.4000  1.7254  1.6747
 1254TIP3   OH225176   2.815   5.999  16.523  0.0546  0.3046  0.2227
 1254TIP3    H125177   2.883   5.939  16.492  1.2600  0.5521  2.2421
 1254TIP3    H225178   2.798   6.056  16.448  1.6351 -0.1607 -0.5437
 1255TIP3   OH225179   4.213   5.225   4.646 -0.6285  0.0439 -0.3397
 1255TIP3    H125180   4.197   5.286   4.717 -0.4060 -0.1820 -0.0934
 1255TIP3    H225181   4.234   5.142   4.690 -1.5066 -0.3565 -0.6695
 1256TIP3   OH225182   6.296   6.323  16.976 -0.1533 -0.6105 -0.2748
 1256TIP3    H125183   6.337   6.299  16.892 -2.6683 -2.1891 -1.1505
 1256TIP3    H225184   6.316   6.417  16.986  0.5651 -0.4769 -2.4189
 1257TIP3   OH225185   6.728   3.171  11.733 -0.0966 -0.3453  0.2702
 1257TIP3    H125186   6.750   3.119  11.810  0.4430  0.2283  0.5126
 1257TIP3    H225187   6.767   3.124  11.660  0.0471 -0.4876  0.4388
 1258TIP3   OH225188   3.494   5.070   2.866  0.5637  0.2562 -0.3843
 1258TIP3    H125189   3.509   4.979   2.843  0.3733  0.2439 -0.4635
 1258TIP3    H225190   3.427   5.099   2.804 -0.9224 -0.1375  0.9806
 1259TIP3   OH225191   4.181   6.331   1.956 -0.0876  0.3583  0.0975
 1259TIP3    H125192   4.191   6.426   1.958 -1.8013  0.6108 -0.8416
 1259TIP3    H225193   4.146   6.312   1.869 -2.6897 -0.7427  1.2481
 1260TIP3   OH225194   6.201   1.646   1.991  0.4056  0.5454  0.1028
 1260TIP3    H125195   6.262   1.709   2.031  1.4410  1.1767 -2.2452
 1260TIP3    H225196   6.248   1.615   1.913 -0.5567 -2.3231  0.5746
 1261TIP3   OH225197   0.705   3.127   5.139 -0.3139 -0.1234  0.5353
 1261TIP3    H125198   0.618   3.159   5.115 -0.1720 -0.1332  0.0037
 1261TIP3    H225199   0.744   3.199   5.189  0.4863  1.0956 -1.7054
 1262TIP3   OH225200   1.106   5.001   0.710  0.0045  0.6591 -0.4115
 1262TIP3    H125201   1.172   4.963   0.769 -0.5360 -0.8835 -0.7523
 1262TIP3    H225202   1.146   4.996   0.623 -1.1399 -1.8304 -0.8617
 1263TIP3   OH225203   5.114   5.631  15.180 -0.5948 -0.5731 -0.4940
 1263TIP3    H125204   5.130   5.673  15.095 -2.9139 -0.6323 -1.0207
 1263TIP3    H225205   5.152   5.692  15.244  0.3277 -0.0520 -1.4954
 1264TIP3   OH225206   5.406   0.404   2.315  0.1037 -0.2301 -0.8345
 1264TIP3    H125207   5.427   0.367   2.229  0.9635  1.5536 -1.4472
 1264TIP3    H225208   5.491   0.424   2.354 -0.3086  0.1810 -0.1260
 1265TIP3   OH225209   2.967   6.695  14.162 -0.2899 -0.1034 -0.1403
 1265TIP3    H125210   2.918   6.671  14.084 -0.1095 -0.5624 -0.1149
 1265TIP3    H225211   3.051   6.650  14.152  0.9997  2.3333 -1.2403
 1266TIP3   OH225212   0.538   6.643  13.276  0.1763 -0.1298 -0.9430
 1266TIP3    H125213   0.610   6.595  13.316  1.0034  0.7632 -1.3309
 1266TIP3    H225214   0.515   6.709  13.341 -2.1225 -2.0340  0.3577
 1267TIP3   OH225215   0.043   6.308  14.385 -0.0136 -0.2522  0.2069
 1267TIP3    H125216   0.134   6.287  14.367 -0.2251 -0.3955 -0.7751
 1267TIP3    H225217  -0.005   6.228  14.360 -0.3006 -0.6922  1.9991
 1268TIP3   OH225218   4.172   1.560   1.817  0.1201  0.0312 -0.1746
 1268TIP3    H125219   4.180   1.581   1.724  1.8879 -0.4001 -0.1459
 1268TIP3    H225220   4.117   1.481   1.819 -0.7460  0.6012 -0.7550
 1269TIP3   OH225221   4.947   1.125  15.717  0.3598 -0.5163  0.2807
 1269TIP3    H125222   4.950   1.039  15.677  1.2310  0.0099 -0.8493
 1269TIP3    H225223   4.877   1.171  15.671 -0.3185 -0.7160  1.0993
 1270TIP3   OH225224   5.544   5.124   5.033 -0.2665  0.1408 -0.1107
 1270TIP3    H125225   5.544   5.058   5.101 -0.8300  1.2366  0.9934
 1270TIP3    H225226   5.565   5.206   5.079  2.8716  0.4500 -1.7689
 1271TIP3   OH225227   3.919   5.878  16.608  0.3350  0.3867  0.4833
 1271TIP3    H125228   3.909   5.805  16.547 -0.6286 -0.7935  1.9769
 1271TIP3    H225229   4.014   5.893  16.613  0.5467 -0.7620  0.1415
 1272TIP3   OH225230   1.641   2.875  13.244  0.8590 -0.0650  0.0599
 1272TIP3    H125231   1.631   2.873  13.149  1.5977 -1.6868 -0.0143
 1272TIP3    H225232   1.566   2.925  13.275  0.6177  0.5185 -1.3662
 1273TIP3   OH225233   6.537   6.381  13.666 -0.0322 -0.2371 -0.3182
 1273TIP3    H125234   6.445   6.392  13.687 -0.0014 -0.4687 -0.0542
 1273TIP3    H225235   6.579   6.462  13.696 -0.1086 -0.2431 -0.1941
 1274TIP3   OH225236   2.678   0.932  12.738 -0.4588 -0.3126  0.1289
 1274TIP3    H125237   2.603   0.991  12.736 -0.9948 -0.9435  0.9363
 1274TIP3    H225238   2.640   0.845  12.723  0.5251 -0.3182 -3.1083
 1275TIP3   OH225239   4.965   3.459  13.716 -0.0977 -0.0589 -0.4012
 1275TIP3    H125240   4.939   3.446  13.625 -0.3409 -0.0312 -0.3361
 1275TIP3    H225241   5.058   3.436  13.718  0.2740  1.2913 -0.9496
 1276TIP3   OH225242   2.886   4.452   0.047 -0.2581  0.1447  0.0461
 1276TIP3    H125243   2.910   4.364   0.077 -1.1531 -0.0859  0.1320
 1276TIP3    H225244   2.952   4.474  -0.018 -0.6560 -1.0715 -0.8243
 1277TIP3   OH225245   3.622   3.850   1.403 -0.2570  0.1623  0.2692
 1277TIP3    H125246   3.693   3.912   1.422 -0.3575  0.4312 -0.2228
 1277TIP3    H225247   3.660   3.789   1.340 -0.2893 -0.0279  0.4342
 1278TIP3   OH225248   3.336   5.418  16.678 -0.0917  0.0132  0.1622
 1278TIP3    H125249   3.379   5.346  16.631  1.2372  0.6999  0.2947
 1278TIP3    H225250   3.396   5.439  16.750 -2.5850 -1.8074  3.0321
 1279TIP3   OH225251   4.650   4.080  13.657  0.5629  0.0984 -0.2851
 1279TIP3    H125252   4.556   4.088  13.640  0.6626 -1.1384 -1.4685
 1279TIP3    H225253   4.686   4.164  13.629  0.0091  0.0099 -1.3169
 1280TIP3   OH225254   0.725   6.310  17.219 -0.0123 -0.3221 -0.1386
 1280TIP3    H125255   0.632   6.332  17.208  0.2150  0.9607  0.3256
 1280TIP3    H225256   0.725   6.241  17.286 -0.6244 -0.2315 -0.0338
 1281TIP3   OH225257   6.072   2.917  12.491 -0.5302  0.2739  0.6951
 1281TIP3    H125258   6.027   2.833  12.484 -1.7407  0.9848 -0.3999
 1281TIP3    H225259   6.011   2.980  12.454  0.1184  1.7392  2.0029
 1282TIP3   OH225260   1.324   0.056   4.929 -0.0775  0.2697  0.1871
 1282TIP3    H125261   1.375   0.004   4.992 -0.2823 -1.1487 -0.7752
 1282TIP3    H225262   1.386   0.075   4.858 -0.8155 -1.4440 -0.9815
 1283TIP3   OH225263   4.765   5.710   0.295 -0.1979 -0.2040 -0.0091
 1283TIP3    H125264   4.786   5.687   0.205  0.2029  1.1361 -0.2832
 1283TIP3    H225265   4.850   5.721   0.338 -0.3692  0.5519  0.1482
 1284TIP3   OH225266   4.627   2.023   5.955  0.0861  0.0488  0.4557
 1284TIP3    H125267   4.667   2.080   5.890 -1.1640  1.6377  1.0222
 1284TIP3    H225268   4.674   2.042   6.036  1.2398 -1.4914  0.1940
 1285TIP3   OH225269   2.572   0.609   5.524  0.0498 -0.4907  0.5037
 1285TIP3    H125270   2.612   0.523   5.508  0.4386 -0.0045 -1.5363
 1285TIP3    H225271   2.560   0.645   5.436 -1.7475  0.8228  1.2400
 1286TIP3   OH225272   1.334   3.944  10.470  0.2976 -0.0080 -0.1567
 1286TIP3    H125273   1.367   3.960  10.381  2.9437 -1.2385  0.4903
 1286TIP3    H225274   1.386   4.002  10.526  0.7731 -1.3146  0.8329
 1287TIP3   OH225275   4.153   2.419   5.542  0.0420 -0.1392 -0.2373
 1287TIP3    H125276   4.183   2.337   5.502 -0.1362 -0.1574 -0.3364
 1287TIP3    H225277   4.107   2.391   5.621  1.3692 -0.0399  0.6040
 1288TIP3   OH225278   4.584   4.525   2.819 -0.1663  0.1311  0.1359
 1288TIP3    H125279   4.588   4.616   2.791 -1.8489 -0.5039 -2.5741
 1288TIP3    H225280   4.538   4.527   2.902  0.5593  1.7883  0.5372
 1289TIP3   OH225281   6.353   3.812  11.948 -0.4688 -0.4959 -0.3565
 1289TIP3    H125282   6.427   3.869  11.970  0.2072 -0.8614 -1.5739
 1289TIP3    H225283   6.305   3.803  12.030 -0.5237  1.7099 -0.0763
 1290TIP3   OH225284   4.889   0.993  14.890 -0.2225 -0.4140 -0.3257
 1290TIP3    H125285   4.828   1.067  14.886  1.8653  1.3478 -3.0294
 1290TIP3    H225286   4.927   0.998  14.978 -2.5331 -0.4386  0.7484
 1291TIP3   OH225287   2.755   3.436   0.311  0.3251  0.4044  0.2675
 1291TIP3    H125288   2.684   3.419   0.373 -0.3434  3.3723  0.4398
 1291TIP3    H225289   2.713   3.480   0.237  1.3428 -1.7548 -1.7288
 1292TIP3   OH225290   2.698   5.789   1.437  0.0493 -0.3355  0.6061
 1292TIP3    H125291   2.773   5.833   1.477 -0.6712  0.6723  0.8834
 1292TIP3    H225292   2.670   5.725   1.502 -0.4952  0.6104  1.3433
 1293TIP3   OH225293   0.415   3.921   5.479 -0.6219  0.2225 -0.0898
 1293TIP3    H125294   0.444   3.974   5.554 -0.5757 -0.3720  0.3198
 1293TIP3    H225295   0.394   3.985   5.412 -0.9642  0.7824  0.5355
 1294TIP3   OH225296   3.064   0.583  10.944 -0.2317  0.3907 -0.0331
 1294TIP3    H125297   3.084   0.664  10.896  0.6836  0.3813  0.3123
 1294TIP3    H225298   3.020   0.614  11.023 -0.9128  0.4680 -0.4348
 1295TIP3   OH225299   5.908   1.642   3.792 -0.1728 -0.3945 -0.4192
 1295TIP3    H125300   5.887   1.714   3.851  0.5093 -1.0213  0.6348
 1295TIP3    H225301   5.903   1.680   3.704 -0.3185  0.7958  0.0874
 1296TIP3   OH225302   2.880   4.315   2.173  0.0862  0.5454 -0.4393
 1296TIP3    H125303   2.798   4.355   2.144 -0.5063  1.1087  1.7908
 1296TIP3    H225304   2.921   4.382   2.227  0.2020 -1.0108  1.4954
 1297TIP3   OH225305   5.528   2.139  11.093 -0.0491 -0.3490 -0.1640
 1297TIP3    H125306   5.508   2.206  11.159  2.7707 -0.3915  0.8649
 1297TIP3    H225307   5.516   2.184  11.009 -0.5991  0.6958  0.4434
 1298TIP3   OH225308   3.704   2.346  17.197  0.1069 -0.0662  0.9529
 1298TIP3    H125309   3.659   2.270  17.233  2.2260  0.1786  4.6556
 1298TIP3    H225310   3.665   2.421  17.242 -1.5060  1.1166 -2.1588
 1299TIP3   OH225311   1.995   2.372  13.863  0.4042 -0.2056 -0.3718
 1299TIP3    H125312   2.054   2.439  13.830 -0.3794  0.8254  0.2522
 1299TIP3    H225313   2.036   2.341  13.944 -0.0632  0.7717  0.2581
 1300TIP3   OH225314   4.069   5.798  13.499  0.0669 -0.2519  0.1799
 1300TIP3    H125315   4.072   5.890  13.523  1.3515 -0.4359  0.8215
 1300TIP3    H225316   4.144   5.759  13.545  0.3122 -1.3699 -1.0951
 1301TIP3   OH225317   3.404   3.231   3.716  0.6762  0.2504 -0.0120
 1301TIP3    H125318   3.334   3.277   3.670  0.2654 -0.0548  0.2965
 1301TIP3    H225319   3.359   3.166   3.770  1.2827 -1.2308 -1.2121
 1302TIP3   OH225320   5.370   0.229  13.447  0.0948 -0.8343  0.6954
 1302TIP3    H125321   5.406   0.140  13.452  0.3417 -0.7337  0.7480
 1302TIP3    H225322   5.338   0.236  13.357  1.2770 -0.5350  0.2702
 1303TIP3   OH225323   3.388   3.721   2.176 -0.7397  0.1767 -0.0927
 1303TIP3    H125324   3.296   3.697   2.184 -0.6803  0.3329  1.3842
 1303TIP3    H225325   3.415   3.740   2.266  0.7945 -0.0744 -0.4802
 1304TIP3   OH225326   6.727   3.583   1.580  0.3158 -0.5560 -0.0359
 1304TIP3    H125327   6.660   3.650   1.567 -0.0109 -0.3082  2.4550
 1304TIP3    H225328   6.679   3.507   1.612  0.8350 -1.6036 -1.6572
 1305TIP3   OH225329   0.728   3.136  16.992  0.7727 -0.2087 -0.3035
 1305TIP3    H125330   0.652   3.119  16.937  0.6727  1.0513 -0.5923
 1305TIP3    H225331   0.799   3.155  16.931  0.9552  0.0395 -0.0189
 1306TIP3   OH225332   3.246   4.281  12.540  0.3481  0.1303  0.1004
 1306TIP3    H125333   3.314   4.216  12.558  0.4818  0.5005  1.0271
 1306TIP3    H225334   3.164   4.231  12.538  0.6559 -0.3557 -1.2699
 1307TIP3   OH225335   4.587   6.569   2.159  0.6277  0.2591  0.4004
 1307TIP3    H125336   4.679   6.555   2.181  0.9477  1.1111 -0.3265
 1307TIP3    H225337   4.559   6.640   2.215  0.3204 -0.1999  0.8327
 1308TIP3   OH225338   3.988   0.290  14.726 -0.6131 -0.0046  0.2678
 1308TIP3    H125339   3.978   0.365  14.667 -1.0302  0.5174  0.9780
 1308TIP3    H225340   4.038   0.226  14.676 -1.8603 -0.0064 -1.0280
 1309TIP3   OH225341   3.784   2.941   2.793  0.7937  0.0478  0.8555
 1309TIP3    H125342   3.753   3.026   2.824  1.3732  0.3552  0.6007
 1309TIP3    H225343   3.861   2.961   2.740 -0.8524 -0.3230 -1.8576
 1310TIP3   OH225344   0.850   5.411  16.884  0.0268  0.1981  0.6726
 1310TIP3    H125345   0.816   5.474  16.820  1.0512 -0.3795 -0.4885
 1310TIP3    H225346   0.899   5.464  16.946  0.8853  0.5762 -0.2957
 1311TIP3   OH225347   6.225   4.954   0.488  0.5333  0.3431 -0.1492
 1311TIP3    H125348   6.143   4.997   0.510 -0.3299 -1.0247 -0.5866
 1311TIP3    H225349   6.288   4.989   0.551 -1.0381 -0.7826  2.2010
 1312TIP3   OH225350   2.091   2.134  13.772 -0.5645  0.2040  0.4673
 1312TIP3    H125351   2.003   2.148  13.738 -0.9978 -1.4081  0.8170
 1312TIP3    H225352   2.093   2.184  13.854 -1.5470 -0.6088  1.0101
 1313TIP3   OH225353   0.968   2.549  12.888  0.5900 -0.0947  0.3363
 1313TIP3    H125354   0.981   2.592  12.803  0.8071  1.3509  1.0714
 1313TIP3    H225355   1.042   2.578  12.941  0.7681 -1.4487  0.8642
 1314TIP3   OH225356   0.220   0.071  13.706 -0.2627 -0.1780  0.4141
 1314TIP3    H125357   0.254  -0.015  13.729  1.7103  0.2420 -0.6690
 1314TIP3    H225358   0.133   0.053  13.668 -0.3750 -1.5382  1.2465
 1315TIP3   OH225359   0.001   0.734   5.627  0.1918 -0.8049 -0.1709
 1315TIP3    H125360  -0.007   0.785   5.547  0.8778 -1.4531 -0.6571
 1315TIP3    H225361   0.095   0.723   5.640  0.0698 -1.2275  0.3948
 1316TIP3   OH225362   5.813   4.307  16.604 -0.1588 -0.3778  0.7099
 1316TIP3    H125363   5.762   4.231  16.577  0.0268 -0.7030  1.2554
 1316TIP3    H225364   5.759   4.351  16.669  0.4673 -1.0376  1.7118
 1317TIP3   OH225365   1.817   2.329   3.361  0.5098  0.1946  0.3063
 1317TIP3    H125366   1.813   2.424   3.352 -0.3685  0.3204  1.7562
 1317TIP3    H225367   1.872   2.301   3.288  1.1191  1.8406  0.0794
 1318TIP3   OH225368   6.499   2.994   4.342 -0.0782  0.1755 -0.2084
 1318TIP3    H125369   6.533   2.976   4.429 -0.8784  1.4075  0.3887
 1318TIP3    H225370   6.417   2.944   4.338  0.6993 -1.1033 -0.8563
 1319TIP3   OH225371   0.680   6.051   0.112  0.2685  0.1415  0.4525
 1319TIP3    H125372   0.594   6.013   0.094 -0.5881  2.0573  0.3040
 1319TIP3    H225373   0.738   6.011   0.047 -0.1584 -2.1899  1.3791
 1320TIP3   OH225374   5.270   4.556  10.340  0.4862 -0.2083  0.3872
 1320TIP3    H125375   5.343   4.607  10.376  0.5121 -0.4880  0.7412
 1320TIP3    H225376   5.297   4.535  10.251 -0.5411  2.3879 -0.6097
 1321TIP3   OH225377   1.942   4.659  16.954 -0.3097 -0.8433 -0.0748
 1321TIP3    H125378   1.866   4.605  16.976  0.4987 -2.1454 -0.3495
 1321TIP3    H225379   1.999   4.601  16.903  0.5882  0.2914 -0.4293
 1322TIP3   OH225380   2.816   3.629  14.729  0.2844  0.0303 -0.6332
 1322TIP3    H125381   2.891   3.607  14.785  0.4195  0.7007 -0.5375
 1322TIP3    H225382   2.845   3.607  14.641  1.2221  1.7477 -0.8025
 1323TIP3   OH225383   4.172   0.797  14.212  0.3293 -0.2918  0.2521
 1323TIP3    H125384   4.100   0.816  14.273 -0.1406 -0.2993 -0.2915
 1323TIP3    H225385   4.248   0.837  14.254  0.5193 -2.3167  2.0113
 1324TIP3   OH225386   0.276   1.035   5.486 -0.2958  0.0137 -0.0935
 1324TIP3    H125387   0.236   1.104   5.539 -0.9145 -1.5115  1.5055
 1324TIP3    H225388   0.288   1.075   5.400 -1.3087  1.8729  0.5817
 1325TIP3   OH225389   5.343   1.785  12.598  0.6265 -0.1834  0.3135
 1325TIP3    H125390   5.411   1.819  12.540  0.4212 -0.4712 -0.0982
 1325TIP3    H225391   5.260   1.808  12.555  0.4787 -2.2451 -0.6203
 1326TIP3   OH225392   2.574   2.385  16.664  0.0697  0.3156 -0.1438
 1326TIP3    H125393   2.598   2.302  16.706  3.0709  0.7298 -0.8103
 1326TIP3    H225394   2.637   2.448  16.697  0.7157  1.3101 -3.0026
 1327TIP3   OH225395   1.577   3.085  14.189  0.9118 -0.4811 -0.0256
 1327TIP3    H125396   1.597   3.117  14.101  1.3186  1.1083  0.6111
 1327TIP3    H225397   1.651   3.112  14.242 -0.2160  0.3058  1.2034
 1328TIP3   OH225398   6.045   1.459   5.253 -0.1662 -0.0447 -0.2826
 1328TIP3    H125399   6.080   1.448   5.164  1.2587 -0.7958  0.3448
 1328TIP3    H225400   6.082   1.387   5.303 -0.1723  0.9065  1.1642
 1329TIP3   OH225401   0.243   4.480   4.703  0.9618 -0.0518  0.5707
 1329TIP3    H125402   0.159   4.468   4.747  1.3788 -0.4489  1.2798
 1329TIP3    H225403   0.260   4.574   4.709  0.2045  0.1426 -0.2676
 1330TIP3   OH225404   0.952   3.038   4.297 -0.2499 -0.2765 -0.0725
 1330TIP3    H125405   1.010   3.030   4.372 -0.2169 -1.0992 -0.1811
 1330TIP3    H225406   0.969   3.126   4.262  2.0730 -1.0440 -1.0388
 1331TIP3   OH225407   5.992   5.312  13.253 -0.2882  0.2701  0.1192
 1331TIP3    H125408   6.046   5.247  13.298 -0.3289 -1.2428 -1.8921
 1331TIP3    H225409   5.974   5.379  13.320 -0.9735 -2.1799  2.5724
 1332TIP3   OH225410   2.320   3.469   3.621 -0.1744 -0.3969 -0.1260
 1332TIP3    H125411   2.320   3.374   3.637  0.3747 -0.1909  1.2871
 1332TIP3    H225412   2.403   3.486   3.578  0.2469 -0.4298  0.6463
 1333TIP3   OH225413   3.813   1.892  15.265 -0.3117  0.6678 -0.6696
 1333TIP3    H125414   3.830   1.892  15.359  1.0833 -0.8216 -0.8873
 1333TIP3    H225415   3.829   1.802  15.238  0.1634  1.2607 -2.4852
 1334TIP3   OH225416   4.281   3.490  13.037  0.0175  0.4013 -0.6588
 1334TIP3    H125417   4.213   3.474  12.972 -0.1249 -0.8918 -0.2098
 1334TIP3    H225418   4.244   3.556  13.096  0.0473  1.3859 -1.7155
 1335TIP3   OH225419   1.371   4.879   2.541 -0.4445  0.1523 -0.3243
 1335TIP3    H125420   1.455   4.846   2.573 -0.9505 -0.2075  0.6831
 1335TIP3    H225421   1.336   4.808   2.488  0.1696  0.5580 -1.3073
 1336TIP3   OH225422   4.374   6.273   4.266  0.6068 -0.0106  0.3050
 1336TIP3    H125423   4.423   6.205   4.312  2.1716  0.2733 -0.8477
 1336TIP3    H225424   4.441   6.326   4.223 -0.5770  2.0885  0.8942
 1337TIP3   OH225425   0.035   1.918   1.205 -0.0493  0.1340  0.6211
 1337TIP3    H125426   0.053   1.962   1.122 -0.8689  0.4940  0.6233
 1337TIP3    H225427   0.045   1.825   1.185  2.0089  0.3026  0.6981
 1338TIP3   OH225428   1.183   3.757  10.270  0.1724 -0.2664 -0.4629
 1338TIP3    H125429   1.231   3.840  10.272  0.2159 -0.3018  1.6761
 1338TIP3    H225430   1.229   3.705  10.204  1.4418  0.6424 -0.3362
 1339TIP3   OH225431   2.236   6.391  16.407  0.1576  0.2632  0.0839
 1339TIP3    H125432   2.220   6.334  16.332  0.4418  0.3908 -0.0775
 1339TIP3    H225433   2.271   6.472  16.368 -0.2287  0.5437  0.3077
 1340TIP3   OH225434   4.358   3.715  12.795 -0.0062  0.3473 -0.1200
 1340TIP3    H125435   4.267   3.729  12.822 -0.0465 -0.9129  0.4521
 1340TIP3    H225436   4.405   3.790  12.831 -0.5283  0.1012  1.1256
 1341TIP3   OH225437   0.466   4.997  10.738  0.4465 -0.7485 -0.6465
 1341TIP3    H125438   0.467   5.082  10.781  1.0859 -0.3954 -1.3294
 1341TIP3    H225439   0.375   4.970  10.740  0.6540 -1.5909  2.5038
 1342TIP3   OH225440   2.587   2.809   4.857 -0.0974  0.1849 -0.0734
 1342TIP3    H125441   2.602   2.846   4.944  0.2223 -2.3995  1.0845
 1342TIP3    H225442   2.675   2.794   4.822 -0.2067  0.2964 -0.3975
 1343TIP3   OH225443   6.757   4.626  14.510 -1.2417 -0.3886  0.1113
 1343TIP3    H125444   6.810   4.567  14.563 -0.0292 -0.0823 -0.7241
 1343TIP3    H225445   6.733   4.574  14.433  0.2384  0.3299 -0.8604
 1344TIP3   OH225446   4.097   4.613   1.207  0.3580 -0.1594  0.3826
 1344TIP3    H125447   4.011   4.602   1.249  0.0311  0.9140  0.0248
 1344TIP3    H225448   4.083   4.583   1.117 -0.3955  2.4532 -0.4456
 1345TIP3   OH225449   4.824   3.928  11.327 -0.2836 -0.0605 -0.3875
 1345TIP3    H125450   4.854   4.014  11.301  1.0268 -0.4603 -0.2641
 1345TIP3    H225451   4.782   3.892  11.249  0.3991  0.1535 -0.8621
 1346TIP3   OH225452   0.934   0.105   6.215 -0.1085  0.6539  0.0704
 1346TIP3    H125453   0.980   0.024   6.239 -0.7223  0.4230  0.4819
 1346TIP3    H225454   0.991   0.146   6.150 -0.6638 -1.0087 -1.5411
 1347TIP3   OH225455   3.622   2.566   4.120  1.1654  0.1810  0.2704
 1347TIP3    H125456   3.678   2.506   4.169  1.6369  1.4057  1.3189
 1347TIP3    H225457   3.640   2.652   4.160 -1.3098  0.6447  0.5314
 1348TIP3   OH225458   6.358   5.850  14.508  0.0110  0.4450  0.3845
 1348TIP3    H125459   6.396   5.799  14.437  0.9692  2.8464 -0.9314
 1348TIP3    H225460   6.335   5.785  14.575  3.8671 -1.4988  0.0961
 1349TIP3   OH225461   0.323   2.180   5.660 -0.1250 -0.0234 -0.2079
 1349TIP3    H125462   0.412   2.160   5.633 -0.3176 -1.5106  0.1991
 1349TIP3    H225463   0.269   2.152   5.586 -0.2185  1.7477 -0.8567
 1350TIP3   OH225464   1.997   5.470   1.893  0.3174 -0.4049  0.1735
 1350TIP3    H125465   1.910   5.449   1.929  0.2548 -1.4951 -0.5668
 1350TIP3    H225466   1.988   5.453   1.799  0.4275  2.5454 -0.4561
 1351TIP3   OH225467   2.833   1.070  15.871 -0.2292  0.4751 -0.0403
 1351TIP3    H125468   2.825   1.149  15.817 -0.5554 -0.2280 -1.0618
 1351TIP3    H225469   2.913   1.028  15.839 -0.4920 -0.0114 -0.0656
 1352TIP3   OH225470   4.591   1.674   3.462 -0.3728 -0.7817 -0.2677
 1352TIP3    H125471   4.587   1.645   3.553 -0.7495 -1.4628 -0.4920
 1352TIP3    H225472   4.501   1.670   3.432 -0.1245 -1.4945 -0.9462
 1353TIP3   OH225473   2.829   0.031  11.560  0.4267  0.5299 -0.7225
 1353TIP3    H125474   2.783  -0.052  11.555  1.2876  0.0931 -1.7823
 1353TIP3    H225475   2.909   0.012  11.609 -0.1052  1.1131  0.4270
 1354TIP3   OH225476   1.160   4.286   4.878  0.2454 -0.3155  0.6843
 1354TIP3    H125477   1.131   4.195   4.886  0.8899 -0.6263 -0.2471
 1354TIP3    H225478   1.181   4.313   4.967  0.3629 -1.1971  0.9362
 1355TIP3   OH225479   6.096   0.831  14.116 -0.2131 -0.2144  0.2883
 1355TIP3    H125480   6.087   0.925  14.127 -0.4186 -0.3036  0.9093
 1355TIP3    H225481   6.047   0.812  14.036 -0.5472  0.1445  0.4045
 1356TIP3   OH225482   4.389   5.848   2.272 -0.1086 -0.3008  0.1198
 1356TIP3    H125483   4.454   5.892   2.217  0.9176  1.3341  2.4872
 1356TIP3    H225484   4.346   5.918   2.320 -2.4336 -1.5101 -0.0459
 1357TIP3   OH225485   4.736   2.571   4.242  0.2775  0.1127  0.3913
 1357TIP3    H125486   4.827   2.562   4.272  0.4993  0.7782 -0.0474
 1357TIP3    H225487   4.727   2.664   4.222 -0.2523 -0.0861 -0.3368
 1358TIP3   OH225488   2.386   4.759  14.798 -0.1416  0.3040 -0.1010
 1358TIP3    H125489   2.357   4.695  14.862  0.9519  0.2281  0.3435
 1358TIP3    H225490   2.397   4.840  14.847  0.3059  0.3497 -0.2638
 1359TIP3   OH225491   3.295   6.238  13.562 -0.1434  0.2605 -0.0313
 1359TIP3    H125492   3.306   6.333  13.568  0.9309  0.1910 -0.5755
 1359TIP3    H225493   3.253   6.214  13.644 -1.0209  1.2752 -0.1494
 1360TIP3   OH225494   5.438   1.569  14.989 -0.0594 -0.3014  0.2280
 1360TIP3    H125495   5.489   1.510  14.933  0.8060  2.3803 -2.0530
 1360TIP3    H225496   5.499   1.595  15.058  0.3735 -0.1653 -0.2018
 1361TIP3   OH225497   2.827   2.593  12.013 -0.3349  0.1162 -0.2374
 1361TIP3    H125498   2.908   2.631  11.978  0.3130  0.5605  1.6151
 1361TIP3    H225499   2.757   2.645  11.972  0.4277  1.3465 -0.0481
 1362TIP3   OH225500   2.434   6.641  12.906 -0.6653  0.1212 -0.6540
 1362TIP3    H125501   2.371   6.588  12.856  0.9117 -1.9263 -0.6314
 1362TIP3    H225502   2.470   6.580  12.970  0.7309  1.4435 -0.1290
 1363TIP3   OH225503   0.506   3.314   0.265 -0.3001 -0.1845  0.0946
 1363TIP3    H125504   0.475   3.257   0.195  3.0804 -1.7474 -0.3503
 1363TIP3    H225505   0.464   3.280   0.344 -0.6965 -1.3197 -0.5825
 1364TIP3   OH225506   3.362   2.965  16.316 -0.3172 -0.2545  0.2997
 1364TIP3    H125507   3.360   2.954  16.411 -1.0630  0.0323  0.3278
 1364TIP3    H225508   3.306   3.042  16.300  0.3224  0.0917 -0.3143
 1365TIP3   OH225509   4.493   0.064   1.290 -0.1778  0.2070 -0.2679
 1365TIP3    H125510   4.403   0.084   1.266 -0.4950 -1.0818 -0.2074
 1365TIP3    H225511   4.509   0.116   1.369 -0.0620  2.2717 -1.5691
 1366TIP3   OH225512   0.842   4.807   1.444  0.1523 -0.4823  0.0889
 1366TIP3    H125513   0.872   4.887   1.399  1.1440 -1.1043 -0.3884
 1366TIP3    H225514   0.919   4.775   1.491 -0.1471 -1.3272  0.0246
 1367TIP3   OH225515   0.537   1.589  14.208  0.4524  0.3973  0.5109
 1367TIP3    H125516   0.626   1.614  14.234  0.4645  0.0495  0.8016
 1367TIP3    H225517   0.516   1.650  14.137  0.6709  0.9180  0.8811
 1368TIP3   OH225518   5.571   2.316   3.829 -0.0242 -0.0945  0.0494
 1368TIP3    H125519   5.600   2.342   3.742 -0.4211 -1.1565 -0.4156
 1368TIP3    H225520   5.539   2.226   3.818  1.7851 -0.9964  1.6797
 1369TIP3   OH225521   2.530   2.154  14.816  0.0119  0.6547  0.4496
 1369TIP3    H125522   2.620   2.144  14.847 -0.2733  1.3652  1.5815
 1369TIP3    H225523   2.535   2.222  14.749  0.6216 -0.8177 -1.0766
 1370TIP3   OH225524   6.091   0.907   3.508 -0.2127  0.4147 -0.2298
 1370TIP3    H125525   6.179   0.945   3.506 -0.1772  0.4662  1.1911
 1370TIP3    H225526   6.056   0.933   3.594 -0.6491 -1.7150  0.3022
 1371TIP3   OH225527   0.909   3.998  13.589 -0.0005 -0.0095  0.0443
 1371TIP3    H125528   1.005   4.001  13.590  0.0677  3.8766 -0.1408
 1371TIP3    H225529   0.887   3.986  13.496  0.5002  2.4420 -0.4804
 1372TIP3   OH225530   4.761   6.313   1.890 -0.2515  0.4018 -0.2353
 1372TIP3    H125531   4.751   6.227   1.931 -1.4233  0.7349  0.2213
 1372TIP3    H225532   4.805   6.366   1.957 -2.2510  0.9727  0.7096
 1373TIP3   OH225533   1.765   3.381  15.544  0.2229 -0.0187  0.4749
 1373TIP3    H125534   1.744   3.424  15.460 -2.4849 -0.2691  0.9402
 1373TIP3    H225535   1.686   3.333  15.567  1.2454 -0.7600  2.7239
 1374TIP3   OH225536   0.968   4.960  15.571 -0.2779 -0.0715 -0.0900
 1374TIP3    H125537   1.018   4.909  15.635 -0.0211  0.1023 -0.1502
 1374TIP3    H225538   0.928   4.894  15.514 -1.7931 -0.2983  1.1863
 1375TIP3   OH225539   1.408   4.221  11.816  0.4565  0.4023 -0.5588
 1375TIP3    H125540   1.338   4.280  11.845  0.8870  1.0450 -0.7996
 1375TIP3    H225541   1.456   4.201  11.897  0.2360  0.2746 -0.4567
 1376TIP3   OH225542   1.487   4.839  12.429  0.0270 -0.7284  0.6488
 1376TIP3    H125543   1.512   4.903  12.496 -0.3100  1.3079 -1.0651
 1376TIP3    H225544   1.459   4.762  12.478 -0.4659  0.7712  2.8558
 1377TIP3   OH225545   3.472   4.568   0.938  0.3400 -0.2827 -0.1853
 1377TIP3    H125546   3.384   4.605   0.939  0.4275 -0.0347  1.2268
 1377TIP3    H225547   3.480   4.524   1.023  1.6767 -0.0293 -0.1559
 1378TIP3   OH225548   3.005   3.583  15.009 -0.4041 -0.5274 -0.2266
 1378TIP3    H125549   3.060   3.512  14.975 -0.1310 -0.8183  0.7842
 1378TIP3    H225550   3.028   3.589  15.102 -1.7614 -0.3500  0.1215
 1379TIP3   OH225551   1.595   2.890  13.655 -0.0623 -0.1399 -0.6270
 1379TIP3    H125552   1.564   2.803  13.627 -0.7291  0.0741 -0.5598
 1379TIP3    H225553   1.686   2.875  13.682  0.1367 -0.6303 -1.5304
 1380TIP3   OH225554   1.911   5.777  14.410 -0.3108  0.1787  0.0080
 1380TIP3    H125555   1.843   5.827  14.455 -0.7898  0.3426 -0.8776
 1380TIP3    H225556   1.875   5.688  14.405 -0.5599  0.3157 -0.6605
 1381TIP3   OH225557   0.141   6.788   6.159 -0.4664 -0.3978 -0.0316
 1381TIP3    H125558   0.146   6.694   6.176 -0.2043 -0.8098 -2.1172
 1381TIP3    H225559   0.049   6.803   6.137 -0.4682 -0.1898  0.1158
 1382TIP3   OH225560   2.778   2.395   3.522 -0.1663  0.0626 -0.2683
 1382TIP3    H125561   2.720   2.441   3.582  0.6989 -0.2791  0.8625
 1382TIP3    H225562   2.769   2.303   3.545  0.0844 -0.0843 -0.7426
 1383TIP3   OH225563   1.861   5.300   1.248 -0.2319  0.5418  0.1610
 1383TIP3    H125564   1.950   5.335   1.238 -0.0837  0.0838 -0.1796
 1383TIP3    H225565   1.817   5.362   1.305  0.2643  0.8572  0.2080
 1384TIP3   OH225566   1.394   3.689   3.215 -0.4625 -0.3679 -0.4440
 1384TIP3    H125567   1.435   3.724   3.294  1.7851  1.3018 -2.2099
 1384TIP3    H225568   1.301   3.710   3.224 -0.2165 -0.0074  1.5993
 1385TIP3   OH225569   5.885   2.665   2.232 -0.3169  1.1176 -0.1403
 1385TIP3    H125570   5.925   2.643   2.316  0.2907  0.8595 -0.4968
 1385TIP3    H225571   5.830   2.742   2.251  0.1122  1.2889  0.4140
 1386TIP3   OH225572   2.968   5.801  14.805  0.2182 -0.6235  0.2830
 1386TIP3    H125573   3.048   5.751  14.821  0.4383 -0.6599 -0.8466
 1386TIP3    H225574   2.978   5.880  14.859  0.1863 -1.4315  1.5299
 1387TIP3   OH225575   4.332   2.735  10.929  0.4430  0.2580 -0.0871
 1387TIP3    H125576   4.324   2.741  10.834 -2.2860 -0.3782  0.0072
 1387TIP3    H225577   4.267   2.797  10.962  1.2171  0.3274  1.3860
 1388TIP3   OH225578   5.614   6.051   1.607  0.5951  0.3232 -0.6008
 1388TIP3    H125579   5.661   6.124   1.568  0.9600 -1.0322 -2.8496
 1388TIP3    H225580   5.659   5.973   1.575 -1.6705 -0.9608 -0.8615
 1389TIP3   OH225581   4.237   6.606  14.221 -0.0376 -0.3092 -0.2609
 1389TIP3    H125582   4.251   6.513  14.238 -1.2747 -1.0745 -2.8157
 1389TIP3    H225583   4.237   6.613  14.125 -0.8412  2.1711 -0.1652
 1390TIP3   OH225584   5.919   5.534   1.886  0.4031  0.3171 -0.1650
 1390TIP3    H125585   5.874   5.462   1.930 -0.7873 -0.4719 -2.5052
 1390TIP3    H225586   5.988   5.491   1.835  2.1395  1.2675  1.2540
 1391TIP3   OH225587   2.923   5.523  12.239  0.3771  0.3091  0.0948
 1391TIP3    H125588   2.850   5.496  12.295  1.7555  0.3451  1.9911
 1391TIP3    H225589   2.927   5.455  12.171  0.2053 -1.1611  1.4971
 1392TIP3   OH225590   1.898   6.113  16.522  0.3228 -0.3408  0.0274
 1392TIP3    H125591   1.928   6.063  16.446  0.2459 -0.3901  0.0298
 1392TIP3    H225592   1.913   6.204  16.498 -0.1771 -0.3286 -0.2508
 1393TIP3   OH225593   3.940   4.207   3.284 -0.6137  0.6520 -0.1575
 1393TIP3    H125594   3.974   4.295   3.302 -0.1478  0.7605 -1.4629
 1393TIP3    H225595   4.017   4.151   3.283 -0.8939  0.2482  0.5079
 1394TIP3   OH225596   2.306   6.778   2.229  0.2274  0.5216  0.0558
 1394TIP3    H125597   2.344   6.749   2.312 -1.0345 -0.4865  0.3017
 1394TIP3    H225598   2.376   6.765   2.165  1.1978  1.2598  0.9199
 1395TIP3   OH225599   2.112   6.220  16.211 -0.5304  0.2906  0.6158
 1395TIP3    H125600   2.074   6.301  16.175 -0.9683 -0.6226 -1.0779
 1395TIP3    H225601   2.038   6.159  16.215  0.4642 -1.1948 -1.7602
 1396TIP3   OH225602   5.215   3.470  10.168 -0.5599  0.1431  0.0961
 1396TIP3    H125603   5.292   3.527  10.172 -1.3057  1.1319  1.2346
 1396TIP3    H225604   5.248   3.387  10.133  0.7958  0.8912 -0.4714
 1397TIP3   OH225605   5.794   6.309   2.168 -0.5886 -0.0897 -0.3036
 1397TIP3    H125606   5.831   6.391   2.200 -2.0900  0.4761  0.0937
 1397TIP3    H225607   5.699   6.325   2.166 -0.9024 -1.7830 -0.3181
 1398TIP3   OH225608   0.781   1.296   4.181  0.4782 -0.5213  0.0173
 1398TIP3    H125609   0.826   1.371   4.219  1.6555 -1.2396  0.0946
 1398TIP3    H225610   0.737   1.255   4.255  1.4310 -0.9963  0.3321
 1399TIP3   OH225611   3.135   1.451  13.193 -0.5527  0.1951 -0.6475
 1399TIP3    H125612   3.060   1.457  13.253 -1.0283  0.9328 -1.2876
 1399TIP3    H225613   3.187   1.378  13.226 -0.7856  0.6083  0.6795
 1400TIP3   OH225614   1.596   2.498  10.532  0.1337 -1.0731  0.4494
 1400TIP3    H125615   1.572   2.579  10.578  0.0420  0.3648 -1.9425
 1400TIP3    H225616   1.690   2.490  10.547  0.3659  0.1441 -0.1614
 1401TIP3   OH225617   0.805   0.124   0.534  0.6971  0.6082  0.0607
 1401TIP3    H125618   0.771   0.073   0.459 -0.3663  1.6803 -0.2213
 1401TIP3    H225619   0.864   0.188   0.494  1.8018 -0.1687  0.3878
 1402TIP3   OH225620   5.559   2.394   0.326 -0.4205 -0.0010 -0.1279
 1402TIP3    H125621   5.553   2.397   0.231 -1.4382 -0.0415 -0.0777
 1402TIP3    H225622   5.653   2.389   0.344 -0.2540 -2.9052 -1.2163
 1403TIP3   OH225623   1.818   3.265   0.258  0.2651  0.2023 -0.0501
 1403TIP3    H125624   1.761   3.190   0.272  0.5006 -0.0581 -0.4708
 1403TIP3    H225625   1.822   3.309   0.343 -1.3630  0.7834 -0.2526
 1404TIP3   OH225626   4.113   3.819  12.914 -0.1552  0.1123  0.0870
 1404TIP3    H125627   4.165   3.813  12.994  1.2015 -1.0602 -0.8094
 1404TIP3    H225628   4.089   3.911  12.907  1.7236  0.6972  0.6542
 1405TIP3   OH225629   0.620   5.016   4.403 -0.5279 -0.0009 -0.2343
 1405TIP3    H125630   0.567   4.963   4.344 -2.2840  2.1132 -0.7027
 1405TIP3    H225631   0.579   5.006   4.488  0.8955 -1.5876  0.3273
 1406TIP3   OH225632   5.325   2.472   5.733 -0.0900  0.6612 -0.1475
 1406TIP3    H125633   5.349   2.398   5.677  0.3137 -0.0927  0.9811
 1406TIP3    H225634   5.409   2.510   5.760 -0.2479  3.3968 -3.0005
 1407TIP3   OH225635   1.811   2.708  15.452  0.2304 -0.3589  0.6067
 1407TIP3    H125636   1.858   2.719  15.370  1.8454  2.1308  1.7628
 1407TIP3    H225637   1.831   2.618  15.478  0.6029 -0.8259 -1.1509
 1408TIP3   OH225638   6.300   2.863  13.163 -0.4901  0.2156  0.1284
 1408TIP3    H125639   6.333   2.943  13.204 -0.2693  1.2765 -1.9697
 1408TIP3    H225640   6.311   2.878  13.069 -1.4641 -1.8500 -0.3754
 1409TIP3   OH225641   3.789   4.218  16.058  0.0967  0.2389  0.0789
 1409TIP3    H125642   3.840   4.287  16.101 -1.1813  0.0432  2.0655
 1409TIP3    H225643   3.748   4.261  15.984  2.8377  0.4670 -1.4430
 1410TIP3   OH225644   2.980   5.988   1.055 -0.5202  0.3768  0.1466
 1410TIP3    H125645   2.892   5.981   1.092 -0.8042  2.8811  0.1486
 1410TIP3    H225646   3.036   5.939   1.116 -1.6788  0.1182  1.0402
 1411TIP3   OH225647   6.429   3.314   0.989  0.2236 -0.3570 -0.7198
 1411TIP3    H125648   6.511   3.311   1.039  0.1111  0.4730 -0.4823
 1411TIP3    H225649   6.419   3.225   0.955  0.0988 -1.0550  1.0618
 1412TIP3   OH225650   2.228   6.021   2.166  0.0018 -0.1759  0.8717
 1412TIP3    H125651   2.161   5.977   2.217 -0.0665  1.1805  2.0163
 1412TIP3    H225652   2.180   6.083   2.111  0.1454 -1.0132 -0.2501
 1413TIP3   OH225653   0.902   2.958  10.967 -0.8610 -0.4878  0.4280
 1413TIP3    H125654   0.942   2.951  10.881  1.1266 -1.3856  1.3619
 1413TIP3    H225655   0.879   3.051  10.975  2.9022  0.6242  0.5130
 1414TIP3   OH225656   1.521   4.829   0.889  0.1468 -0.3642 -0.0190
 1414TIP3    H125657   1.611   4.814   0.862  0.5171  0.1729  0.8805
 1414TIP3    H225658   1.507   4.923   0.878 -0.3594 -0.4610 -0.2867
 1415TIP3   OH225659   4.777   1.719   4.138  0.7101  0.4712  0.2982
 1415TIP3    H125660   4.825   1.644   4.104  1.9820  0.7013  1.4730
 1415TIP3    H225661   4.754   1.694   4.227 -1.4977  0.3371 -0.2667
 1416TIP3   OH225662   3.482   5.337  14.010 -0.3947  0.4352  0.2959
 1416TIP3    H125663   3.433   5.276  14.064 -0.9738  0.9687  0.3817
 1416TIP3    H225664   3.475   5.303  13.921  0.5253 -0.4212  0.5282
 1417TIP3   OH225665   2.477   1.605   1.958  0.2310 -0.1497  0.4403
 1417TIP3    H125666   2.526   1.660   1.897  0.4568 -0.0905  0.6725
 1417TIP3    H225667   2.405   1.569   1.906  0.4206 -0.0983  0.1408
 1418TIP3   OH225668   5.440   1.746  12.283 -0.5375  0.3381 -0.1604
 1418TIP3    H125669   5.426   1.653  12.303  3.2247 -0.5957 -1.0823
 1418TIP3    H225670   5.395   1.759  12.200 -0.8723 -0.7393 -0.1686
 1419TIP3   OH225671   3.799   2.506  16.895  0.1111  0.3808 -0.3073
 1419TIP3    H125672   3.751   2.579  16.935 -0.3284  0.2141 -0.5267
 1419TIP3    H225673   3.814   2.445  16.968 -0.3081  0.2771 -0.3068
 1420TIP3   OH225674   2.972   6.670   4.934  0.2426  0.2368  0.7010
 1420TIP3    H125675   2.971   6.695   4.841 -0.3154  0.5958  0.8009
 1420TIP3    H225676   3.056   6.624   4.945  1.7147  2.7639  0.7194
 1421TIP3   OH225677   4.456   3.965   0.330  0.0148  0.2973 -0.0776
 1421TIP3    H125678   4.529   3.989   0.387 -1.2553  3.5696  0.3895
 1421TIP3    H225679   4.391   3.927   0.389 -0.9033  2.7841  0.6469
 1422TIP3   OH225680   6.346   1.026   5.136  0.3492 -0.1712  0.4177
 1422TIP3    H125681   6.422   1.004   5.191  1.8238  1.6508 -0.7709
 1422TIP3    H225682   6.366   0.989   5.051  0.3728  1.0991 -0.1529
 1423TIP3   OH225683   0.027   0.365   1.639  0.9715  0.0650 -0.0121
 1423TIP3    H125684   0.021   0.377   1.734 -0.5793 -0.0922 -0.0594
 1423TIP3    H225685   0.061   0.276   1.629  2.3835  0.5315  0.3647
 1424TIP3   OH225686   3.517   1.577   3.865  0.1869 -0.1424  0.2352
 1424TIP3    H125687   3.604   1.537   3.871  1.1078  1.9268  1.6859
 1424TIP3    H225688   3.478   1.563   3.951  0.7127  2.3277  0.9439
 1425TIP3   OH225689   1.992   5.871   1.965 -0.0794 -0.2873 -0.2062
 1425TIP3    H125690   2.002   5.782   1.998 -1.8305 -1.4401 -2.5049
 1425TIP3    H225691   1.898   5.884   1.957  0.1602  1.3627 -0.9464
 1426TIP3   OH225692   5.763   1.572  12.217  0.2529  0.0257 -0.0149
 1426TIP3    H125693   5.705   1.585  12.142  0.2394  1.3791  0.1987
 1426TIP3    H225694   5.825   1.505  12.188  0.6862  1.0187 -1.5278
 1427TIP3   OH225695   5.941   1.695   5.281  0.1407  0.1427 -0.0401
 1427TIP3    H125696   5.977   1.608   5.265  0.1029  0.1004  0.1079
 1427TIP3    H225697   5.972   1.719   5.368  1.4159  0.9097 -0.6734
 1428TIP3   OH225698   5.401   6.615   1.575 -0.3078  0.6323  0.4902
 1428TIP3    H125699   5.350   6.590   1.498 -3.2788  1.9435  1.8577
 1428TIP3    H225700   5.454   6.689   1.546 -1.1049  0.8778 -0.4011
 1429TIP3   OH225701   3.172   5.660   0.254  0.0365 -0.3653  0.0458
 1429TIP3    H125702   3.115   5.732   0.278 -0.2102 -0.4879 -0.1664
 1429TIP3    H225703   3.259   5.688   0.281  0.2688  0.8641 -1.7986
 1430TIP3   OH225704   0.088   6.451  13.805 -0.0369 -0.3171 -0.4576
 1430TIP3    H125705   0.053   6.427  13.891 -1.4145  2.6280 -0.0752
 1430TIP3    H225706   0.037   6.400  13.742  1.0646 -2.5957  0.4047
 1431TIP3   OH225707   5.433   6.674   5.213 -0.2978 -1.1890  0.0877
 1431TIP3    H125708   5.368   6.690   5.145 -0.5996 -1.0600  0.4019
 1431TIP3    H225709   5.436   6.756   5.263 -0.1549 -1.3175  0.2928
 1432TIP3   OH225710   4.945   3.447   5.861  0.5034  0.2592  0.1979
 1432TIP3    H125711   5.001   3.520   5.888 -0.3654  0.5056  1.4293
 1432TIP3    H225712   4.886   3.434   5.935 -0.2999 -0.7580 -0.5932
 1433TIP3   OH225713   6.000   2.800   4.153  0.2662  0.7318 -0.3316
 1433TIP3    H125714   5.947   2.741   4.207  2.0112  1.0358  1.8945
 1433TIP3    H225715   5.937   2.849   4.101 -1.3882 -1.1828 -0.2627
 1434TIP3   OH225716   6.555   0.601   4.111  0.2123  0.2111 -0.5300
 1434TIP3    H125717   6.537   0.685   4.153  0.4036 -0.0681  0.1146
 1434TIP3    H225718   6.646   0.606   4.084  0.0228  0.4818 -1.1331
 1435TIP3   OH225719   6.429   3.413  13.816  0.8537  0.7937 -0.1871
 1435TIP3    H125720   6.507   3.442  13.864  0.7476  0.5222  0.1594
 1435TIP3    H225721   6.461   3.389  13.730  1.4072 -0.6483  0.3842
 1436TIP3   OH225722   1.978   3.998  12.737  0.0640  0.1152  0.5842
 1436TIP3    H125723   1.918   4.054  12.785 -0.5372 -0.8202  0.9559
 1436TIP3    H225724   2.033   3.958  12.805 -0.2749 -0.6128  0.4468
 1437TIP3   OH225725   3.972   2.826  11.525 -0.4801  0.7578  0.0369
 1437TIP3    H125726   3.887   2.823  11.567 -0.2309 -1.1800  0.5331
 1437TIP3    H225727   3.953   2.827  11.431 -1.0970 -0.7504  0.1146
 1438TIP3   OH225728   1.103   4.221  11.336 -0.6072 -0.1943 -0.5114
 1438TIP3    H125729   1.170   4.249  11.274 -1.0151 -0.1399 -0.9321
 1438TIP3    H225730   1.113   4.126  11.342  0.4121 -0.0492  0.4925
 1439TIP3   OH225731   2.125   0.707   2.703 -0.2100 -0.0063  0.2101
 1439TIP3    H125732   2.121   0.612   2.717  1.4402 -0.0253  0.8219
 1439TIP3    H225733   2.218   0.724   2.686 -0.4380  1.5344  0.4010
 1440TIP3   OH225734   2.168   5.128  13.563  0.7399  0.0412  0.4464
 1440TIP3    H125735   2.141   5.186  13.491  0.1445  0.1451  0.7530
 1440TIP3    H225736   2.232   5.070  13.523  1.3747  0.9286  0.1322
 1441TIP3   OH225737   0.479   5.060   4.627  0.4256 -0.2362 -0.0176
 1441TIP3    H125738   0.499   5.148   4.660 -1.2477 -0.7913  2.7550
 1441TIP3    H225739   0.384   5.055   4.631  0.4257 -1.8157 -1.2475
 1442TIP3   OH225740   4.663   4.548   5.248 -0.4677  0.2236  0.3446
 1442TIP3    H125741   4.580   4.540   5.293  0.1605 -0.5375  1.4055
 1442TIP3    H225742   4.693   4.458   5.235 -0.2654  0.4514 -0.9263
 1443TIP3   OH225743   6.021   2.856  17.048 -0.2717 -0.5899  0.1675
 1443TIP3    H125744   6.049   2.849  17.139 -0.1954 -1.2557  0.0954
 1443TIP3    H225745   5.925   2.863  17.053 -0.2083  0.1897  0.3386
 1444TIP3   OH225746   2.240   3.619   2.292  0.1887 -0.3273 -0.2489
 1444TIP3    H125747   2.185   3.544   2.271 -0.7153  0.3978 -0.5865
 1444TIP3    H225748   2.258   3.660   2.207  1.7041 -0.8405 -0.1993
 1445TIP3   OH225749   6.664   5.360  13.594  0.4704  0.0662  0.2258
 1445TIP3    H125750   6.735   5.324  13.541  0.9383 -0.0933  0.9501
 1445TIP3    H225751   6.682   5.329  13.683 -0.1935  0.4947  0.5192
 1446TIP3   OH225752   4.191   0.861   1.120 -0.2923  0.0384  0.0277
 1446TIP3    H125753   4.142   0.788   1.082 -0.4861  0.3363 -0.3035
 1446TIP3    H225754   4.158   0.869   1.209 -0.7663  0.1597 -0.1548
 1447TIP3   OH225755   0.756   3.329   0.140  0.1585  0.0456  0.5214
 1447TIP3    H125756   0.786   3.261   0.200 -1.0217 -0.9985 -0.0262
 1447TIP3    H225757   0.680   3.368   0.183 -0.0203  0.0417  0.2177
 1448TIP3   OH225758   0.676   3.449  11.358  0.0419  0.6032 -0.1583
 1448TIP3    H125759   0.665   3.371  11.302  1.2445 -0.3209  0.8224
 1448TIP3    H225760   0.592   3.494  11.353 -0.0929  0.2223 -2.1993
 1449TIP3   OH225761   6.450   0.430   3.821 -0.5659 -0.0665  0.5245
 1449TIP3    H125762   6.375   0.394   3.773  0.6941 -0.4713 -1.2378
 1449TIP3    H225763   6.472   0.511   3.776  1.1998 -0.9015 -0.2107
 1450TIP3   OH225764   4.292   4.864  12.241 -0.2706  0.6637  0.0909
 1450TIP3    H125765   4.351   4.870  12.316 -0.8073  3.1231  0.3779
 1450TIP3    H225766   4.346   4.885  12.166  0.1528 -1.3430 -0.2428
 1451TIP3   OH225767   3.145   1.061  12.723  0.5149  0.0844  0.5852
 1451TIP3    H125768   3.212   1.127  12.706  2.9484 -1.6219  2.8218
 1451TIP3    H225769   3.176   0.982  12.679 -1.7517 -0.0163 -1.0471
 1452TIP3   OH225770   4.300   1.095  14.968 -0.0078  0.1271  0.0200
 1452TIP3    H125771   4.282   1.068  14.877 -1.2110  1.1346 -0.0764
 1452TIP3    H225772   4.224   1.062  15.017 -0.0019  0.7080  0.4236
 1453TIP3   OH225773   5.805   2.622   4.226 -0.8025  0.4693 -0.2005
 1453TIP3    H125774   5.761   2.578   4.154 -1.0945 -0.0399  0.2821
 1453TIP3    H225775   5.847   2.551   4.276 -0.6536  0.8065  0.1612
 1454TIP3   OH225776   6.326   3.193  14.677 -0.0380 -0.4539  0.4443
 1454TIP3    H125777   6.355   3.128  14.613 -0.1923  0.2994 -0.3982
 1454TIP3    H225778   6.379   3.270  14.659 -0.2633 -0.1507  1.0613
 1455TIP3   OH225779   3.260   3.596   5.007 -0.2629  0.2359 -0.0316
 1455TIP3    H125780   3.355   3.593   5.008 -0.1469  1.6983 -1.5933
 1455TIP3    H225781   3.234   3.506   4.986  0.7884 -0.1064  0.0841
 1456TIP3   OH225782   6.329   5.870  13.861 -0.1626  0.1542  0.2166
 1456TIP3    H125783   6.370   5.914  13.787 -0.5133 -0.7877 -0.5651
 1456TIP3    H225784   6.332   5.933  13.933  1.2939  0.6423 -0.2508
 1457TIP3   OH225785   4.453   0.981  13.091  0.2714 -0.3354  0.5126
 1457TIP3    H125786   4.523   0.920  13.114  2.8304  1.0623 -2.5886
 1457TIP3    H225787   4.377   0.952  13.140  1.5480 -5.3776 -0.0045
 1458TIP3   OH225788   5.810   1.973   1.599 -0.0213  0.3888  0.2253
 1458TIP3    H125789   5.807   1.981   1.694  1.7179  1.1964  0.2397
 1458TIP3    H225790   5.854   2.052   1.569 -2.0589  0.9814 -1.4201
 1459TIP3   OH225791   3.567   0.051  13.588  0.1352 -0.0462  0.5406
 1459TIP3    H125792   3.477   0.047  13.557 -0.1586 -1.2864  1.4611
 1459TIP3    H225793   3.560   0.060  13.683  0.8764 -2.8240  0.9515
 1460TIP3   OH225794   3.395   1.067   6.159  0.2852 -0.4742 -0.2263
 1460TIP3    H125795   3.406   1.161   6.147 -0.3394 -0.6034 -2.1533
 1460TIP3    H225796   3.464   1.028   6.105  0.3559 -1.1205  0.3279
 1461TIP3   OH225797   5.702   0.893  13.803 -0.0180 -0.0474  0.0436
 1461TIP3    H125798   5.729   0.973  13.759 -0.1580 -1.0377 -1.9619
 1461TIP3    H225799   5.671   0.836  13.732 -1.4943 -1.2603  1.5759
 1462TIP3   OH225800   5.239   0.837  11.969  0.5448 -0.0017  0.2983
 1462TIP3    H125801   5.144   0.833  11.971  0.5582 -1.0993  3.1507
 1462TIP3    H225802   5.265   0.766  11.910 -0.3770  0.5612 -0.8085
 1463TIP3   OH225803   6.670   1.488   3.905  0.3838 -0.1535  0.3241
 1463TIP3    H125804   6.660   1.526   3.993  1.3893  0.5718  0.1496
 1463TIP3    H225805   6.626   1.551   3.847  1.3671  0.3749  0.1205
 1464TIP3   OH225806   4.726   0.695  11.350  0.1442  0.2036  0.1761
 1464TIP3    H125807   4.795   0.757  11.326 -0.1695  0.4387 -0.1325
 1464TIP3    H225808   4.721   0.699  11.445  0.3182  0.4445  0.1738
 1465TIP3   OH225809   5.471   1.468   0.808  0.1364  0.3714  0.0733
 1465TIP3    H125810   5.514   1.548   0.837  2.2440  0.0143 -1.8115
 1465TIP3    H225811   5.480   1.408   0.882  1.0666  0.9905  0.4780
 1466TIP3   OH225812   0.796   2.743  12.226 -0.4648  0.0991  0.0082
 1466TIP3    H125813   0.783   2.649  12.222  0.3110 -0.2378  2.9667
 1466TIP3    H225814   0.742   2.778  12.155 -0.7353 -2.5317 -1.1956
 1467TIP3   OH225815   0.953   2.693  13.759 -0.7721  0.6190  0.2137
 1467TIP3    H125816   0.991   2.635  13.693  0.2864  0.2222  1.1433
 1467TIP3    H225817   0.864   2.709  13.728 -0.7055 -0.5773 -0.6625
 1468TIP3   OH225818   1.986   0.755   1.908  0.2921  0.9159  0.5148
 1468TIP3    H125819   2.014   0.746   1.999  1.5406  0.0215  0.0895
 1468TIP3    H225820   1.949   0.669   1.886 -1.3270  1.5757  0.5763
 1469TIP3   OH225821   6.021   6.112  16.018 -0.1571  0.0515  0.1701
 1469TIP3    H125822   6.100   6.106  16.073  0.7132  0.3266 -1.0211
 1469TIP3    H225823   6.020   6.203  15.989 -0.6759 -0.0668 -0.1793
 1470TIP3   OH225824   2.261   3.074   3.481  0.4391 -0.4437  0.0854
 1470TIP3    H125825   2.173   3.057   3.514  0.9323  1.9263  3.0566
 1470TIP3    H225826   2.250   3.144   3.417  0.0957 -0.7344 -0.1739
 1471TIP3   OH225827   2.463   2.368  13.777 -0.1153 -0.2848 -0.4269
 1471TIP3    H125828   2.476   2.281  13.813  0.9623 -0.6810 -1.6952
 1471TIP3    H225829   2.373   2.391  13.799 -0.1581 -1.3937  0.5854
 1472TIP3   OH225830   5.298   2.827  14.064 -0.3522 -0.0362  0.1966
 1472TIP3    H125831   5.289   2.784  13.979 -0.6134 -1.5681  0.9597
 1472TIP3    H225832   5.218   2.803  14.112  1.1503 -1.8370  1.9609
 1473TIP3   OH225833   4.078   3.823  15.082 -0.0521  0.1996 -0.1330
 1473TIP3    H125834   4.086   3.741  15.034 -1.2923  0.8929 -1.6224
 1473TIP3    H225835   4.039   3.884  15.019  2.7109  2.5605  0.2517
 1474TIP3   OH225836   1.680   6.438   3.788 -0.9058 -0.0580  0.5363
 1474TIP3    H125837   1.768   6.422   3.754 -1.1316 -0.6700  0.2309
 1474TIP3    H225838   1.669   6.533   3.780 -0.6294 -0.0822 -0.3182
 1475TIP3   OH225839   1.948   2.771   1.030 -0.0330 -0.3721  0.7370
 1475TIP3    H125840   1.985   2.851   0.993 -0.7296 -0.1830  0.4217
 1475TIP3    H225841   2.016   2.705   1.018  0.9945  0.4046  1.9788
 1476TIP3   OH225842   3.195   2.959  12.853  0.0719  0.3924 -0.3941
 1476TIP3    H125843   3.287   2.977  12.872  0.4810  0.2360 -2.0946
 1476TIP3    H225844   3.173   2.884  12.909  0.5311  1.2970  1.0656
 1477TIP3   OH225845   0.229   6.413  16.623  0.3292  0.1831  0.6178
 1477TIP3    H125846   0.206   6.438  16.712 -0.6576 -0.4813  0.5634
 1477TIP3    H225847   0.146   6.384  16.584  0.7873  0.2374 -0.4377
 1478TIP3   OH225848   0.546   4.563  12.352 -0.4479  0.3902  0.2700
 1478TIP3    H125849   0.504   4.485  12.387  1.9852 -1.5341 -0.7739
 1478TIP3    H225850   0.562   4.542  12.259  1.8875  1.3140  0.4001
 1479TIP3   OH225851   3.282   4.872  13.908  0.0405  0.1886 -0.2217
 1479TIP3    H125852   3.370   4.859  13.872  0.4978  2.0529  0.1131
 1479TIP3    H225853   3.265   4.965  13.897 -1.9918 -0.1608 -0.4257
 1480TIP3   OH225854   4.868   0.237   0.961  0.1141  0.0739  0.2292
 1480TIP3    H125855   4.811   0.248   0.885  2.5162  0.5944 -1.6046
 1480TIP3    H225856   4.810   0.248   1.037 -2.0613  1.1771 -1.5015
 1481TIP3   OH225857   2.538   2.127   1.398  0.8039 -0.5537 -0.2876
 1481TIP3    H125858   2.473   2.058   1.387 -1.0192  0.9908  0.3088
 1481TIP3    H225859   2.568   2.146   1.309 -0.0757 -0.8160 -0.6531
 1482TIP3   OH225860   1.176   0.126  12.781  0.1101  0.3479 -0.2502
 1482TIP3    H125861   1.253   0.140  12.727  0.5810  1.1837  0.6121
 1482TIP3    H225862   1.191   0.042  12.824 -0.2038 -0.2545 -1.2797
 1483TIP3   OH225863   6.745   3.474   0.597  0.5665  0.3336 -0.4993
 1483TIP3    H125864   6.785   3.554   0.631  0.4427  0.8390 -1.5093
 1483TIP3    H225865   6.758   3.479   0.502  0.4864 -0.8094 -0.5869
 1484TIP3   OH225866   0.673   6.040  15.717 -0.0741 -0.4224  0.4053
 1484TIP3    H125867   0.599   5.980  15.720 -1.1368  0.8396  0.2393
 1484TIP3    H225868   0.669   6.079  15.629  1.4255 -1.1004 -0.0019
 1485TIP3   OH225869   2.434   1.042   6.369  0.1667 -0.7397 -0.3421
 1485TIP3    H125870   2.426   1.058   6.463  1.9085  0.3375 -0.3434
 1485TIP3    H225871   2.351   1.001   6.345 -0.7828  0.0438  1.4279
 1486TIP3   OH225872   6.409   5.316  11.517  0.0361  0.4018  0.4175
 1486TIP3    H125873   6.395   5.354  11.431  3.5402 -1.1541 -1.0227
 1486TIP3    H225874   6.340   5.250  11.526 -0.1854  0.3706 -1.3077
 1487TIP3   OH225875   4.686   2.511   5.022 -0.2198 -0.1128 -0.4734
 1487TIP3    H125876   4.693   2.541   5.113 -0.0913  0.6016 -0.7172
 1487TIP3    H225877   4.737   2.574   4.972 -0.2343 -0.5463 -1.0373
 1488TIP3   OH225878   4.251   2.343  11.674  0.3062  0.6201  0.0147
 1488TIP3    H125879   4.174   2.311  11.722  0.5430  1.9005  1.3320
 1488TIP3    H225880   4.235   2.436  11.663  0.3697  0.4151 -2.3105
 1489TIP3   OH225881   5.369   6.167   1.209  0.1686 -0.3778  0.3024
 1489TIP3    H125882   5.423   6.188   1.133 -1.3478 -0.9139 -1.0135
 1489TIP3    H225883   5.398   6.079   1.235  2.2034  0.6705  1.8099
 1490TIP3   OH225884   2.362   0.112  13.445 -0.8032  0.2223 -0.1764
 1490TIP3    H125885   2.366   0.019  13.466 -0.4674  0.1345 -0.6363
 1490TIP3    H225886   2.442   0.130  13.397 -0.9153  0.7271 -0.1837
 1491TIP3   OH225887   0.143   1.955   5.941  0.0890 -0.3272 -0.0390
 1491TIP3    H125888   0.156   2.037   5.893  1.9979 -1.5610 -1.8061
 1491TIP3    H225889   0.121   1.983   6.030  0.1965  2.0822 -0.6834
 1492TIP3   OH225890   2.460   4.825  15.920  0.2750 -0.1343  0.6322
 1492TIP3    H125891   2.393   4.850  15.984  0.6807  1.3149  0.5179
 1492TIP3    H225892   2.538   4.807  15.972  0.0285 -1.0744  0.6999
 1493TIP3   OH225893   5.127   3.169  14.152 -0.1730  0.3442 -0.1407
 1493TIP3    H125894   5.097   3.183  14.241 -1.0237 -0.5127 -0.2803
 1493TIP3    H225895   5.222   3.173  14.157 -0.1458 -1.2699  1.0830
 1494TIP3   OH225896   2.795   2.639   5.461  0.4057  0.3746  0.3925
 1494TIP3    H125897   2.739   2.716   5.466 -0.8653 -0.5238  0.2805
 1494TIP3    H225898   2.881   2.674   5.438 -0.0226  1.8038  0.8818
 1495TIP3   OH225899   3.674   2.244   2.220  0.0760 -0.1491  0.7416
 1495TIP3    H125900   3.613   2.314   2.241 -2.1942 -2.5015  2.5616
 1495TIP3    H225901   3.656   2.223   2.128  0.6922  1.4735  0.2155
 1496TIP3   OH225902   6.068   0.789  13.163  0.6423  0.1201 -0.1540
 1496TIP3    H125903   6.059   0.838  13.082  2.2509 -0.8925 -0.9937
 1496TIP3    H225904   6.061   0.855  13.232 -2.4069  0.7829 -0.9591
 1497TIP3   OH225905   2.523   5.919  15.579 -0.6284 -0.4194 -0.2921
 1497TIP3    H125906   2.613   5.949  15.590 -0.6048 -0.9915  1.4710
 1497TIP3    H225907   2.525   5.828  15.610 -1.9801 -0.1481  0.6824
 1498TIP3   OH225908   0.564   4.820  12.354 -0.1451  0.4132  0.5687
 1498TIP3    H125909   0.552   4.727  12.369  0.0538  0.1574 -0.7920
 1498TIP3    H225910   0.476   4.852  12.332  0.1252  0.1437 -0.9860
 1499TIP3   OH225911   2.322   1.867  12.298 -0.2980  0.1761  0.2506
 1499TIP3    H125912   2.364   1.836  12.218  0.2106 -1.5701  1.1466
 1499TIP3    H225913   2.228   1.866  12.278 -0.1393  0.2734 -0.5022
 1500TIP3   OH225914   6.534   6.110   3.473  0.3457  0.3855 -0.4142
 1500TIP3    H125915   6.628   6.129   3.478  0.6766 -1.3609  1.0811
 1500TIP3    H225916   6.513   6.071   3.558 -1.9801  1.6663 -0.3361
 1501TIP3   OH225917   5.779   1.418  16.870  0.0787  0.7093  0.7356
 1501TIP3    H125918   5.769   1.326  16.897 -1.0513  0.7340  0.4623
 1501TIP3    H225919   5.789   1.413  16.775  1.1712  0.8162  0.8252
 1502TIP3   OH225920   2.511   2.856   2.809  0.7197 -0.0711 -0.2476
 1502TIP3    H125921   2.601   2.885   2.792 -0.0401  1.5477 -1.7978
 1502TIP3    H225922   2.492   2.886   2.898  1.9358 -1.1636  0.4291
 1503TIP3   OH225923   6.617   4.183  14.324  0.4634 -0.4958  0.0865
 1503TIP3    H125924   6.617   4.193  14.228  0.4830 -1.7119 -0.0600
 1503TIP3    H225925   6.549   4.118  14.341  1.2197 -1.1199  0.7944
 1504TIP3   OH225926   6.105   5.656  14.325 -0.1280  0.0821  0.2617
 1504TIP3    H125927   6.072   5.711  14.395 -1.5149  1.0796 -1.1131
 1504TIP3    H225928   6.184   5.616  14.361  0.7440  2.6726  1.4451
 1505TIP3   OH225929   2.335   6.018  15.423  0.4313 -0.5976 -0.7258
 1505TIP3    H125930   2.377   6.035  15.339 -1.0674 -1.9599 -1.8091
 1505TIP3    H225931   2.403   5.978  15.477  1.6232  0.9741 -0.9722
 1506TIP3   OH225932   0.904   0.261  13.217 -0.4088  0.0661  0.0876
 1506TIP3    H125933   0.871   0.350  13.214 -0.1329  0.2100 -3.9592
 1506TIP3    H225934   0.837   0.212  13.266  0.1782  2.5937  3.7628
 1507TIP3   OH225935   2.496   2.996   0.842 -0.6742 -0.2466 -0.4091
 1507TIP3    H125936   2.505   2.937   0.766 -0.2819 -0.0189 -0.5453
 1507TIP3    H225937   2.549   2.955   0.910  0.5628  0.5284 -0.8655
 1508TIP3   OH225938   0.952   5.317  13.758 -0.0371 -0.3865 -0.3281
 1508TIP3    H125939   1.031   5.368  13.742 -0.5157  0.0311 -1.4398
 1508TIP3    H225940   0.942   5.264  13.679 -1.1426 -0.0595 -0.4182
 1509TIP3   OH225941   2.691   2.855  11.392 -0.2654  0.5135  0.0422
 1509TIP3    H125942   2.711   2.857  11.298 -2.0020 -0.8091 -0.4128
 1509TIP3    H225943   2.648   2.771  11.405  0.0076  0.6412  2.0700
 1510TIP3   OH225944   2.808   0.272  12.370 -0.2167  0.0293 -0.3934
 1510TIP3    H125945   2.843   0.192  12.331 -0.9829 -0.3042 -0.4181
 1510TIP3    H225946   2.713   0.262  12.365 -0.3256  0.6793  0.1390
 1511TIP3   OH225947   2.069   1.356  12.612 -0.2492 -0.0566  0.4408
 1511TIP3    H125948   2.084   1.352  12.518 -1.6468  0.5349  0.1722
 1511TIP3    H225949   1.997   1.295  12.628 -0.9413  0.8505  0.9058
 1512TIP3   OH225950   3.353   6.431  15.289 -0.0923 -0.0304 -0.2884
 1512TIP3    H125951   3.417   6.387  15.346 -0.0316 -0.0986 -0.4082
 1512TIP3    H225952   3.399   6.508  15.256 -0.5603  0.7263  0.7767
 1513TIP3   OH225953   6.404   5.411   4.808  0.1399 -0.1306 -0.1448
 1513TIP3    H125954   6.369   5.352   4.874  2.1137 -0.1416  0.9845
 1513TIP3    H225955   6.427   5.490   4.856  1.7077 -0.1717 -0.7435
 1514TIP3   OH225956   6.575   2.607   4.957  0.3280 -0.2567 -0.2692
 1514TIP3    H125957   6.640   2.548   4.920 -0.6588 -0.8504 -1.1294
 1514TIP3    H225958   6.602   2.694   4.929  0.1235 -0.6111 -1.6208
 1515TIP3   OH225959   1.305   2.470  14.330  0.5341 -0.2244 -0.4105
 1515TIP3    H125960   1.230   2.458  14.272  0.9060 -0.9743 -0.7443
 1515TIP3    H225961   1.314   2.565  14.337  0.6248 -0.1036 -1.7800
 1516TIP3   OH225962   4.127   2.324   0.889 -0.2169  0.3016 -0.0859
 1516TIP3    H125963   4.096   2.359   0.972 -1.5848  0.6332 -0.7027
 1516TIP3    H225964   4.071   2.249   0.871 -0.0763  0.3521 -0.7995
 1517TIP3   OH225965   4.603   6.405  15.697  0.1562 -0.1521 -0.1441
 1517TIP3    H125966   4.654   6.413  15.616  0.2696 -0.0039 -0.0597
 1517TIP3    H225967   4.621   6.487  15.744  2.0500 -1.2327  1.1406
 1518TIP3   OH225968   6.040   0.810   2.942 -0.5255  0.5121 -0.3695
 1518TIP3    H125969   5.950   0.803   2.976 -0.8101  0.3857 -1.1303
 1518TIP3    H225970   6.085   0.866   3.005 -0.9697  0.0628  0.3561
 1519TIP3   OH225971   2.292   3.185  12.840  0.0292  0.1607 -0.0593
 1519TIP3    H125972   2.274   3.274  12.870  0.4239  0.4127 -0.5369
 1519TIP3    H225973   2.382   3.189  12.808 -0.2922 -0.1411 -1.0405
 1520TIP3   OH225974   5.985   5.482  16.215 -0.2488 -0.4789  0.2423
 1520TIP3    H125975   6.061   5.425  16.231  0.2903  0.5022  1.3612
 1520TIP3    H225976   5.996   5.514  16.126  0.4909 -0.5974  0.2875
 1521TIP3   OH225977   0.062   0.152  12.564  1.0543 -0.7782 -0.2137
 1521TIP3    H125978   0.137   0.117  12.516  1.0430 -2.5216  0.9438
 1521TIP3    H225979   0.079   0.129  12.656 -1.7708 -3.0296 -0.1022
 1522TIP3   OH225980   2.130   2.974  15.254 -0.5210 -0.0620 -0.3195
 1522TIP3    H125981   2.041   2.943  15.237 -0.9178  0.6158  0.4431
 1522TIP3    H225982   2.152   2.938  15.340  0.4439 -1.2832 -1.0579
 1523TIP3   OH225983   3.707   6.563   2.772 -0.1079  0.7851 -0.3717
 1523TIP3    H125984   3.787   6.582   2.724  0.7638  0.0137  0.7307
 1523TIP3    H225985   3.694   6.469   2.760 -1.2475  1.0137 -1.1052
 1524TIP3   OH225986   2.481   6.687  15.375  0.4600 -0.1410 -0.0160
 1524TIP3    H125987   2.517   6.657  15.459 -1.0872 -1.7361  0.1355
 1524TIP3    H225988   2.463   6.606  15.327 -1.1277  0.6579 -0.8280
 1525TIP3   OH225989   3.122   4.689   3.701  0.1255  0.3029 -0.2981
 1525TIP3    H125990   3.141   4.736   3.782  1.0734 -0.3553 -0.1252
 1525TIP3    H225991   3.193   4.712   3.642 -0.3117  0.4079 -0.7879
 1526TIP3   OH225992   5.947   2.542   5.512  0.1325  0.4162 -0.4389
 1526TIP3    H125993   5.981   2.624   5.546  1.7646 -0.2182 -0.4595
 1526TIP3    H225994   5.953   2.480   5.584  3.3683 -0.8658 -1.6227
 1527TIP3   OH225995   3.246   0.583  15.483  0.0880  0.0114 -0.1018
 1527TIP3    H125996   3.242   0.495  15.445  1.5684  0.7325 -2.0901
 1527TIP3    H225997   3.194   0.637  15.423  0.7590  0.8186  0.0301
 1528TIP3   OH225998   4.717   1.081  12.068 -0.0806 -0.4051 -0.2964
 1528TIP3    H125999   4.810   1.070  12.087  0.1353  0.2171 -0.9273
 1528TIP3    H226000   4.715   1.131  11.986 -0.9732  0.2467  0.1051
 1529TIP3   OH226001   6.103   4.495   5.623 -0.8179  0.1337  0.3727
 1529TIP3    H126002   6.155   4.540   5.557 -0.9440  1.0009  0.8575
 1529TIP3    H226003   6.160   4.425   5.655 -0.7116 -0.2251 -0.5578
 1530TIP3   OH226004   0.275   0.819  13.470  0.3435 -0.3532  0.2095
 1530TIP3    H126005   0.287   0.893  13.410 -1.3734  2.5035  3.0477
 1530TIP3    H226006   0.362   0.783  13.482  1.2762  1.3076 -1.1995
 1531TIP3   OH226007   2.040   5.234  12.613 -0.0201 -0.1581 -0.4542
 1531TIP3    H126008   2.023   5.141  12.595  2.1059 -0.6124 -0.4390
 1531TIP3    H226009   1.979   5.256  12.684  0.1545 -1.8722  0.2832
 1532TIP3   OH226010   1.269   1.966  17.098 -0.5153  0.3532 -0.4511
 1532TIP3    H126011   1.217   1.919  17.033  2.0032  0.1660 -2.5334
 1532TIP3    H226012   1.317   2.031  17.047  0.4576  1.2217  1.4781
 1533TIP3   OH226013   0.556   0.141   5.925  0.5432 -0.1903 -0.0924
 1533TIP3    H126014   0.593   0.177   5.844  1.9283  2.5749  1.5897
 1533TIP3    H226015   0.473   0.188   5.936  0.7943  0.1367  0.4854
 1534TIP3   OH226016   5.333   5.343   3.740 -0.1529  0.1188  0.7153
 1534TIP3    H126017   5.288   5.279   3.685 -0.2748  0.6303  0.2065
 1534TIP3    H226018   5.425   5.320   3.734 -0.1110  0.4790 -0.1239
 1535TIP3   OH226019   0.395   2.120  15.397  0.2255 -0.4537 -0.2023
 1535TIP3    H126020   0.431   2.200  15.435  0.3520 -0.6657  0.1261
 1535TIP3    H226021   0.427   2.050  15.454 -1.8724 -0.5373  0.9596
 1536TIP3   OH226022   0.809   3.381   4.915  0.4228  0.0590  0.2345
 1536TIP3    H126023   0.899   3.405   4.938  1.6879 -2.7338 -1.2598
 1536TIP3    H226024   0.792   3.429   4.833  0.9172 -0.0973  0.0370
 1537TIP3   OH226025   4.067   0.327  10.913 -0.1032  0.0697 -0.0924
 1537TIP3    H126026   3.996   0.369  10.864 -1.1009  0.0562  1.2982
 1537TIP3    H226027   4.027   0.252  10.956  0.1184  1.4039  2.6627
 1538TIP3   OH226028   1.992   6.051   0.911  0.7308 -0.2078 -0.2598
 1538TIP3    H126029   2.049   6.128   0.920 -0.1140  0.5468 -1.1367
 1538TIP3    H226030   1.923   6.080   0.852 -0.3668 -1.2222  0.5019
 1539TIP3   OH226031   2.645   1.879  11.714  0.4216  0.0229  0.1231
 1539TIP3    H126032   2.705   1.813  11.749  0.7415  0.6296  0.7626
 1539TIP3    H226033   2.696   1.924  11.646 -0.0427 -0.8461 -0.8387
 1540TIP3   OH226034   4.398   0.544  12.329 -0.0392 -0.2789  0.3496
 1540TIP3    H126035   4.330   0.554  12.262 -0.4203  1.2343  0.9284
 1540TIP3    H226036   4.455   0.476  12.294 -1.6174 -1.3108 -0.3425
 1541TIP3   OH226037   2.959   4.223  14.458 -0.3875 -0.3976 -0.2245
 1541TIP3    H126038   2.908   4.291  14.502 -0.6844  0.0955 -1.2808
 1541TIP3    H226039   3.049   4.240  14.484 -0.0942  2.0427 -2.3873
 1542TIP3   OH226040   6.508   1.891  14.932  0.2210  0.0272 -0.2898
 1542TIP3    H126041   6.580   1.943  14.968  0.5726 -0.0152 -0.9075
 1542TIP3    H226042   6.501   1.816  14.990  2.1183 -1.0808 -1.4034
 1543TIP3   OH226043   5.742   2.539  14.812 -0.1127  0.0306  0.2945
 1543TIP3    H126044   5.713   2.494  14.732 -0.9819 -0.2003  0.7328
 1543TIP3    H226045   5.817   2.591  14.783  0.1648 -0.7617 -0.4779
 1544TIP3   OH226046   2.515   2.734   3.918 -0.0228 -0.2348  0.2525
 1544TIP3    H126047   2.461   2.666   3.958  1.2656 -0.7294  1.1788
 1544TIP3    H226048   2.565   2.771   3.990  0.9081  0.2020 -0.5964
 1545TIP3   OH226049   3.406   4.966   3.619  0.5307 -0.2418 -0.1048
 1545TIP3    H126050   3.446   5.052   3.633 -0.1847  0.3188 -1.3466
 1545TIP3    H226051   3.314   4.979   3.642  0.4653 -0.7522 -0.0635
 1546TIP3   OH226052   3.282   1.589   4.512  0.2153  0.4486  0.2604
 1546TIP3    H126053   3.333   1.655   4.559  0.0797  0.5645  0.2419
 1546TIP3    H226054   3.233   1.638   4.447  0.9436  0.2169 -0.4840
 1547TIP3   OH226055   2.444   0.157   4.015 -0.4313  0.2277  0.0892
 1547TIP3    H126056   2.514   0.136   4.078 -0.2341  0.8895  0.0973
 1547TIP3    H226057   2.447   0.085   3.952 -0.2217 -0.1240  0.4916
 1548TIP3   OH226058   1.338   1.091   4.504  0.2463 -0.1593  0.2311
 1548TIP3    H126059   1.405   1.035   4.466 -0.7892 -1.8659  0.7823
 1548TIP3    H226060   1.331   1.061   4.595 -1.0376  0.1562  0.2596
 1549TIP3   OH226061   6.701   6.043  16.105  0.0371 -0.2569  0.5223
 1549TIP3    H126062   6.685   5.949  16.110 -1.5696  0.0567  2.8331
 1549TIP3    H226063   6.708   6.071  16.196  2.3681  1.6092 -0.1411
 1550TIP3   OH226064   3.262   3.494   2.893 -0.2408 -0.1141  0.1972
 1550TIP3    H126065   3.303   3.468   2.976  0.4223  0.7628  0.1589
 1550TIP3    H226066   3.260   3.414   2.841  0.3343 -0.4380  0.6564
 1551TIP3   OH226067   3.621   0.558  11.646  0.3833 -0.1353 -0.1423
 1551TIP3    H126068   3.609   0.464  11.647  0.3971 -0.1329  0.7484
 1551TIP3    H226069   3.608   0.586  11.736 -2.3717  1.0805 -0.8081
 1552TIP3   OH226070   0.020   5.310   1.314  0.4981 -0.1854 -0.5810
 1552TIP3    H126071   0.030   5.215   1.314 -0.5554 -0.3338  1.1120
 1552TIP3    H226072  -0.067   5.325   1.350  1.6610  1.4686  1.8598
 1553TIP3   OH226073   1.232   5.927   3.577  0.7630  0.4988 -0.0394
 1553TIP3    H126074   1.159   5.954   3.521  1.0629 -0.2251 -0.8097
 1553TIP3    H226075   1.196   5.858   3.632  0.6825  0.6321  0.0748
 1554TIP3   OH226076   3.424   2.369  15.604  0.1516  0.4701  0.1010
 1554TIP3    H126077   3.392   2.334  15.521  0.1980  1.9490 -0.5846
 1554TIP3    H226078   3.513   2.397  15.585  1.1868 -1.6678  1.4273
 1555TIP3   OH226079   2.751   0.877  14.278 -0.4537  0.1434  0.4051
 1555TIP3    H126080   2.710   0.825  14.209 -0.8128 -2.3854  2.3759
 1555TIP3    H226081   2.844   0.856  14.272 -0.3353  0.7543  0.0430
 1556TIP3   OH226082   5.268   5.223   0.985 -0.2952 -0.1982  0.3375
 1556TIP3    H126083   5.334   5.254   1.047 -0.8851  1.6634  0.1050
 1556TIP3    H226084   5.244   5.136   1.017  1.8977 -0.7301  0.6838
 1557TIP3   OH226085   6.025   5.542   4.859  0.0491 -0.3550  0.9612
 1557TIP3    H126086   5.993   5.452   4.870  0.4605 -0.5844  0.3425
 1557TIP3    H226087   6.047   5.571   4.948 -3.1223  0.3105  1.6483
 1558TIP3   OH226088   4.423   5.614  12.099 -0.5296  0.4898  0.0909
 1558TIP3    H126089   4.359   5.686  12.104 -0.0085  1.0065 -0.5363
 1558TIP3    H226090   4.473   5.632  12.020  1.7666  1.2756  1.6014
 1559TIP3   OH226091   0.453   1.994  12.013 -0.0102 -0.3056  0.5271
 1559TIP3    H126092   0.389   1.942  11.964 -0.0562 -1.2317  1.5116
 1559TIP3    H226093   0.462   2.075  11.964 -1.5365 -0.3868  0.0787
 1560TIP3   OH226094   5.116   4.430  11.487  0.1057 -0.1333  0.4280
 1560TIP3    H126095   5.169   4.493  11.537  0.2569  1.6723 -1.8205
 1560TIP3    H226096   5.180   4.382  11.434 -0.2699  0.9587 -1.1145
 1561TIP3   OH226097   4.979   5.703   1.292  0.5090  0.3960 -0.4334
 1561TIP3    H126098   4.985   5.750   1.209  1.7794  0.1257 -0.5081
 1561TIP3    H226099   4.891   5.724   1.325  0.7777  2.2598 -0.7927
 1562TIP3   OH226100   2.592   2.502  11.750  0.6436  0.1956 -0.2512
 1562TIP3    H126101   2.685   2.522  11.749  0.7728 -0.2582  0.9293
 1562TIP3    H226102   2.584   2.418  11.704  0.9268 -0.1614  0.3469
 1563TIP3   OH226103   6.115   4.218   3.080  0.3620 -0.2456 -0.2024
 1563TIP3    H126104   6.171   4.143   3.058 -1.1908 -1.0499 -1.6091
 1563TIP3    H226105   6.106   4.214   3.175  1.5886 -0.8798 -0.0920
 1564TIP3   OH226106   3.886   0.693   0.344 -0.1262 -0.6289  0.0508
 1564TIP3    H126107   3.882   0.733   0.257 -0.1184 -1.2380 -0.2401
 1564TIP3    H226108   3.846   0.757   0.402 -2.8492 -1.4260 -0.8334
 1565TIP3   OH226109   0.514   4.291  16.606  0.1307  0.1851  0.1235
 1565TIP3    H126110   0.565   4.295  16.687  1.1694 -3.2819 -0.2081
 1565TIP3    H226111   0.537   4.371  16.559  4.9590 -0.8587  0.2297
 1566TIP3   OH226112   6.050   2.319   5.684 -0.2397  0.5283  0.3127
 1566TIP3    H126113   6.145   2.325   5.691 -0.1293  1.7139 -1.5622
 1566TIP3    H226114   6.019   2.328   5.773  1.3979  0.0170  0.9765
 1567TIP3   OH226115   6.402   2.818  10.718 -1.1435  0.1585 -0.1089
 1567TIP3    H126116   6.385   2.777  10.803  2.2712 -0.6360  0.3476
 1567TIP3    H226117   6.352   2.766  10.655  0.4643 -2.7589  0.8518
 1568TIP3   OH226118   4.543   3.943  16.747  0.1493 -0.2772 -0.0877
 1568TIP3    H126119   4.630   3.932  16.785  0.2116 -0.1767 -0.1980
 1568TIP3    H226120   4.540   3.881  16.675 -0.1194 -0.7585  0.3313
 1569TIP3   OH226121   6.480   2.260  16.551  0.3033  0.4081 -0.5994
 1569TIP3    H126122   6.480   2.331  16.487 -0.9009  0.7528 -0.2333
 1569TIP3    H226123   6.391   2.224  16.548  0.6220 -0.4676 -0.0876
 1570TIP3   OH226124   2.110   3.867   5.778  0.1718  0.1614  0.5010
 1570TIP3    H126125   2.201   3.839   5.786  0.5895  1.5614  0.7619
 1570TIP3    H226126   2.094   3.869   5.683  0.5927  0.4848  0.4351
 1571TIP3   OH226127   2.359   0.615   4.457  0.3003  0.4253  0.4179
 1571TIP3    H126128   2.387   0.678   4.523  0.9756  0.7481 -0.1707
 1571TIP3    H226129   2.416   0.631   4.382  2.4664 -2.7704  1.2063
 1572TIP3   OH226130   3.170   4.039  14.763  0.4066 -0.2108 -0.0782
 1572TIP3    H126131   3.255   4.061  14.724 -0.1179  1.2276 -0.4662
 1572TIP3    H226132   3.126   4.123  14.773 -1.4459 -1.0242 -0.9787
 1573TIP3   OH226133   4.095   4.827  10.924  0.9508  0.0198  0.2936
 1573TIP3    H126134   4.154   4.766  10.968  0.7523 -2.4884 -2.5549
 1573TIP3    H226135   4.151   4.876  10.864  0.6227  0.0554  0.0088
 1574TIP3   OH226136   4.679   5.361   2.207 -0.3496 -0.0250 -0.2414
 1574TIP3    H126137   4.685   5.269   2.182 -0.1664 -0.0294 -0.1841
 1574TIP3    H226138   4.673   5.408   2.124  1.6271  0.0672 -0.3876
 1575TIP3   OH226139   1.553   3.965  13.418  0.6545 -0.7551 -0.1807
 1575TIP3    H126140   1.515   4.005  13.496  1.1585 -2.8147  1.2050
 1575TIP3    H226141   1.555   4.035  13.353 -1.0376  0.6666  1.2107
 1576TIP3   OH226142   2.942   5.329   0.231 -0.2326 -0.0686  0.0336
 1576TIP3    H126143   2.896   5.408   0.201 -0.6644 -1.1111 -2.2587
 1576TIP3    H226144   2.882   5.288   0.293 -1.2135  0.0361 -0.8207
 1577TIP3   OH226145   3.468   0.688  12.512  0.3943 -0.4633 -0.1382
 1577TIP3    H126146   3.392   0.665  12.565  0.7253 -0.7711  0.2049
 1577TIP3    H226147   3.450   0.648  12.427 -0.0035 -0.2058 -0.1792
 1578TIP3   OH226148   1.497   4.436   3.197  0.0483  0.1734  0.3014
 1578TIP3    H126149   1.519   4.467   3.109 -1.9582  0.8911 -0.0117
 1578TIP3    H226150   1.452   4.511   3.238 -3.2536 -1.5648  0.2169
 1579TIP3   OH226151   3.934   3.992  12.005 -0.3858  0.0587 -0.4857
 1579TIP3    H126152   4.015   3.946  12.023 -0.5515 -0.3126 -0.6728
 1579TIP3    H226153   3.888   3.994  12.088  0.0409  0.7227 -0.2620
 1580TIP3   OH226154   4.672   1.372  17.153 -0.0612  0.0305 -0.2172
 1580TIP3    H126155   4.667   1.311  17.227  0.7624  0.4777  0.2119
 1580TIP3    H226156   4.692   1.457  17.192  1.3833  0.0880 -1.0133
 1581TIP3   OH226157   6.074   3.684  12.566 -0.9376  0.1126 -0.2234
 1581TIP3    H126158   6.152   3.718  12.523 -1.0699  1.1864  0.3689
 1581TIP3    H226159   6.083   3.589  12.560 -0.3178  0.2307 -1.4563
 1582TIP3   OH226160   2.978   2.569  12.766  0.6668  0.2322 -0.2126
 1582TIP3    H126161   2.941   2.507  12.703  0.0189  0.7080 -0.3130
 1582TIP3    H226162   2.948   2.655  12.735  1.4028  0.5826  0.0270
 1583TIP3   OH226163   4.945   0.883  10.874 -0.2777  0.2758  0.0258
 1583TIP3    H126164   4.885   0.878  10.948 -0.1963  0.5457  0.1144
 1583TIP3    H226165   4.910   0.954  10.819  0.1379  0.6633  0.2480
 1584TIP3   OH226166   3.610   5.567   1.762 -0.1799 -0.0784  0.4019
 1584TIP3    H126167   3.632   5.555   1.670 -1.9291  0.1622 -0.0785
 1584TIP3    H226168   3.679   5.624   1.796 -0.3664  1.1582 -1.1760
 1585TIP3   OH226169   1.960   6.044   3.712  0.0659 -0.2374  0.0869
 1585TIP3    H126170   1.970   6.066   3.805  1.6157  0.6885 -0.2600
 1585TIP3    H226171   2.049   6.048   3.677 -0.5132 -0.4092 -1.4853
 1586TIP3   OH226172   1.608   0.697   1.276  0.2183  0.0636  0.6498
 1586TIP3    H126173   1.645   0.635   1.212  1.0763  0.3596  0.8429
 1586TIP3    H226174   1.619   0.654   1.360 -0.4785 -0.1210  0.6492
 1587TIP3   OH226175   6.503   5.220   0.808  0.0637 -0.4545  0.0779
 1587TIP3    H126176   6.582   5.199   0.858  0.5761 -0.5279 -0.7352
 1587TIP3    H226177   6.446   5.264   0.870  1.6349  1.6296  0.1544
 1588TIP3   OH226178   1.193   2.357   5.497 -0.0668 -0.2911 -0.2607
 1588TIP3    H126179   1.111   2.311   5.514  0.1094 -1.1883 -1.6416
 1588TIP3    H226180   1.174   2.448   5.517 -1.1037 -0.6341  0.3921
 1589TIP3   OH226181   1.634   4.361  12.716  0.0244  0.2354 -0.1349
 1589TIP3    H126182   1.685   4.386  12.639  3.4768 -1.2103  1.4511
 1589TIP3    H226183   1.617   4.443  12.761  2.1638  0.7553 -0.1396
 1590TIP3   OH226184   3.968   2.372   3.064 -0.0799 -0.5015  0.3396
 1590TIP3    H126185   4.040   2.309   3.058  0.2761 -0.1523  0.9005
 1590TIP3    H226186   3.889   2.318   3.062  0.1366 -0.8209 -1.5615
 1591TIP3   OH226187   4.362   0.161   0.423 -0.0003  0.2387 -0.2088
 1591TIP3    H126188   4.358   0.140   0.516  2.9402 -2.0927 -0.4788
 1591TIP3    H226189   4.410   0.244   0.419  1.8738 -0.7677  0.3323
 1592TIP3   OH226190   1.387   2.916   5.755 -0.3965 -0.4183  0.0604
 1592TIP3    H126191   1.427   2.988   5.803 -0.0357 -0.9825  0.6041
 1592TIP3    H226192   1.433   2.915   5.671 -0.8979  0.4424 -0.2443
 1593TIP3   OH226193   3.688   3.444  15.120  0.0908  0.2503  0.4218
 1593TIP3    H126194   3.675   3.494  15.200 -0.0781 -0.4109  0.8170
 1593TIP3    H226195   3.780   3.456  15.098 -0.1559  1.4913 -0.0163
 1594TIP3   OH226196   5.884   5.078  16.300  0.1229 -0.7080  0.2681
 1594TIP3    H126197   5.877   5.104  16.392 -1.3819 -0.3006  0.0650
 1594TIP3    H226198   5.841   4.993  16.295  0.1980 -0.7282 -0.0735
 1595TIP3   OH226199   6.156   6.366   4.982  0.4990 -0.4528 -0.3468
 1595TIP3    H126200   6.102   6.288   4.972 -0.5890  0.0467  1.3377
 1595TIP3    H226201   6.244   6.332   5.001  0.3393 -1.2463 -0.9353
 1596TIP3   OH226202   2.177   4.799  13.017 -0.3677  0.4776  0.1115
 1596TIP3    H126203   2.179   4.853  12.938  1.6466  0.9208  0.4014
 1596TIP3    H226204   2.264   4.811  13.056 -1.2281  0.0844  2.2788
 1597TIP3   OH226205   6.231   1.238  16.681  0.1080 -0.6502 -0.3714
 1597TIP3    H126206   6.193   1.325  16.680 -0.0273 -0.7091 -0.4786
 1597TIP3    H226207   6.310   1.246  16.735  1.3373  0.0635 -2.1705
 1598TIP3   OH226208   2.742   6.384  15.576  0.0098  0.1264  0.2084
 1598TIP3    H126209   2.818   6.348  15.621  1.7236 -0.7937 -3.0845
 1598TIP3    H226210   2.691   6.307  15.550 -1.3282  0.6664  1.1136
 1599TIP3   OH226211   2.420   3.471  13.968 -0.3024  0.0723 -0.1661
 1599TIP3    H126212   2.485   3.522  13.920  1.0540  0.0614  1.5483
 1599TIP3    H226213   2.372   3.535  14.019  0.0910 -0.1491  0.4988
 1600TIP3   OH226214   3.506   5.006  14.243 -0.4240  0.6079  0.1587
 1600TIP3    H126215   3.486   5.097  14.223 -1.4216 -0.1287 -2.6348
 1600TIP3    H226216   3.420   4.964  14.250  0.0352 -0.2904  0.5187
 1601TIP3   OH226217   1.446   3.107   4.801 -0.0026 -0.2951 -1.4881
 1601TIP3    H126218   1.521   3.155   4.767  0.1693 -0.2694 -1.0813
 1601TIP3    H226219   1.468   3.015   4.787  0.4873 -0.3241 -0.6075
 1602TIP3   OH226220   0.209   4.674   3.213  0.6349 -0.1884  0.1512
 1602TIP3    H126221   0.184   4.767   3.218  0.0423 -0.2512 -1.1245
 1602TIP3    H226222   0.247   4.665   3.126 -0.1003 -1.3243 -0.0756
 1603TIP3   OH226223   3.455   3.411  14.076  0.0041  0.3387  0.3423
 1603TIP3    H126224   3.523   3.423  14.142  0.4177  0.5353 -0.1191
 1603TIP3    H226225   3.384   3.468  14.105 -0.5759 -0.9744  1.6387
 1604TIP3   OH226226   0.298   2.736   1.689  0.0972  0.3330 -1.3087
 1604TIP3    H126227   0.230   2.799   1.711 -0.5331  0.7709 -4.1068
 1604TIP3    H226228   0.269   2.654   1.730 -0.1138  1.3381  0.6740
 1605TIP3   OH226229   3.235   5.151  13.876  0.1869  0.6311  0.4978
 1605TIP3    H126230   3.323   5.137  13.839 -0.4288 -0.9579 -0.5041
 1605TIP3    H226231   3.202   5.228  13.830  1.0063  1.1767  0.8044
 1606TIP3   OH226232   2.918   3.319   0.630  0.1585 -0.0710 -0.2669
 1606TIP3    H126233   2.902   3.412   0.613 -0.6244 -0.3793 -1.3348
 1606TIP3    H226234   2.989   3.318   0.694 -0.5433  1.2769  0.5752
 1607TIP3   OH226235   3.398   3.527   4.391 -0.1854  0.2731  0.2112
 1607TIP3    H126236   3.465   3.505   4.456  1.1265 -1.1314 -1.5181
 1607TIP3    H226237   3.319   3.482   4.422  1.0930 -2.6761 -0.4620
 1608TIP3   OH226238   1.392   5.284  17.016  0.0745 -0.2173  0.2693
 1608TIP3    H126239   1.306   5.288  16.973  0.0303  0.4118  0.4073
 1608TIP3    H226240   1.445   5.229  16.958 -0.3992 -0.5578  0.1500
 1609TIP3   OH226241   2.473   6.555  16.985 -0.7567 -0.1018  0.3046
 1609TIP3    H126242   2.442   6.644  16.966  0.4106  0.2995  0.2508
 1609TIP3    H226243   2.479   6.552  17.080 -0.4494 -0.0029  0.2888
 1610TIP3   OH226244   3.366   5.258   4.127 -0.1842 -0.1440 -0.6390
 1610TIP3    H126245   3.314   5.301   4.194  0.9543  0.3225 -0.0286
 1610TIP3    H226246   3.420   5.328   4.089 -0.0188 -0.6034 -1.2711
 1611TIP3   OH226247   3.690   1.318  12.998  0.3560 -0.2868 -0.5151
 1611TIP3    H126248   3.635   1.382  12.953  0.2919 -1.4465 -2.1466
 1611TIP3    H226249   3.769   1.367  13.021 -0.2191  0.6943 -0.5909
 1612TIP3   OH226250   3.859   6.196   3.619 -0.8248  0.2763  0.0527
 1612TIP3    H126251   3.910   6.277   3.623  0.5112 -0.5498  0.2489
 1612TIP3    H226252   3.858   6.173   3.527  1.4008 -1.0416  0.2865
 1613TIP3   OH226253   3.968   1.648   6.018  0.0723  0.2945  0.0176
 1613TIP3    H126254   3.992   1.562   6.053  0.1974  0.0978 -0.5385
 1613TIP3    H226255   3.982   1.709   6.091  0.4985 -0.0812  0.2538
 1614TIP3   OH226256   4.450   5.671  13.549 -0.3956  0.4015  0.2958
 1614TIP3    H126257   4.540   5.638  13.542 -0.3691  0.5648 -0.1262
 1614TIP3    H226258   4.460   5.758  13.588 -0.3977  0.2992  0.5318
 1615TIP3   OH226259   0.024   3.714   5.824 -0.1641  0.1285  0.3755
 1615TIP3    H126260   0.018   3.716   5.919  1.0502 -1.0919  0.5150
 1615TIP3    H226261   0.115   3.691   5.806 -0.0632  1.4575 -1.1185
 1616TIP3   OH226262   3.496   1.281  15.268  0.4898  0.2079  0.0393
 1616TIP3    H126263   3.570   1.227  15.241 -0.8199 -1.8246  0.2964
 1616TIP3    H226264   3.442   1.222  15.321 -1.6167  1.4376 -0.6454
 1617TIP3   OH226265   1.769   1.720   6.073 -0.5189  0.3500  0.0873
 1617TIP3    H126266   1.795   1.637   6.112  1.0795 -0.1497 -1.8794
 1617TIP3    H226267   1.797   1.786   6.136  1.3071 -0.4549  0.1615
 1618TIP3   OH226268   1.407   6.712  15.342 -0.6398  0.3042 -0.0827
 1618TIP3    H126269   1.457   6.662  15.406 -0.2313  0.2049 -0.4788
 1618TIP3    H226270   1.371   6.646  15.282 -1.5070  0.3445  0.3726
 1619TIP3   OH226271   2.115   6.375   3.124 -0.0008 -0.0383 -0.0029
 1619TIP3    H126272   2.045   6.311   3.133  0.3891 -0.2375  2.0356
 1619TIP3    H226273   2.192   6.323   3.102  0.5932 -0.5419  2.8572
 1620TIP3   OH226274   2.303   2.650  11.182  0.1879 -0.5344  0.2586
 1620TIP3    H126275   2.376   2.706  11.209 -0.1499 -0.3403  0.7879
 1620TIP3    H226276   2.261   2.698  11.110  0.4688 -0.5572  0.0788
 1621TIP3   OH226277   3.455   3.596   4.735  0.1841 -0.9213 -0.0221
 1621TIP3    H126278   3.492   3.524   4.684  0.6862 -0.3366 -0.4864
 1621TIP3    H226279   3.493   3.585   4.822  2.8617  0.6315 -0.8849
 1622TIP3   OH226280   2.537   1.564   4.237 -0.1391 -0.0406 -0.0397
 1622TIP3    H126281   2.476   1.529   4.302 -1.6153  0.9128 -0.8824
 1622TIP3    H226282   2.604   1.495   4.229 -0.7837 -0.8678  1.3075
 1623TIP3   OH226283   6.675   4.909   3.817 -0.0362 -0.8280  0.1564
 1623TIP3    H126284   6.627   4.861   3.750  0.0122  0.4343 -0.8299
 1623TIP3    H226285   6.767   4.892   3.798 -0.0348 -1.1595  0.4453
 1624TIP3   OH226286   1.060   5.578  11.792  0.1103  0.1790 -0.4637
 1624TIP3    H126287   0.985   5.556  11.847  1.1123  0.0322  0.9025
 1624TIP3    H226288   1.049   5.526  11.713 -0.7849 -0.4637  0.0758
 1625TIP3   OH226289   1.327   2.889  14.571  0.0832 -0.1196  0.6345
 1625TIP3    H126290   1.337   2.978  14.537  2.0788 -0.9217 -1.1392
 1625TIP3    H226291   1.376   2.890  14.654  1.1856  0.1689  0.0099
 1626TIP3   OH226292   1.763   1.289   1.975 -0.3771  0.2136  0.0454
 1626TIP3    H126293   1.833   1.282   1.910  0.8020 -1.9055  1.4221
 1626TIP3    H226294   1.729   1.199   1.983 -1.5790  0.7399  1.2109
 1627TIP3   OH226295   3.921   0.594  10.530  0.2733 -0.1723 -0.1459
 1627TIP3    H126296   4.015   0.586  10.544  0.2257 -0.0421  0.2640
 1627TIP3    H226297   3.882   0.537  10.596  0.0572  0.0226 -0.1049
 1628TIP3   OH226298   2.601   3.165   1.546  0.8956  0.4092 -0.2796
 1628TIP3    H126299   2.607   3.220   1.623  1.5514  1.5327 -1.1081
 1628TIP3    H226300   2.532   3.206   1.493 -1.3399 -1.7217  0.7277
 1629TIP3   OH226301   4.271   0.171  13.185 -0.0350  0.0947  0.1712
 1629TIP3    H126302   4.337   0.105  13.165  0.4446  0.3245  0.9675
 1629TIP3    H226303   4.256   0.163  13.279 -0.4274  0.7009  0.1706
 1630TIP3   OH226304   3.512   2.440   2.391 -0.0798 -0.0352  0.2645
 1630TIP3    H126305   3.433   2.430   2.338 -1.2191 -0.7047  2.0062
 1630TIP3    H226306   3.496   2.518   2.444 -0.0034 -0.7152  1.3156
 1631TIP3   OH226307   1.046   3.856   3.623  0.5593 -1.3240  0.1085
 1631TIP3    H126308   1.013   3.903   3.701  2.4911 -0.8862  0.7030
 1631TIP3    H226309   1.086   3.777   3.657  1.2080 -1.2501 -0.4552
 1632TIP3   OH226310   5.788   2.592  16.564  0.3467  0.1249  0.0206
 1632TIP3    H126311   5.695   2.581  16.582 -0.0156  2.3699 -0.1730
 1632TIP3    H226312   5.830   2.592  16.650  0.1334 -0.5372  0.1291
 1633TIP3   OH226313   1.070   4.712  14.016  0.3950  0.4632  0.1208
 1633TIP3    H126314   1.034   4.724  13.928 -0.0950  1.0608  0.3890
 1633TIP3    H226315   1.071   4.801  14.053 -0.1362  0.1229  0.9920
 1634TIP3   OH226316   2.703   4.166   0.706 -0.1452  0.4536 -0.0287
 1634TIP3    H126317   2.640   4.095   0.723 -0.3089  0.6185  0.0591
 1634TIP3    H226318   2.689   4.228   0.777  1.1933 -0.2303  0.8640
 1635TIP3   OH226319   6.446   5.937  16.725  0.6434 -0.2448  0.2221
 1635TIP3    H126320   6.395   5.891  16.792  0.9480  0.6369  1.0848
 1635TIP3    H226321   6.382   5.988  16.676  0.7053  1.4035  1.7444
 1636TIP3   OH226322   2.048   4.175   5.573  0.3090 -0.5538  0.0767
 1636TIP3    H126323   2.067   4.213   5.659  0.8626  1.0454 -0.7028
 1636TIP3    H226324   1.954   4.188   5.562  0.4820  0.6484 -0.1644
 1637TIP3   OH226325   3.984   5.144  15.849 -0.3050 -0.3801 -0.2164
 1637TIP3    H126326   3.999   5.188  15.766 -2.0911 -1.6650 -1.2959
 1637TIP3    H226327   3.894   5.112  15.844 -0.0485 -1.6114  1.6862
 1638TIP3   OH226328   2.429   2.753  15.268  0.1515 -0.1722  0.3197
 1638TIP3    H126329   2.494   2.820  15.291 -0.9442  0.3275  2.1214
 1638TIP3    H226330   2.392   2.784  15.185  0.9844  0.4414  0.1582
 1639TIP3   OH226331   3.737   6.408  12.740 -0.1147  0.3839 -0.0467
 1639TIP3    H126332   3.738   6.390  12.834  0.7803 -0.6865 -0.2368
 1639TIP3    H226333   3.649   6.382  12.712  0.2143 -1.1121  0.2011
 1640TIP3   OH226334   2.701   4.957  16.988  0.2451 -0.0558  0.2746
 1640TIP3    H126335   2.730   4.899  17.058 -1.5310 -0.5282  0.6820
 1640TIP3    H226336   2.705   4.903  16.909 -0.3159 -0.3890  0.4678
 1641TIP3   OH226337   0.122   2.314  12.286 -0.4323  0.4036  0.1539
 1641TIP3    H126338   0.217   2.320  12.279 -0.2358 -2.0985 -0.1522
 1641TIP3    H226339   0.103   2.332  12.378  0.3043  1.1293  0.1675
 1642TIP3   OH226340   6.613   0.543  11.362  0.4287 -0.1746 -0.1563
 1642TIP3    H126341   6.669   0.466  11.357  0.4234 -0.1085 -1.9968
 1642TIP3    H226342   6.642   0.590  11.440  2.0932 -0.7917 -0.3726
 1643TIP3   OH226343   0.268   6.186  15.788  0.0408  0.3352 -0.4997
 1643TIP3    H126344   0.272   6.129  15.864 -2.0083 -0.6958 -1.1068
 1643TIP3    H226345   0.277   6.275  15.824 -0.4479 -0.1496  0.8827
 1644TIP3   OH226346   1.188   3.771   2.827 -0.1883 -0.6316  0.1345
 1644TIP3    H126347   1.279   3.784   2.854  0.5934 -1.0028 -2.1101
 1644TIP3    H226348   1.143   3.740   2.905  1.9013 -1.6521  0.9739
 1645TIP3   OH226349   0.028   0.068  14.514 -0.4874 -0.3561  0.1723
 1645TIP3    H126350  -0.016   0.127  14.453  0.4813  0.8411  0.5866
 1645TIP3    H226351  -0.042   0.037  14.572 -1.2060 -0.5620 -0.7829
 1646TIP3   OH226352   5.670   4.868   1.954 -0.0894 -0.2020 -0.3430
 1646TIP3    H126353   5.648   4.789   2.003 -1.1652  0.4427  0.2351
 1646TIP3    H226354   5.672   4.937   2.020 -1.7596  0.7202 -1.2020
 1647TIP3   OH226355   5.802   2.369  15.206 -0.2928 -0.0632  0.3309
 1647TIP3    H126356   5.778   2.281  15.177  1.8094 -0.8229  0.6805
 1647TIP3    H226357   5.734   2.425  15.170 -0.6523 -1.5928 -1.5795
 1648TIP3   OH226358   1.338   1.336   4.264 -0.0136 -0.0758  0.2928
 1648TIP3    H126359   1.263   1.355   4.208  0.1350 -0.8132 -0.1779
 1648TIP3    H226360   1.413   1.372   4.216  0.0210 -0.0158  0.3918
 1649TIP3   OH226361   4.946   0.334   5.120  0.6548  0.2383  0.5036
 1649TIP3    H126362   4.937   0.426   5.145  3.8753  1.1274 -1.0669
 1649TIP3    H226363   4.968   0.289   5.202 -1.1219  0.7693  1.3178
 1650TIP3   OH226364   3.465   6.033  14.396 -0.0464  0.2060  0.5063
 1650TIP3    H126365   3.542   6.066  14.442  0.1619  1.0225 -0.4168
 1650TIP3    H226366   3.433   6.107  14.345 -1.9977  0.1745  1.5709
 1651TIP3   OH226367   2.097   4.045   4.020 -0.4495 -0.6964  0.3201
 1651TIP3    H126368   2.101   4.129   3.975 -0.0154 -1.3564 -0.9277
 1651TIP3    H226369   2.095   4.067   4.113 -0.8634  0.6976  0.0003
 1652TIP3   OH226370   0.666   0.030   2.455  0.1627  0.6822  0.3110
 1652TIP3    H126371   0.659   0.027   2.359 -0.3308 -0.2704  0.3626
 1652TIP3    H226372   0.741  -0.025   2.475  0.4029  1.0628  0.4661
 1653TIP3   OH226373   2.499   6.735   4.820  0.5893  0.0518 -0.1968
 1653TIP3    H126374   2.456   6.786   4.889  1.9114 -0.4182  1.0321
 1653TIP3    H226375   2.583   6.780   4.806  0.0134  0.6029 -2.1024
 1654TIP3   OH226376   6.578   3.327   3.391 -0.2651 -0.4134 -0.6069
 1654TIP3    H126377   6.596   3.338   3.485  0.1191 -1.5505 -0.5337
 1654TIP3    H226378   6.551   3.236   3.382  4.2035 -1.8353 -2.2273
 1655TIP3   OH226379   4.729   2.367   4.616  0.5862 -0.5750 -0.2572
 1655TIP3    H126380   4.805   2.352   4.560 -0.1378 -3.0788 -0.7218
 1655TIP3    H226381   4.729   2.293   4.677 -1.1868 -0.3767  0.0464
 1656TIP3   OH226382   5.865   4.117  11.393  0.0562 -0.3308  0.1077
 1656TIP3    H126383   5.822   4.067  11.323 -2.9382  1.8126  0.2102
 1656TIP3    H226384   5.873   4.055  11.465 -0.9430 -1.4267 -0.6733
 1657TIP3   OH226385   1.453   4.913  11.512  0.2549  0.1738 -0.3096
 1657TIP3    H126386   1.410   4.981  11.563 -0.9041 -1.0716  0.4122
 1657TIP3    H226387   1.502   4.962  11.445 -0.7270  1.7039  0.0293
 1658TIP3   OH226388   3.589   2.893  12.107  0.7934  0.1525 -0.2400
 1658TIP3    H126389   3.556   2.804  12.119  1.5465 -0.2245 -0.8410
 1658TIP3    H226390   3.557   2.918  12.020  0.0124  0.7394  0.2030
 1659TIP3   OH226391   0.955   2.262   5.644  0.0038 -0.2588  0.0852
 1659TIP3    H126392   0.946   2.309   5.727  1.5310 -0.4155  0.3558
 1659TIP3    H226393   0.994   2.178   5.668 -0.8760 -0.9065 -0.6385
 1660TIP3   OH226394   4.365   1.377   0.549  0.2607  0.2758 -0.1776
 1660TIP3    H126395   4.348   1.301   0.494  0.8986  0.3727 -0.5195
 1660TIP3    H226396   4.460   1.383   0.552  0.2202  0.7132  0.3313
 1661TIP3   OH226397   1.826   2.670   2.187  0.2708 -0.0849 -0.2496
 1661TIP3    H126398   1.749   2.725   2.173 -0.8019 -1.1603  1.1458
 1661TIP3    H226399   1.814   2.596   2.128  0.2505 -0.2448 -0.0448
 1662TIP3   OH226400   6.296   1.831   4.186  0.2302 -0.2743  0.3246
 1662TIP3    H126401   6.386   1.862   4.177  0.0782 -0.2080 -1.1937
 1662TIP3    H226402   6.254   1.856   4.104 -0.9716 -0.9686  0.7113
 1663TIP3   OH226403   6.706   3.034  16.720 -0.0220 -0.2609 -0.1827
 1663TIP3    H126404   6.670   3.055  16.634 -0.1338  0.3706  0.0113
 1663TIP3    H226405   6.748   2.949  16.709  0.8606  0.2751 -1.1273
 1664TIP3   OH226406   1.414   0.792   0.063  0.2783 -0.3862  0.4638
 1664TIP3    H126407   1.344   0.848   0.098  0.6813  0.8140 -0.5782
 1664TIP3    H226408   1.475   0.781   0.136 -0.2273 -0.1479  0.9250
 1665TIP3   OH226409   1.754   1.416   4.192 -0.0166  0.0092  0.0045
 1665TIP3    H126410   1.784   1.503   4.164 -0.8932 -0.2812 -1.9976
 1665TIP3    H226411   1.659   1.419   4.183 -0.0346 -1.2795 -0.4440
 1666TIP3   OH226412   2.035   1.810  14.595 -0.4479  0.2806  0.2767
 1666TIP3    H126413   2.067   1.735  14.646 -1.0155 -0.5646 -0.5730
 1666TIP3    H226414   1.940   1.804  14.603 -0.4872  1.1696  0.5427
 1667TIP3   OH226415   1.181   4.199  16.008 -0.4409 -0.3845 -0.3609
 1667TIP3    H126416   1.220   4.206  15.921 -1.5733  0.9667 -0.7896
 1667TIP3    H226417   1.088   4.212  15.993 -0.6990 -0.5518  1.0104
 1668TIP3   OH226418   6.425   6.712  12.706  0.8638 -0.2038  0.7078
 1668TIP3    H126419   6.453   6.658  12.632 -2.2832 -0.0694 -0.7441
 1668TIP3    H226420   6.470   6.795  12.693  0.0741 -0.0492 -1.3344
 1669TIP3   OH226421   4.657   4.378   5.859  0.3828 -0.0950 -0.2102
 1669TIP3    H126422   4.627   4.287   5.869 -0.4455 -0.0582 -2.0384
 1669TIP3    H226423   4.683   4.385   5.768 -0.3760  1.7279 -0.3278
 1670TIP3   OH226424   0.610   3.727   5.386  0.1515  0.3468 -0.6103
 1670TIP3    H126425   0.529   3.768   5.416  0.4540  0.4001  0.1705
 1670TIP3    H226426   0.586   3.636   5.370 -0.4087  0.6998 -1.8793
 1671TIP3   OH226427   4.274   1.208  16.632 -0.3608  0.5431 -0.0327
 1671TIP3    H126428   4.201   1.151  16.657  0.7358 -0.8947 -0.0037
 1671TIP3    H226429   4.350   1.150  16.628  0.4642  1.6573 -1.7947
 1672TIP3   OH226430   4.813   1.585   1.057 -0.4002 -0.0005  0.3163
 1672TIP3    H126431   4.757   1.515   1.025 -1.8668  0.3942  1.8689
 1672TIP3    H226432   4.772   1.665   1.025  0.7230  0.2153 -0.6369
 1673TIP3   OH226433   5.453   2.198  16.071  0.1620  0.5280 -0.1177
 1673TIP3    H126434   5.390   2.156  16.130 -0.5963  0.6948 -0.7959
 1673TIP3    H226435   5.400   2.256  16.016  0.6663 -0.4975 -1.7549
 1674TIP3   OH226436   1.962   2.580   2.398  0.2095 -0.7534 -0.3620
 1674TIP3    H126437   2.053   2.558   2.377  0.1760 -0.3838 -0.9069
 1674TIP3    H226438   1.938   2.646   2.333 -0.3316 -0.5792  0.0129
 1675TIP3   OH226439   3.343   5.018   4.852  0.7633  0.4389  0.2222
 1675TIP3    H126440   3.353   5.070   4.772  0.3066 -0.1951 -0.2607
 1675TIP3    H226441   3.281   4.949   4.828  1.5797 -0.5186  0.7454
 1676TIP3   OH226442   1.116   5.717  15.833  0.1120  0.4044 -0.7046
 1676TIP3    H126443   1.154   5.794  15.875 -1.5974  1.5187 -1.1244
 1676TIP3    H226444   1.192   5.667  15.802  1.2707  1.5954  0.1165
 1677TIP3   OH226445   3.749   4.562  15.683 -0.1951 -0.0129  0.3791
 1677TIP3    H126446   3.763   4.525  15.596 -0.9026  0.1190  0.2076
 1677TIP3    H226447   3.740   4.656  15.668 -1.3401 -0.0948  0.4619
 1678TIP3   OH226448   2.431   5.274   4.148 -0.3438 -0.3805  0.0073
 1678TIP3    H126449   2.450   5.189   4.186 -1.2188 -0.5191  0.1694
 1678TIP3    H226450   2.340   5.267   4.118 -0.1990  0.2600 -0.6325
 1679TIP3   OH226451   2.321   6.181   3.044 -0.0447  0.4234 -0.4798
 1679TIP3    H126452   2.374   6.147   2.972 -1.3117 -1.5389 -0.5631
 1679TIP3    H226453   2.339   6.121   3.117 -0.9808  0.6447 -0.0592
 1680TIP3   OH226454   6.517   6.341  14.260  0.1118 -0.1333  0.1209
 1680TIP3    H126455   6.436   6.311  14.300 -1.3656 -0.4945 -2.8590
 1680TIP3    H226456   6.566   6.261  14.242 -0.6001 -0.2522 -1.4115
 1681TIP3   OH226457   1.495   2.424   6.006 -0.7096 -0.1107  0.2249
 1681TIP3    H126458   1.512   2.339   6.046 -1.2339 -0.0500  0.5900
 1681TIP3    H226459   1.403   2.420   5.981 -0.4593 -0.0391 -0.7203
 1682TIP3   OH226460   6.454   0.998   2.650 -0.1718 -0.4060  0.1258
 1682TIP3    H126461   6.510   1.071   2.624 -0.2665 -0.8724 -1.4748
 1682TIP3    H226462   6.392   1.036   2.713 -1.6311  1.4537 -2.2648
 1683TIP3   OH226463   2.608   5.983   3.169 -0.0821 -0.3820 -0.2227
 1683TIP3    H126464   2.585   5.944   3.253  0.9557 -0.0076  0.2408
 1683TIP3    H226465   2.686   5.936   3.141  2.8407  2.9515  1.6051
 1684TIP3   OH226466   1.200   3.035  14.851 -0.0317  0.2023  1.0949
 1684TIP3    H126467   1.128   2.977  14.876  0.6432 -1.7742 -1.1440
 1684TIP3    H226468   1.276   2.999  14.897 -0.0745  0.9965  1.8034
 1685TIP3   OH226469   0.030   3.707  10.798 -0.1018 -0.3000  0.0547
 1685TIP3    H126470  -0.060   3.699  10.829  0.1363  1.9420  1.5763
 1685TIP3    H226471   0.023   3.747  10.712 -0.5745 -0.4545  0.0201
 1686TIP3   OH226472   6.729   0.219   4.743 -0.1643  0.5108  0.2039
 1686TIP3    H126473   6.808   0.268   4.719  0.3512 -1.2312 -1.8993
 1686TIP3    H226474   6.660   0.255   4.687 -0.4463  0.7169  0.6723
 1687TIP3   OH226475   2.398   4.065  15.801 -0.2898  0.0288 -0.3675
 1687TIP3    H126476   2.372   3.980  15.763 -1.1129  0.2597 -0.3358
 1687TIP3    H226477   2.361   4.130  15.742  1.6525  0.4005 -1.2802
 1688TIP3   OH226478   5.237   5.083  13.167  0.1695  0.0083 -0.9701
 1688TIP3    H126479   5.204   5.062  13.254  0.4770 -1.1850 -1.1236
 1688TIP3    H226480   5.173   5.043  13.107  1.5462 -1.8609 -1.2735
 1689TIP3   OH226481   5.469   0.128  11.830 -0.3149  0.3618  0.2690
 1689TIP3    H126482   5.468   0.196  11.897  0.5220  0.3728  0.2817
 1689TIP3    H226483   5.495   0.048  11.877  0.3658  0.3883 -0.0541
 1690TIP3   OH226484   1.877   4.075  10.875  0.2576  0.4054  0.5508
 1690TIP3    H126485   1.843   4.118  10.797 -1.1253 -0.7994  0.4572
 1690TIP3    H226486   1.968   4.053  10.853 -0.1424  0.0143 -0.7483
 1691TIP3   OH226487   2.009   1.821  14.288  0.3365 -0.1548  0.0260
 1691TIP3    H126488   1.961   1.739  14.301 -1.8215  1.2655  1.7129
 1691TIP3    H226489   2.046   1.841  14.374 -0.4033  1.3243  0.0349
 1692TIP3   OH226490   6.366   4.493  15.255 -0.3256  0.0376  0.1433
 1692TIP3    H126491   6.395   4.439  15.182 -2.6102 -0.9978 -0.0730
 1692TIP3    H226492   6.328   4.431  15.317  1.2907  0.9257  2.1371
 1693TIP3   OH226493   2.313   2.916   1.518 -0.2985 -0.2825  1.1044
 1693TIP3    H126494   2.316   3.005   1.554  0.8667 -0.4421  1.4331
 1693TIP3    H226495   2.404   2.888   1.516 -0.2341 -0.1733 -2.3404
 1694TIP3   OH226496   1.333   1.139   0.983  0.1639 -0.0785  0.6114
 1694TIP3    H126497   1.291   1.120   1.067  2.4615  2.3235  2.4436
 1694TIP3    H226498   1.268   1.111   0.918 -2.2764 -0.8238  3.1426
 1695TIP3   OH226499   4.264   4.302   3.381 -0.0510  0.2848 -0.5426
 1695TIP3    H126500   4.216   4.351   3.314 -2.3536  0.4351  1.1169
 1695TIP3    H226501   4.315   4.368   3.427 -1.0342  0.7153 -0.0522
 1696TIP3   OH226502   4.159   4.175  14.858  0.2114 -0.2525  0.2574
 1696TIP3    H126503   4.255   4.170  14.857  0.4955  3.1172 -1.1591
 1696TIP3    H226504   4.138   4.243  14.794 -3.1034 -0.2384  1.2073
 1697TIP3   OH226505   4.063   2.591  12.880 -0.1912  0.0141 -0.0779
 1697TIP3    H126506   4.032   2.569  12.968  0.0712  0.8336  0.2231
 1697TIP3    H226507   4.017   2.529  12.823  0.4818 -1.2718  0.7352
 1698TIP3   OH226508   0.518   2.140  14.528  0.0571 -0.2590  0.0179
 1698TIP3    H126509   0.595   2.181  14.567  0.2301 -0.0015 -0.5813
 1698TIP3    H226510   0.523   2.163  14.436 -0.5492 -0.5418 -0.0904
 1699TIP3   OH226511   1.948   0.178   4.916  0.3642 -0.1716 -0.2848
 1699TIP3    H126512   1.900   0.260   4.911 -1.4822 -1.1328  0.7086
 1699TIP3    H226513   2.009   0.182   4.842  1.0670  2.4923  0.3155
 1700TIP3   OH226514   0.503   0.649  13.542 -0.1246 -0.0807 -0.3773
 1700TIP3    H126515   0.508   0.581  13.609 -1.8101  0.3016  0.1817
 1700TIP3    H226516   0.566   0.715  13.570 -0.2878 -0.2556  0.4352
 1701TIP3   OH226517   5.459   3.065  15.056  0.2969  0.3867 -0.0912
 1701TIP3    H126518   5.462   3.140  15.116 -0.8171 -0.0504  0.5532
 1701TIP3    H226519   5.492   2.992  15.107 -0.5632  0.0327 -0.0124
 1702TIP3   OH226520   5.231   3.805   3.458 -0.3954  0.2270 -0.3329
 1702TIP3    H126521   5.301   3.863   3.429 -0.3887  0.4266  0.0826
 1702TIP3    H226522   5.272   3.718   3.461 -0.3298  0.2455 -0.6752
 1703TIP3   OH226523   5.717   3.961   4.914 -0.0765 -0.1612 -0.4680
 1703TIP3    H126524   5.742   4.036   4.860 -1.3448  0.0808 -0.7469
 1703TIP3    H226525   5.644   3.992   4.967  0.5394 -0.6775  0.7289
 1704TIP3   OH226526   3.046   3.279  13.484 -0.2246  0.1931  0.0772
 1704TIP3    H126527   2.951   3.272  13.478 -0.1323 -2.0390  0.4301
 1704TIP3    H226528   3.063   3.373  13.497 -2.4258  0.4954  1.0851
 1705TIP3   OH226529   0.630   4.512   0.043  0.3309  0.0253  0.1615
 1705TIP3    H126530   0.596   4.583   0.097  0.5325 -0.0572  0.3932
 1705TIP3    H226531   0.571   4.438   0.061  1.2498 -0.4332  1.3608
 1706TIP3   OH226532   2.879   3.102  14.356 -0.3317  0.1186  0.4528
 1706TIP3    H126533   2.826   3.022  14.356  0.4877 -0.4925 -1.8575
 1706TIP3    H226534   2.884   3.127  14.264  0.3335  2.2501  1.0215
 1707TIP3   OH226535   4.786   5.148  16.244  0.0803 -0.4308  0.3832
 1707TIP3    H126536   4.844   5.176  16.173  1.2380 -1.1042  1.0361
 1707TIP3    H226537   4.726   5.222  16.256 -0.6516 -0.5908 -1.7849
 1708TIP3   OH226538   1.311   1.269   2.739 -0.3634  0.6354 -0.0899
 1708TIP3    H126539   1.299   1.179   2.708  0.7350  0.2854  0.4506
 1708TIP3    H226540   1.388   1.301   2.691  1.8936 -0.1826  2.6644
 1709TIP3   OH226541   2.779   6.425  12.439 -0.4988  0.2937  0.6932
 1709TIP3    H126542   2.706   6.412  12.377  0.4774 -1.0893 -0.2260
 1709TIP3    H226543   2.741   6.478  12.509 -1.4595  2.6593 -1.4453
 1710TIP3   OH226544   4.872   0.590   0.525  0.0466  0.6148 -0.1572
 1710TIP3    H126545   4.941   0.594   0.459 -0.9254  1.7155 -1.1631
 1710TIP3    H226546   4.850   0.497   0.531  1.3420  0.2995 -0.1058
 1711TIP3   OH226547   5.228   1.988   2.221  0.1040 -0.1664 -0.6360
 1711TIP3    H126548   5.194   2.026   2.302 -0.4228 -0.4161 -0.7357
 1711TIP3    H226549   5.183   2.036   2.151  0.8567  0.3317 -0.8015
 1712TIP3   OH226550   2.184   2.199  14.970 -0.4200 -0.4333  0.1004
 1712TIP3    H126551   2.091   2.217  14.984  0.0423  0.0549  3.3162
 1712TIP3    H226552   2.229   2.261  15.027  1.8460 -1.5074 -0.4151
 1713TIP3   OH226553   2.769   0.281   6.498  0.5765  0.2393  0.5454
 1713TIP3    H126554   2.799   0.363   6.459 -0.3819  0.9119  1.1911
 1713TIP3    H226555   2.684   0.301   6.536 -0.7758 -1.6203 -1.2521
 1714TIP3   OH226556   2.881   4.651  11.004  0.5416 -0.1102 -0.4832
 1714TIP3    H126557   2.856   4.596  11.078  0.2195  0.3586 -0.2352
 1714TIP3    H226558   2.869   4.741  11.036  0.1503  0.0974 -1.1791
 1715TIP3   OH226559   3.693   0.195  11.887  0.1486  0.2063  0.0114
 1715TIP3    H126560   3.727   0.124  11.833  0.4975 -1.4972  2.3367
 1715TIP3    H226561   3.597   0.187  11.879  0.1071  1.7575 -2.4193
 1716TIP3   OH226562   6.511   2.456  13.808 -0.7555 -0.4604 -0.0790
 1716TIP3    H126563   6.576   2.527  13.814 -0.8574 -0.3081 -0.7772
 1716TIP3    H226564   6.439   2.493  13.758 -1.5137 -0.5465  0.9127
 1717TIP3   OH226565   6.470   4.200   1.442  0.5419 -0.2429 -0.0768
 1717TIP3    H126566   6.411   4.273   1.423  0.5448 -0.4804 -1.0545
 1717TIP3    H226567   6.439   4.166   1.526 -1.4173 -1.0261 -1.0363
 1718TIP3   OH226568   4.611   2.487   5.762 -0.1409  0.6483  0.0181
 1718TIP3    H126569   4.590   2.446   5.845  1.2880  0.7990  0.4760
 1718TIP3    H226570   4.526   2.516   5.728 -1.0091 -1.3361  0.3572
 1719TIP3   OH226571   2.507   1.874  17.099 -0.6021  0.1308  0.0456
 1719TIP3    H126572   2.485   1.954  17.052  3.1321  1.6833  0.6215
 1719TIP3    H226573   2.468   1.804  17.046 -0.1942  2.0487 -3.0444
 1720TIP3   OH226574   4.244   3.600  15.469  0.1164 -0.0032  0.3925
 1720TIP3    H126575   4.306   3.597  15.396 -1.3737  0.7046 -0.9602
 1720TIP3    H226576   4.268   3.524  15.523  0.1493 -1.6340 -1.7752
 1721TIP3   OH226577   0.030   4.680  12.677  0.9668  0.4965 -0.3558
 1721TIP3    H126578  -0.043   4.669  12.738  0.9322  2.7184  0.1132
 1721TIP3    H226579   0.106   4.693  12.733  0.9184  2.6781 -0.6987
 1722TIP3   OH226580   3.642   5.883  14.203  0.4451 -0.0297  0.0339
 1722TIP3    H126581   3.593   5.802  14.190  1.8966 -1.1718  1.3322
 1722TIP3    H226582   3.593   5.929  14.272  1.5425 -1.5502  1.9264
 1723TIP3   OH226583   3.163   4.507  11.148  0.0474  0.7042  0.0333
 1723TIP3    H126584   3.217   4.487  11.072  1.1405  1.7765  0.5057
 1723TIP3    H226585   3.090   4.558  11.113  0.1015  0.4837 -0.4090
 1724TIP3   OH226586   1.859   6.195  15.573 -0.7689  0.1211  0.4420
 1724TIP3    H126587   1.891   6.285  15.565 -1.5893  0.3199 -0.8866
 1724TIP3    H226588   1.938   6.141  15.567 -0.3563  0.7168  0.4207
 1725TIP3   OH226589   0.722   2.446  14.035 -0.3385 -1.1974 -0.2598
 1725TIP3    H126590   0.644   2.391  14.025  0.3018 -1.9935 -0.9783
 1725TIP3    H226591   0.782   2.395  14.089  0.4506 -1.4505 -1.3286
 1726TIP3   OH226592   6.185   2.687  16.362  0.0622 -0.4594  0.2831
 1726TIP3    H126593   6.245   2.695  16.288 -0.3132  0.3619  0.0616
 1726TIP3    H226594   6.219   2.612  16.412  1.5334  0.2565  0.4082
 1727TIP3   OH226595   3.064   2.714  13.893 -0.3371  0.1242  0.4885
 1727TIP3    H126596   3.053   2.754  13.806 -1.4129 -1.7379 -0.2743
 1727TIP3    H226597   3.022   2.777  13.952  1.7036  2.1604 -0.0710
 1728TIP3   OH226598   5.495   4.945  11.659  0.7108 -0.2197  0.3427
 1728TIP3    H126599   5.410   4.901  11.650  1.0527 -1.0684  1.0953
 1728TIP3    H226600   5.552   4.879  11.698  1.2425  0.9034  1.5369
 1729TIP3   OH226601   4.044   1.307  17.045  0.3175 -0.1530  0.1631
 1729TIP3    H126602   3.955   1.339  17.054 -0.6953 -2.7145  0.1003
 1729TIP3    H226603   4.042   1.252  16.966  2.4593  1.1818 -0.9285
 1730TIP3   OH226604   0.434   0.716  12.809 -0.0122 -0.2330  0.1592
 1730TIP3    H126605   0.427   0.772  12.886  1.1998 -0.7817  0.6871
 1730TIP3    H226606   0.361   0.743  12.753 -0.5748  0.5549  1.2422
 1731TIP3   OH226607   3.232   4.521   1.368 -0.0467  0.9590 -0.2797
 1731TIP3    H126608   3.145   4.514   1.408 -0.7599 -0.1245 -1.9353
 1731TIP3    H226609   3.292   4.516   1.442 -1.3207 -0.8120  0.7233
 1732TIP3   OH226610   2.772   2.762  16.942 -0.6071 -0.0149 -0.8792
 1732TIP3    H126611   2.828   2.705  16.890  0.6892  0.0642  0.3825
 1732TIP3    H226612   2.791   2.850  16.911  0.6052  0.0853  0.0903
 1733TIP3   OH226613   3.641   2.594  11.614  0.3915  0.4184  0.2475
 1733TIP3    H126614   3.678   2.587  11.526  1.0150 -0.0085  0.5325
 1733TIP3    H226615   3.576   2.663  11.607  1.7995  1.7720 -0.0834
 1734TIP3   OH226616   0.142   3.927   4.336  0.1393  0.0176 -0.5186
 1734TIP3    H126617   0.059   3.925   4.287  1.1808 -0.7530 -2.3718
 1734TIP3    H226618   0.141   3.846   4.387 -0.6256  0.4391  0.1441
 1735TIP3   OH226619   3.723   3.328  15.687 -0.0416 -0.1545 -0.1098
 1735TIP3    H126620   3.777   3.405  15.703  0.1823 -0.2674 -0.3050
 1735TIP3    H226621   3.751   3.265  15.755 -0.1635 -0.0931 -0.0033
 1736TIP3   OH226622   2.634   6.133   6.029 -0.4864  0.0975  0.1948
 1736TIP3    H126623   2.546   6.140   5.994 -0.2490 -4.2980 -2.0462
 1736TIP3    H226624   2.684   6.201   5.984 -2.6554  3.1966  2.0825
 1737TIP3   OH226625   3.543   6.761   3.592  0.4498  0.2434  0.4323
 1737TIP3    H126626   3.579   6.849   3.600  0.9054 -0.0301  1.5149
 1737TIP3    H226627   3.619   6.704   3.591  0.1309 -0.1847  0.4921
 1738TIP3   OH226628   1.348   0.059   1.929 -0.2518 -0.4755  0.4727
 1738TIP3    H126629   1.314   0.117   1.861 -0.3897 -1.0353  0.0555
 1738TIP3    H226630   1.312   0.094   2.010 -1.9229 -1.0906  0.0415
 1739TIP3   OH226631   0.641   1.617  15.202 -0.8173  0.0514  0.2080
 1739TIP3    H126632   0.664   1.707  15.178 -1.4557  0.1191 -0.1791
 1739TIP3    H226633   0.679   1.564  15.132  0.0133 -0.0332  0.7151
 1740TIP3   OH226634   2.631   4.746  16.132  0.3105 -0.1941 -1.2553
 1740TIP3    H126635   2.703   4.684  16.146  0.4784  0.1884 -0.3324
 1740TIP3    H226636   2.672   4.832  16.138 -0.5116  0.1000  1.4429
 1741TIP3   OH226637   4.370   3.469  16.416  0.6646  0.2604 -0.1510
 1741TIP3    H126638   4.274   3.468  16.420  0.6793  0.6284  0.4851
 1741TIP3    H226639   4.390   3.506  16.330  0.2286  1.2669  0.1628
 1742TIP3   OH226640   5.064   6.265  12.825  0.0183  0.0660 -0.0623
 1742TIP3    H126641   5.040   6.190  12.771  0.5529 -0.8306  0.8883
 1742TIP3    H226642   4.990   6.275  12.885  0.7708 -0.9826  1.0970
 1743TIP3   OH226643   3.164   2.737   2.731  0.5290  0.2799  0.5396
 1743TIP3    H126644   3.175   2.659   2.786 -0.6092  0.1582  0.6172
 1743TIP3    H226645   3.075   2.730   2.697 -1.0738  3.4285  3.5278
 1744TIP3   OH226646   4.274   4.442   1.345 -0.0826  0.6058  0.0155
 1744TIP3    H126647   4.211   4.490   1.291 -0.1026  1.1114  0.4801
 1744TIP3    H226648   4.221   4.382   1.397 -0.0679  0.1549 -0.4725
 1745TIP3   OH226649   2.110   1.426   4.942  0.2827 -0.0640 -0.5592
 1745TIP3    H126650   2.120   1.366   4.868  0.4212  0.1066 -0.6785
 1745TIP3    H226651   2.159   1.384   5.013  0.0615 -0.2805 -0.5300
 1746TIP3   OH226652   0.925   6.681   3.262  0.6788  0.1248  0.1471
 1746TIP3    H126653   0.998   6.620   3.271  0.6289  0.2933  2.0037
 1746TIP3    H226654   0.967   6.766   3.245  0.8292 -0.0527 -0.4009
 1747TIP3   OH226655   1.402   1.892   4.577  0.2677  0.1908 -0.2700
 1747TIP3    H126656   1.389   1.986   4.561 -1.1789  0.5694  2.5642
 1747TIP3    H226657   1.416   1.886   4.671 -0.0925 -2.5261 -0.3335
 1748TIP3   OH226658   5.701   0.543   5.666 -0.0114  0.7182  0.0970
 1748TIP3    H126659   5.719   0.637   5.655  0.0678  0.7321  0.3328
 1748TIP3    H226660   5.757   0.517   5.739 -1.2988  0.8670  1.1602
 1749TIP3   OH226661   2.965   1.807   4.403 -0.0307 -0.3072 -0.2013
 1749TIP3    H126662   2.887   1.812   4.349 -0.1003 -0.9011 -0.1649
 1749TIP3    H226663   2.941   1.850   4.485 -0.5150 -0.9863  0.0264
 1750TIP3   OH226664   2.080   3.848  16.300 -0.4659 -0.2454 -0.0912
 1750TIP3    H126665   2.039   3.875  16.218  0.3095 -0.2161 -0.4692
 1750TIP3    H226666   2.118   3.762  16.282 -1.0397 -0.6427  0.4949
 1751TIP3   OH226667   0.729   2.480  14.723 -0.0933 -0.1414 -0.0355
 1751TIP3    H126668   0.748   2.520  14.638 -0.3024 -0.5986 -0.2941
 1751TIP3    H226669   0.775   2.537  14.786  1.4603 -0.7323 -0.5771
 1752TIP3   OH226670   3.623   6.199   1.322  0.2288  0.0186 -0.0442
 1752TIP3    H126671   3.694   6.215   1.385  0.7652 -0.7002 -0.4484
 1752TIP3    H226672   3.543   6.204   1.375  0.6738 -0.7334  0.7440
 1753TIP3   OH226673   1.096   5.420  14.479 -0.0125 -0.3998  0.1600
 1753TIP3    H126674   1.190   5.430  14.464  0.1193 -2.0702 -0.2924
 1753TIP3    H226675   1.085   5.328  14.502 -1.4735 -0.0871  0.8471
 1754TIP3   OH226676   6.742   4.606   6.157  0.3932  0.6753  0.1028
 1754TIP3    H126677   6.689   4.571   6.229 -0.5974 -2.4501 -1.9576
 1754TIP3    H226678   6.821   4.552   6.157  0.2601  0.4518 -1.2952
 1755TIP3   OH226679   5.245   3.913   0.614  0.8668 -0.5197 -0.3610
 1755TIP3    H126680   5.244   3.820   0.638  2.6824 -0.1854  1.2021
 1755TIP3    H226681   5.337   3.938   0.617  0.3154  1.6291  0.4026
 1756TIP3   OH226682   2.531   0.415  17.151  0.4073  0.2289  0.0046
 1756TIP3    H126683   2.469   0.385  17.084  0.6757  0.5910 -0.4099
 1756TIP3    H226684   2.499   0.501  17.176  0.7697  0.4389 -0.2473
 1757TIP3   OH226685   2.176   0.946   6.310 -0.0752 -0.2758  0.5937
 1757TIP3    H126686   2.097   0.985   6.273  0.5513 -0.5031 -1.0832
 1757TIP3    H226687   2.148   0.861   6.344 -0.4883 -0.5364 -0.3756
 1758TIP3   OH226688   4.833   4.468   2.235 -0.5539  0.5341  0.1916
 1758TIP3    H126689   4.762   4.526   2.208 -2.1074 -1.5161 -0.3309
 1758TIP3    H226690   4.893   4.466   2.160  0.5601  2.8654  0.9169
 1759TIP3   OH226691   2.691   6.581   3.102 -0.3849 -0.3054  0.1206
 1759TIP3    H126692   2.679   6.493   3.068  0.0703 -0.3127 -0.0285
 1759TIP3    H226693   2.771   6.575   3.155 -1.4895 -0.4965  1.8688
 1760TIP3   OH226694   2.234   6.098  15.672  0.4076  0.4730 -0.0462
 1760TIP3    H126695   2.266   6.114  15.584  1.3129 -0.4946  0.0865
 1760TIP3    H226696   2.273   6.014  15.697  1.0962  1.2728  1.7177
 1761TIP3   OH226697   3.449   2.473   5.479  0.2489  0.3903 -0.0310
 1761TIP3    H126698   3.536   2.446   5.508  1.2135  1.7971 -1.4702
 1761TIP3    H226699   3.418   2.401   5.425  0.8805  0.2285 -0.1888
 1762TIP3   OH226700   4.360   4.552  11.631  0.1594  0.3151 -0.6412
 1762TIP3    H126701   4.386   4.463  11.608 -0.6911  0.3199 -1.7280
 1762TIP3    H226702   4.425   4.581  11.695  1.0197 -0.7262 -1.0191
 1763TIP3   OH226703   0.819   1.633   2.182 -0.2610 -0.6554 -0.0043
 1763TIP3    H126704   0.906   1.671   2.188 -1.0061  1.4375 -1.3645
 1763TIP3    H226705   0.770   1.670   2.256 -0.7262  0.3907 -0.8041
 1764TIP3   OH226706   4.967   3.515   6.455 -0.7123 -0.4204 -0.5217
 1764TIP3    H126707   4.945   3.424   6.473  2.5588 -1.1599  0.2998
 1764TIP3    H226708   5.029   3.539   6.523  0.8564  1.4287 -2.4407
 1765TIP3   OH226709   0.874   0.038  14.265  0.6607  0.1383 -0.0423
 1765TIP3    H126710   0.956   0.059  14.308  1.1786  1.2519 -1.4898
 1765TIP3    H226711   0.826  -0.016  14.328  2.4585 -0.4753  0.8469
 1766TIP3   OH226712   1.907   5.905   5.120  0.1185 -0.4986  0.3009
 1766TIP3    H126713   1.914   5.855   5.201  0.3655  0.6260  0.9988
 1766TIP3    H226714   1.967   5.861   5.059 -1.4880 -2.5154  0.0618
 1767TIP3   OH226715   2.162   3.551   5.936 -0.6178  0.3487 -0.0386
 1767TIP3    H126716   2.234   3.614   5.933  2.1080 -2.4185  1.2739
 1767TIP3    H226717   2.170   3.503   5.853  1.6250 -2.3495  1.5603
 1768TIP3   OH226718   3.441   5.775  12.183  0.2601 -0.2446 -0.4761
 1768TIP3    H126719   3.450   5.870  12.187  1.9892 -0.3923 -0.2228
 1768TIP3    H226720   3.473   5.744  12.268 -2.3231 -0.9633  0.3334
 1769TIP3   OH226721   4.555   1.939   2.517  0.1434 -0.5626  0.2049
 1769TIP3    H126722   4.465   1.961   2.497  0.2044  0.6192  1.1548
 1769TIP3    H226723   4.572   1.979   2.602  1.1571 -1.9026  0.6776
 1770TIP3   OH226724   1.069   1.723   0.527  0.4248  0.2478 -0.0605
 1770TIP3    H126725   1.066   1.698   0.435  0.3689  0.0975 -0.0187
 1770TIP3    H226726   1.148   1.777   0.535 -0.3407  1.4787 -0.4904
 1771TIP3   OH226727   2.338   5.280  12.073 -0.2590  0.2077 -0.6423
 1771TIP3    H126728   2.407   5.344  12.060 -1.8296  2.5411  1.5949
 1771TIP3    H226729   2.279   5.291  11.999  1.0271 -0.9470 -1.9086
 1772TIP3   OH226730   1.325   5.963   0.564  0.3483  0.8485  0.1072
 1772TIP3    H126731   1.325   6.058   0.563 -1.0448  0.8579 -1.0019
 1772TIP3    H226732   1.338   5.940   0.656 -1.2606  2.1395  0.6995
 1773TIP3   OH226733   6.367   2.603   2.923  0.1382  0.4057 -0.4765
 1773TIP3    H126734   6.407   2.550   2.854  0.5724  0.8127 -0.5470
 1773TIP3    H226735   6.397   2.563   3.004  0.1802  0.3320 -0.5280
 1774TIP3   OH226736   0.845   3.696   2.804 -0.1452 -0.7104  0.2077
 1774TIP3    H126737   0.760   3.657   2.827 -0.3635 -0.4509 -0.1450
 1774TIP3    H226738   0.826   3.751   2.728  0.4215 -0.9783 -0.1340
 1775TIP3   OH226739   1.991   5.112  15.585 -0.0216  0.0375 -0.1456
 1775TIP3    H126740   1.958   5.115  15.495  0.5841 -0.3447 -0.3849
 1775TIP3    H226741   2.085   5.098  15.576  0.1165  0.4793  0.5421
 1776TIP3   OH226742   4.231   6.619   0.326  0.5808  0.2209  0.2355
 1776TIP3    H126743   4.243   6.645   0.418 -0.4568 -0.2902  0.5344
 1776TIP3    H226744   4.187   6.694   0.286  0.3085  0.1245  0.3539
 1777TIP3   OH226745   2.523   3.123  15.155  0.8058  0.0742 -0.6754
 1777TIP3    H126746   2.456   3.147  15.220  0.4831 -0.3043 -0.8662
 1777TIP3    H226747   2.552   3.036  15.182  0.5222 -0.1721 -1.1597
 1778TIP3   OH226748   6.003   5.951  13.339  0.4037  0.3734 -0.2461
 1778TIP3    H126749   6.079   5.906  13.377 -0.3265  0.2272  1.1180
 1778TIP3    H226750   5.945   5.881  13.311 -0.2962  0.4343  0.9743
 1779TIP3   OH226751   2.867   5.592   5.088 -0.2591  0.4582  0.1008
 1779TIP3    H126752   2.774   5.613   5.099 -0.4977 -0.2920 -0.3653
 1779TIP3    H226753   2.902   5.662   5.034 -0.8879  0.0129 -0.9127
 1780TIP3   OH226754   2.119   5.790  11.498  0.3568 -0.3280  0.7624
 1780TIP3    H126755   2.110   5.696  11.510 -0.9422 -0.3645 -0.2234
 1780TIP3    H226756   2.030   5.824  11.510  0.8011  0.7842  1.1066
 1781TIP3   OH226757   2.124   6.223  14.477 -0.3792 -0.4125  0.5901
 1781TIP3    H126758   2.178   6.274  14.537  3.3847 -0.9917 -1.9282
 1781TIP3    H226759   2.154   6.133  14.489  0.2970 -0.5831 -1.8025
 1782TIP3   OH226760   3.441   0.377  13.484 -0.3677 -0.2555 -0.6183
 1782TIP3    H126761   3.432   0.371  13.579 -1.0371 -2.1293 -0.7558
 1782TIP3    H226762   3.405   0.463  13.462  0.3372  0.4466  0.8607
 1783TIP3   OH226763   3.690   5.272  13.177  0.0153 -0.1640 -0.1996
 1783TIP3    H126764   3.625   5.230  13.121  0.7525 -0.4530 -0.8578
 1783TIP3    H226765   3.748   5.201  13.205 -0.8927 -0.1925  1.7508
 1784TIP3   OH226766   0.412   1.839   4.224  0.4682 -0.4716  0.6811
 1784TIP3    H126767   0.354   1.777   4.180  0.6620 -0.2268  0.0720
 1784TIP3    H226768   0.450   1.891   4.153  0.1268  0.5054  1.1925
 1785TIP3   OH226769   2.749   1.215  11.185  0.5200  0.0619  0.2789
 1785TIP3    H126770   2.687   1.145  11.206  0.4115 -0.1767 -0.8009
 1785TIP3    H226771   2.780   1.245  11.271 -2.0973  1.1275  0.9444
 1786TIP3   OH226772   5.011   4.017   2.527  0.2823  0.2858 -0.5126
 1786TIP3    H126773   4.956   4.096   2.528 -1.3278 -0.8038 -0.0713
 1786TIP3    H226774   5.050   4.015   2.615 -1.3063 -0.4840  0.2069
 1787TIP3   OH226775   3.307   1.488  11.553 -0.2538  0.3391  0.6170
 1787TIP3    H126776   3.386   1.441  11.528 -0.6372 -0.2886  0.5611
 1787TIP3    H226777   3.338   1.573  11.584  0.4233  0.1671  0.4183
 1788TIP3   OH226778   5.358   5.415   1.491 -0.1424 -0.6339 -0.6234
 1788TIP3    H126779   5.280   5.382   1.535  1.3083 -2.0097  1.0904
 1788TIP3    H226780   5.423   5.424   1.561  0.8989  1.6820 -1.7678
 1789TIP3   OH226781   2.125   3.679   1.677  0.5978 -0.2542  0.7986
 1789TIP3    H126782   2.212   3.645   1.696  1.5715  0.8109 -1.3779
 1789TIP3    H226783   2.133   3.774   1.688  0.0008 -0.0527 -0.3400
 1790TIP3   OH226784   0.442   6.520  12.867  0.5703 -0.6819 -0.6550
 1790TIP3    H126785   0.398   6.569  12.798 -1.1937 -0.6979  0.3921
 1790TIP3    H226786   0.401   6.549  12.948  2.1450 -1.1200  0.3651
 1791TIP3   OH226787   4.862   4.224  13.097 -0.0008 -0.0426 -0.8628
 1791TIP3    H126788   4.938   4.261  13.143 -1.5223  0.2959  1.5495
 1791TIP3    H226789   4.804   4.298  13.082 -1.5340 -0.8090  0.8675
 1792TIP3   OH226790   5.912   6.061  12.318 -0.4983 -0.7249 -0.1636
 1792TIP3    H126791   5.847   6.104  12.374  0.7275 -0.6385  1.2652
 1792TIP3    H226792   5.883   5.971  12.310 -0.7451 -0.7056  0.5336
 1793TIP3   OH226793   1.976   2.386   3.679 -0.4585 -0.0493  0.9655
 1793TIP3    H126794   1.966   2.480   3.662  1.2891 -0.2107 -1.5477
 1793TIP3    H226795   2.057   2.380   3.729  2.0402 -0.3237 -2.7094
 1794TIP3   OH226796   2.449   2.325   3.455  0.4014  0.1909  0.1950
 1794TIP3    H126797   2.400   2.334   3.374  1.8152  0.9243 -0.6372
 1794TIP3    H226798   2.428   2.404   3.505  2.0203  1.4228 -0.9471
 1795TIP3   OH226799   1.433   5.920   2.354 -0.0294 -0.2193 -0.2081
 1795TIP3    H126800   1.358   5.917   2.294 -0.7181 -1.1116  0.6758
 1795TIP3    H226801   1.433   5.835   2.398  0.2663  0.5016  1.2735
 1796TIP3   OH226802   0.281   5.660   5.673  0.1225 -0.4127  0.0953
 1796TIP3    H126803   0.280   5.636   5.766  0.2870  2.3082  0.8919
 1796TIP3    H226804   0.191   5.645   5.644  0.0902 -1.3733  0.6494
 1797TIP3   OH226805   2.613   3.974  13.128  0.0445  0.3017 -0.0013
 1797TIP3    H126806   2.537   3.947  13.075 -0.8763 -0.7143  1.7423
 1797TIP3    H226807   2.650   3.892  13.160  1.5019  0.8282 -0.2895
 1798TIP3   OH226808   3.841   2.184  16.194 -0.4101  0.4382 -0.0206
 1798TIP3    H126809   3.876   2.123  16.258  0.3523  0.7110 -0.1636
 1798TIP3    H226810   3.747   2.165  16.191 -0.4978  0.5855  1.3405
 1799TIP3   OH226811   2.912   2.539  16.823 -0.2597  0.1871 -0.4971
 1799TIP3    H126812   2.916   2.443  16.828  0.8650  0.2789  2.0375
 1799TIP3    H226813   2.995   2.569  16.859 -0.7570  2.1446 -0.8463
 1800TIP3   OH226814   1.920   4.541   4.137 -0.4157  0.4047 -0.3248
 1800TIP3    H126815   1.950   4.456   4.105 -0.7819  0.2152 -0.1701
 1800TIP3    H226816   1.864   4.575   4.067 -1.3332 -0.0734  0.1530
 1801TIP3   OH226817   3.934   2.203  15.338  0.7606  0.2959 -0.7829
 1801TIP3    H126818   3.858   2.161  15.297 -0.0481 -2.0339  2.6339
 1801TIP3    H226819   3.927   2.295  15.315 -0.6630 -0.5051 -4.0116
 1802TIP3   OH226820   6.079   1.303   3.128  0.2818 -0.0468  0.4414
 1802TIP3    H126821   6.062   1.393   3.154 -0.5340 -0.1925  0.4416
 1802TIP3    H226822   6.011   1.284   3.063  0.1716 -0.7997  0.7679
 1803TIP3   OH226823   1.189   5.897   4.760 -0.2201 -0.0219  0.9123
 1803TIP3    H126824   1.217   5.805   4.763 -0.1657 -0.0643 -0.2561
 1803TIP3    H226825   1.223   5.929   4.676  0.3261  1.2639  1.6037
 1804TIP3   OH226826   1.297   0.872  13.306  0.2833  0.1018 -0.6831
 1804TIP3    H126827   1.213   0.887  13.263  0.3958  0.4948 -0.7666
 1804TIP3    H226828   1.297   0.932  13.380  0.1871 -0.4122 -0.2596
 1805TIP3   OH226829   2.150   2.045  14.222 -0.1552  0.1209 -0.2393
 1805TIP3    H126830   2.087   1.984  14.261  0.5294 -0.2107  0.3980
 1805TIP3    H226831   2.234   1.999  14.227  0.3712  1.0855  0.2022
 1806TIP3   OH226832   1.162   4.888  13.662 -0.2107 -0.3822 -0.0820
 1806TIP3    H126833   1.106   4.935  13.724  1.8741  0.8054  1.0397
 1806TIP3    H226834   1.203   4.819  13.715 -0.2498 -0.9244 -0.7467
 1807TIP3   OH226835   3.177   3.188   6.704  0.4030 -0.5687 -0.5498
 1807TIP3    H126836   3.201   3.173   6.613  0.9544 -0.4711 -0.4210
 1807TIP3    H226837   3.188   3.103   6.746 -2.6039 -1.3862 -1.1465
 1808TIP3   OH226838   3.502   4.067   2.333  0.2897  0.7694  0.3015
 1808TIP3    H126839   3.458   4.061   2.418 -0.4731  1.5717 -0.0234
 1808TIP3    H226840   3.534   4.158   2.330  1.1806  0.4601  0.1426
 1809TIP3   OH226841   3.013   2.165  15.064 -0.2896 -0.6687  0.5385
 1809TIP3    H126842   3.091   2.113  15.084 -0.2900 -0.0484  2.2844
 1809TIP3    H226843   3.030   2.199  14.976  0.5809 -2.0008  0.1558
 1810TIP3   OH226844   1.795   6.689   2.755 -0.4012  1.0483 -0.1909
 1810TIP3    H126845   1.746   6.758   2.801  0.1554  0.8151  0.7742
 1810TIP3    H226846   1.879   6.684   2.801  0.8061  1.8483 -2.1911
 1811TIP3   OH226847   2.011   3.229   5.703 -0.3893 -0.1902 -0.1631
 1811TIP3    H126848   1.918   3.251   5.707 -0.6586 -1.2949  0.1144
 1811TIP3    H226849   2.019   3.172   5.626  0.3487  1.1370 -1.1046
 1812TIP3   OH226850   6.540   6.602  12.492  0.2801  0.0667  0.1611
 1812TIP3    H126851   6.485   6.632  12.420  0.3529 -0.4659 -0.1205
 1812TIP3    H226852   6.550   6.508  12.477 -1.1170 -0.3996  1.7938
 1813TIP3   OH226853   6.045   4.465  15.978  0.8297  0.3248 -0.3196
 1813TIP3    H126854   6.087   4.452  15.893  0.4594  1.1357 -0.6371
 1813TIP3    H226855   5.954   4.488  15.956  0.5472 -0.1548  0.3176
 1814TIP3   OH226856   1.050   1.542  13.991  0.2383  0.0146 -0.8336
 1814TIP3    H126857   1.131   1.567  13.948 -1.1543  0.3092 -3.4381
 1814TIP3    H226858   1.060   1.448  14.008  0.9385 -0.0498 -1.5585
 1815TIP3   OH226859   1.664   1.285  11.819 -0.2917 -0.0483  0.4912
 1815TIP3    H126860   1.731   1.276  11.751 -1.4308 -0.3453 -0.6328
 1815TIP3    H226861   1.587   1.241  11.783 -1.0294  0.0661  1.8528
 1816TIP3   OH226862   3.097   0.912   5.721  0.3778 -0.3560 -0.5160
 1816TIP3    H126863   3.187   0.893   5.747  0.4651 -0.2940 -0.7725
 1816TIP3    H226864   3.086   0.865   5.638 -0.2410 -1.4537  0.1559
 1817TIP3   OH226865   3.875   2.675   0.106  0.4327 -0.0467  0.0679
 1817TIP3    H126866   3.848   2.767   0.111  0.4743  0.0064 -0.5933
 1817TIP3    H226867   3.820   2.630   0.170  0.0678  0.3649  0.0475
 1818TIP3   OH226868   1.265   1.474  16.982 -0.1199  0.0279  0.0833
 1818TIP3    H126869   1.354   1.472  16.947  0.4548 -1.4048  1.4759
 1818TIP3    H226870   1.276   1.504  17.072 -1.0721  0.0358  0.1997
 1819TIP3   OH226871   4.734   4.328  10.599 -0.3666  0.2239  0.2818
 1819TIP3    H126872   4.776   4.264  10.541 -1.4101 -0.3378  0.1266
 1819TIP3    H226873   4.783   4.323  10.680  0.8624  0.7243 -0.4065
 1820TIP3   OH226874   2.006   5.794  13.299 -0.1835  1.1653 -0.0923
 1820TIP3    H126875   1.917   5.788  13.334 -0.4738 -0.4615 -1.0066
 1820TIP3    H226876   2.020   5.887  13.286 -2.8309  1.3570 -2.5571
 1821TIP3   OH226877   0.296   0.762   5.588 -0.3022 -0.6184  0.2440
 1821TIP3    H126878   0.391   0.762   5.584 -0.2354  0.9396  1.0302
 1821TIP3    H226879   0.272   0.855   5.581 -1.6876 -0.8715  1.2306
 1822TIP3   OH226880   4.251   4.962   5.791  0.6081  0.0938 -0.2741
 1822TIP3    H126881   4.298   4.901   5.849  1.1258 -0.8573 -1.6486
 1822TIP3    H226882   4.282   5.048   5.818 -0.4374 -0.1509  1.9987
 1823TIP3   OH226883   5.039   3.442   3.537 -0.1769 -0.0342 -0.5363
 1823TIP3    H126884   5.096   3.411   3.607 -0.9770  1.4727  0.8599
 1823TIP3    H226885   5.048   3.378   3.467 -0.5273 -2.4596  1.5278
 1824TIP3   OH226886   1.262   4.467  16.038  0.0015 -0.3022  0.6864
 1824TIP3    H126887   1.227   4.378  16.045 -0.4062 -0.1431  0.7164
 1824TIP3    H226888   1.184   4.522  16.029  0.2825 -0.0471 -0.3446
 1825TIP3   OH226889   0.098   6.295  12.036 -0.0471  0.0642 -0.2660
 1825TIP3    H126890   0.133   6.265  11.952  0.2009  1.8859 -0.8573
 1825TIP3    H226891   0.031   6.359  12.013  0.3907  0.9872  0.8967
 1826TIP3   OH226892   6.507   5.100  17.135  0.1519 -0.2416 -0.2119
 1826TIP3    H126893   6.580   5.161  17.149 -1.4051  1.8611 -0.6454
 1826TIP3    H226894   6.486   5.110  17.042 -0.6889 -0.7926 -0.0866
 1827TIP3   OH226895   5.071   0.012  13.355  0.4203  0.0953  0.0080
 1827TIP3    H126896   5.086   0.053  13.270 -0.7545  0.0268 -0.2379
 1827TIP3    H226897   5.059   0.085  13.415  4.4827  0.3122  0.8419
 1828TIP3   OH226898   3.777   6.581  16.364  0.2150  0.0485 -0.1982
 1828TIP3    H126899   3.685   6.555  16.372  0.6810 -1.3307  1.1254
 1828TIP3    H226900   3.823   6.500  16.344  1.0605  0.8899 -1.8600
 1829TIP3   OH226901   3.584   1.628  14.840 -1.0472  0.8342 -0.3779
 1829TIP3    H126902   3.508   1.600  14.891 -0.8814  1.3376  0.1568
 1829TIP3    H226903   3.623   1.547  14.808 -1.0195  0.4962  0.4955
 1830TIP3   OH226904   2.521   3.212   2.909 -0.5757  0.0821  0.4442
 1830TIP3    H126905   2.561   3.237   2.992 -0.3945  0.0151  0.3755
 1830TIP3    H226906   2.432   3.184   2.934 -0.3003 -0.5866  0.7022
 1831TIP3   OH226907   3.777   2.595   1.596  0.4546  0.0663  0.1203
 1831TIP3    H126908   3.703   2.640   1.637 -0.2280  0.0282 -1.0086
 1831TIP3    H226909   3.736   2.536   1.532  1.4230 -0.7543  0.2430
 1832TIP3   OH226910   0.112   4.812  15.254  0.5227 -0.0415  0.2395
 1832TIP3    H126911   0.106   4.854  15.169  1.3463 -0.9909 -0.3126
 1832TIP3    H226912   0.144   4.724  15.235  1.5642  0.0073  1.6128
 1833TIP3   OH226913   6.005   6.476  16.095 -0.3437 -0.5133 -0.6913
 1833TIP3    H126914   5.998   6.435  16.009 -1.6196  0.5449 -1.1249
 1833TIP3    H226915   5.961   6.560  16.086  0.6445  0.2008  0.6564
 1834TIP3   OH226916   2.150   1.787   5.590  0.4035 -0.1546 -0.5889
 1834TIP3    H126917   2.088   1.735   5.539 -1.2660  2.0393 -0.9685
 1834TIP3    H226918   2.235   1.771   5.549 -0.4066 -0.8494 -2.0690
 1835TIP3   OH226919   3.690   5.506   1.479  0.6302 -0.1779  0.3604
 1835TIP3    H126920   3.673   5.427   1.531 -0.8388 -0.2652 -0.2032
 1835TIP3    H226921   3.621   5.506   1.412  1.2819  0.9930 -0.3412
 1836TIP3   OH226922   1.149   2.091   0.457  0.0873 -0.3176 -0.3818
 1836TIP3    H126923   1.187   2.162   0.405 -0.6402  0.6436  0.3567
 1836TIP3    H226924   1.090   2.046   0.396  1.9589 -1.5376 -1.3980
 1837TIP3   OH226925   3.375   4.466   3.902  0.1479 -0.1327  0.3086
 1837TIP3    H126926   3.348   4.538   3.845  2.6848  0.7955  0.1335
 1837TIP3    H226927   3.355   4.496   3.990 -0.1131  0.1794  0.1431
 1838TIP3   OH226928   6.616   2.043  15.416 -0.5778 -0.0377  0.1864
 1838TIP3    H126929   6.598   1.952  15.440 -1.1597 -0.2331 -0.9710
 1838TIP3    H226930   6.709   2.055  15.438  0.7080 -2.1646 -3.2500
 1839TIP3   OH226931   3.412   0.013  14.616 -0.0327 -0.0533  0.2219
 1839TIP3    H126932   3.401  -0.032  14.533  0.9548  0.3982 -0.1752
 1839TIP3    H226933   3.492   0.065  14.605 -1.7545  2.7988  0.2081
 1840TIP3   OH226934   2.305   3.384   1.961  0.8526 -0.2035  0.2649
 1840TIP3    H126935   2.346   3.454   1.910  1.4300 -1.2677 -0.7468
 1840TIP3    H226936   2.211   3.400   1.951  0.9663 -0.0752 -0.6858
 1841TIP3   OH226937   2.021   4.944   6.268  0.2825  0.1684  0.0430
 1841TIP3    H126938   2.067   4.885   6.208 -0.9147  0.9910 -1.7677
 1841TIP3    H226939   1.983   5.011   6.211 -1.7383  0.4592  1.6287
 1842TIP3   OH226940   3.399   4.129  14.609  0.0483 -0.1049  0.4124
 1842TIP3    H126941   3.417   4.055  14.551  1.5883 -0.3101  1.0989
 1842TIP3    H226942   3.484   4.170  14.622 -0.5903  1.0834  1.0017
 1843TIP3   OH226943   5.784   1.103  12.501 -0.0620  0.3437 -0.1258
 1843TIP3    H126944   5.820   1.034  12.445 -0.8915 -0.7019  0.5916
 1843TIP3    H226945   5.797   1.071  12.590 -1.6108  0.5048  0.1835
 1844TIP3   OH226946   5.757   4.957  14.942  0.0763  0.6170 -0.0005
 1844TIP3    H126947   5.732   4.866  14.962  0.0201  0.7093  0.3454
 1844TIP3    H226948   5.740   5.005  15.023 -1.0208  1.1662 -0.5434
 1845TIP3   OH226949   5.925   1.090   4.591  0.2098  0.1306 -0.3343
 1845TIP3    H126950   5.902   1.071   4.682 -3.1458 -0.7944 -1.2361
 1845TIP3    H226951   5.965   1.009   4.559 -0.7309 -0.3793 -0.2613
 1846TIP3   OH226952   5.167   0.058   1.720 -0.1734  0.0706 -0.3297
 1846TIP3    H126953   5.142   0.120   1.788  0.2450 -0.6225  0.4812
 1846TIP3    H226954   5.263   0.051   1.727 -0.0824  0.2401 -1.2167
 1847TIP3   OH226955   1.719   2.929  14.702  0.1669  0.8168  0.1134
 1847TIP3    H126956   1.658   3.002  14.688  1.7289  2.2102  0.1663
 1847TIP3    H226957   1.740   2.897  14.614 -1.3608 -0.3515  0.1349
 1848TIP3   OH226958   5.371   0.895  14.762 -0.4963 -0.4885  0.2653
 1848TIP3    H126959   5.308   0.924  14.829  0.6407 -1.6870  1.9207
 1848TIP3    H226960   5.358   0.801  14.756 -1.4895 -0.2583 -2.2480
 1849TIP3   OH226961   4.853   2.337  15.835  0.3111  0.0312 -0.4179
 1849TIP3    H126962   4.849   2.373  15.923  0.7021 -0.3323 -0.2450
 1849TIP3    H226963   4.761   2.326  15.809  0.1805  1.5009 -0.6370
 1850TIP3   OH226964   1.292   5.771  15.507 -0.1673  0.4417 -0.2505
 1850TIP3    H126965   1.307   5.692  15.454  0.1581  0.1458  0.2657
 1850TIP3    H226966   1.298   5.740  15.597 -1.0175  0.8833 -0.0309
 1851TIP3   OH226967   0.931   1.057   2.895 -0.3342 -0.1406  0.4176
 1851TIP3    H126968   0.864   1.000   2.932 -1.3097 -0.2589 -1.4014
 1851TIP3    H226969   0.900   1.146   2.915 -1.9096 -0.1380 -1.6524
 1852TIP3   OH226970   0.011   4.611  11.109  0.4258 -0.6821  0.7458
 1852TIP3    H126971  -0.007   4.697  11.145 -0.7903 -0.0843 -1.1428
 1852TIP3    H226972  -0.013   4.617  11.017  0.9710 -2.8473  0.3830
 1853TIP3   OH226973   6.295   0.234   1.088  0.2599  1.0397 -0.0558
 1853TIP3    H126974   6.339   0.266   1.010  2.5499 -0.9072  0.3181
 1853TIP3    H226975   6.364   0.229   1.154 -0.5463 -1.7737  0.7106
 1854TIP3   OH226976   4.326   2.843  11.973  0.2821 -0.2218 -0.3464
 1854TIP3    H126977   4.399   2.813  11.918  1.3948  0.6202  0.6338
 1854TIP3    H226978   4.258   2.868  11.910  1.7812  1.3873 -1.4273
 1855TIP3   OH226979   0.669   2.383   5.619  0.9359  0.4526  0.4605
 1855TIP3    H126980   0.623   2.397   5.537  0.8027 -1.9901  0.0330
 1855TIP3    H226981   0.722   2.304   5.604  1.7869  0.6062  2.3483
 1856TIP3   OH226982   2.382   2.641   4.786  0.4151  0.3351 -0.3605
 1856TIP3    H126983   2.329   2.711   4.748 -0.8080  0.0085  0.6507
 1856TIP3    H226984   2.465   2.683   4.810  1.1053  0.6102 -2.9812
 1857TIP3   OH226985   0.355   6.281   2.544 -0.4362  0.0566  0.0876
 1857TIP3    H126986   0.363   6.203   2.489 -0.0797  0.1010  0.0738
 1857TIP3    H226987   0.401   6.350   2.495 -0.4481  0.1887  0.2616
 1858TIP3   OH226988   5.636   0.200   6.073  0.6599 -1.1997 -0.0376
 1858TIP3    H126989   5.673   0.125   6.119 -1.1163 -2.0618  0.0636
 1858TIP3    H226990   5.543   0.180   6.066  0.2480  0.7409 -0.5398
 1859TIP3   OH226991   5.030   0.890  16.511 -0.0655  0.2030  0.0005
 1859TIP3    H126992   4.960   0.883  16.446  0.1009 -1.6964 -0.0475
 1859TIP3    H226993   5.107   0.918  16.462 -0.2401  0.0012 -0.3866
 1860TIP3   OH226994   5.028   3.470  16.594 -0.4660 -0.1877 -0.0101
 1860TIP3    H126995   5.043   3.443  16.685 -2.2391 -0.2100  0.3058
 1860TIP3    H226996   5.051   3.563  16.593  4.0246 -1.0532 -0.7063
 1861TIP3   OH226997   2.023   4.395   2.484 -0.1263  0.4513 -0.5236
 1861TIP3    H126998   2.060   4.310   2.506  0.1062  0.6951  0.0643
 1861TIP3    H226999   2.049   4.410   2.393  2.5935  1.2877  0.3039
 1862TIP3   OH227000   4.817   5.194  14.305  0.3582 -0.6159  0.1239
 1862TIP3    H127001   4.884   5.176  14.371  1.3038 -0.9224 -0.8937
 1862TIP3    H227002   4.865   5.233  14.232 -0.7008 -0.0754 -0.3023
 1863TIP3   OH227003   3.778   2.437   2.819 -0.5925  0.2936 -0.1725
 1863TIP3    H127004   3.738   2.523   2.807 -2.4278 -0.4580  0.2440
 1863TIP3    H227005   3.833   2.425   2.742  0.4013  2.1957  0.1978
 1864TIP3   OH227006   3.290   5.480  14.955 -0.1290 -0.0400  0.9769
 1864TIP3    H127007   3.372   5.517  14.988 -0.9656 -0.6113  4.0029
 1864TIP3    H227008   3.253   5.550  14.901  1.4709  0.9380  1.0834
 1865TIP3   OH227009   0.904   6.598   6.217  0.0360 -0.7403 -0.0321
 1865TIP3    H127010   0.847   6.628   6.287  0.4205  0.9638 -0.4105
 1865TIP3    H227011   0.862   6.627   6.137  0.4482 -1.1854 -0.4167
 1866TIP3   OH227012   6.110   3.393   3.544 -0.2162 -0.3131  0.0579
 1866TIP3    H127013   6.046   3.462   3.556 -1.8047 -1.7174  0.0224
 1866TIP3    H227014   6.113   3.378   3.449  2.1583  1.4880 -0.2382
 1867TIP3   OH227015   4.994   2.283   1.389 -0.3044  0.5050  0.4880
 1867TIP3    H127016   4.938   2.251   1.460 -1.1169  1.8283  0.4780
 1867TIP3    H227017   5.077   2.305   1.432 -0.0389 -0.7541  0.6370
 1868TIP3   OH227018   5.845   4.267  15.307 -0.2450  0.0444  0.7199
 1868TIP3    H127019   5.763   4.261  15.356 -1.2176  0.3533 -0.8141
 1868TIP3    H227020   5.820   4.251  15.216  1.8491 -3.0189  0.5196
 1869TIP3   OH227021   0.119   2.936   1.742 -0.2141 -0.2780 -0.1423
 1869TIP3    H127022   0.117   2.970   1.653  0.0289 -0.6753 -0.3061
 1869TIP3    H227023   0.140   3.012   1.797 -3.5148  0.6820 -0.0343
 1870TIP3   OH227024   4.339   6.449  17.147  0.6406 -0.1597  0.1673
 1870TIP3    H127025   4.404   6.445  17.077 -0.1299  0.1177 -0.5748
 1870TIP3    H227026   4.326   6.543  17.163  0.0834 -0.2023 -0.0155
 1871TIP3   OH227027   1.312   6.057  14.920 -0.2864  0.0446  0.1377
 1871TIP3    H127028   1.219   6.036  14.915 -0.6594  1.7178 -0.8318
 1871TIP3    H227029   1.322   6.136  14.867  1.9115 -0.7783 -0.8294
 1872TIP3   OH227030   5.217   1.839   1.948  0.4858  0.4738  0.2828
 1872TIP3    H127031   5.168   1.800   2.020 -0.4765  0.9470 -0.0984
 1872TIP3    H227032   5.189   1.931   1.946 -0.7938  0.0968 -1.7371
 1873TIP3   OH227033   4.025   0.616   1.537 -1.0460 -0.1091 -0.1021
 1873TIP3    H127034   3.973   0.542   1.506  0.1228 -1.1142  0.2607
 1873TIP3    H227035   4.039   0.599   1.630  2.3081 -1.4355 -0.7093
 1874TIP3   OH227036   1.843   0.330  14.107 -0.3124  0.2031 -0.4275
 1874TIP3    H127037   1.835   0.393  14.035 -0.3777 -0.0766 -0.6639
 1874TIP3    H227038   1.769   0.270  14.096  0.7405 -0.9916 -1.2582
 1875TIP3   OH227039   5.115   4.000   0.410 -0.0364  0.0540  0.1156
 1875TIP3    H127040   5.163   3.971   0.488 -0.1544 -1.8441 -0.4683
 1875TIP3    H227041   5.043   4.052   0.444  0.1917 -0.3485  1.2650
 1876TIP3   OH227042   2.306   1.343  17.097 -0.9690  0.2528 -0.1727
 1876TIP3    H127043   2.236   1.281  17.116  0.0036 -1.0772 -0.7343
 1876TIP3    H227044   2.288   1.372  17.008 -0.6200 -0.4054 -0.4733
 1877TIP3   OH227045   6.457   4.055  12.844 -0.2942 -0.9413  0.0218
 1877TIP3    H127046   6.469   4.126  12.907  0.7343 -1.4268  0.3986
 1877TIP3    H227047   6.363   4.037  12.844 -0.4588 -0.1023  0.4875
 1878TIP3   OH227048   3.287   5.090   0.589  0.3105 -0.0364  0.5683
 1878TIP3    H127049   3.216   5.077   0.527  0.6790 -1.0011  0.3312
 1878TIP3    H227050   3.272   5.177   0.625  0.5403  0.8673 -1.4324
 1879TIP3   OH227051   2.923   5.515  15.984  0.0052  0.2579 -0.2554
 1879TIP3    H127052   3.003   5.471  16.014  1.5571  2.2908 -1.1562
 1879TIP3    H227053   2.893   5.461  15.910  2.3415  1.0255 -1.8906
 1880TIP3   OH227054   0.277   1.669  13.116  0.2557 -0.4122 -0.0694
 1880TIP3    H127055   0.268   1.691  13.209 -0.3227  1.1601 -0.4710
 1880TIP3    H227056   0.247   1.578  13.110 -0.9740 -0.1181  1.0819
 1881TIP3   OH227057   0.043   0.464   3.754  0.0548  0.3932  0.1535
 1881TIP3    H127058   0.016   0.376   3.729  3.2369 -1.0066  1.1449
 1881TIP3    H227059   0.041   0.514   3.672 -3.7935  0.1463 -0.0885
 1882TIP3   OH227060   2.419   2.880   3.088 -0.2101 -0.0507 -0.4616
 1882TIP3    H127061   2.368   2.825   3.147 -0.3197  2.2618  1.7570
 1882TIP3    H227062   2.369   2.961   3.081  1.8206  1.2932 -0.3475
 1883TIP3   OH227063   4.013   3.732   1.807  0.0074 -0.4121  0.0098
 1883TIP3    H127064   3.945   3.748   1.742  1.3603  3.4698 -0.7064
 1883TIP3    H227065   3.985   3.782   1.884  1.1701 -0.2421  0.3464
 1884TIP3   OH227066   5.290   4.693  15.642  0.1399 -0.1544  0.0982
 1884TIP3    H127067   5.241   4.627  15.593  0.9969  0.4032 -1.5856
 1884TIP3    H227068   5.240   4.773  15.632  0.0773 -0.1310  0.5603
 1885TIP3   OH227069   5.924   5.728   5.921  0.1302  0.3265  0.6474
 1885TIP3    H127070   5.828   5.726   5.917  0.1013  0.4057  1.2963
 1885TIP3    H227071   5.945   5.795   5.985  0.6297  0.4659  0.3454
 1886TIP3   OH227072   6.045   4.609  15.411  0.5004  0.0618  0.9478
 1886TIP3    H127073   6.136   4.604  15.381  0.0120 -2.5922 -0.4221
 1886TIP3    H227074   6.004   4.672  15.352  1.2945  0.8625  1.2225
 1887TIP3   OH227075   5.747   5.581  12.623 -0.4861 -0.2524  0.6386
 1887TIP3    H127076   5.812   5.520  12.657  0.9896  1.1725  0.4317
 1887TIP3    H227077   5.765   5.585  12.529 -2.6180 -1.8594  0.0726
 1888TIP3   OH227078   0.278   0.535   5.250  0.0139 -0.7157 -1.1084
 1888TIP3    H127079   0.328   0.539   5.332 -1.2754  1.8847 -0.3244
 1888TIP3    H227080   0.322   0.597   5.192 -0.4979 -0.7266 -1.5151
 1889TIP3   OH227081   4.349   6.716   0.980  0.2882 -0.4327 -0.2437
 1889TIP3    H127082   4.435   6.748   0.952  0.1234 -0.2299 -0.5248
 1889TIP3    H227083   4.366   6.629   1.016  0.4670 -0.8539 -1.2977
 1890TIP3   OH227084   5.237   3.030  16.431 -0.2187  0.1274  0.0968
 1890TIP3    H127085   5.173   3.019  16.500 -1.0409  0.7050 -0.5508
 1890TIP3    H227086   5.264   3.122  16.438  0.7957 -0.1912  0.5718
 1891TIP3   OH227087   3.528   4.051  16.941 -0.1493  0.6526  0.3822
 1891TIP3    H127088   3.579   4.093  17.010  0.7368 -0.0174  0.1561
 1891TIP3    H227089   3.495   3.971  16.980  2.2151 -0.8856 -0.5513
 1892TIP3   OH227090   3.067   2.719  15.405 -0.6111 -0.3529 -0.3162
 1892TIP3    H127091   3.120   2.776  15.350  0.8589 -0.4648  0.9158
 1892TIP3    H227092   3.010   2.779  15.454  0.0854 -0.0186  0.0999
 1893TIP3   OH227093   3.257   0.469  11.694 -0.1665 -0.5973 -0.0303
 1893TIP3    H127094   3.227   0.486  11.784  1.9214  1.8393  0.3239
 1893TIP3    H227095   3.240   0.550  11.647  0.6084 -1.1383 -1.3093
 1894TIP3   OH227096   5.122   1.137  12.748  0.4479 -0.5469 -0.3734
 1894TIP3    H127097   5.090   1.219  12.786  2.6544 -0.0876  0.6912
 1894TIP3    H227098   5.046   1.099  12.704 -1.6890  0.0404  2.5553
 1895TIP3   OH227099   4.839   1.239  11.623  0.3455 -0.4884  0.2625
 1895TIP3    H127100   4.864   1.281  11.541  2.4749 -0.9500  0.6150
 1895TIP3    H227101   4.842   1.309  11.688 -2.5039  0.1468 -0.1602
 1896TIP3   OH227102   4.622   3.456   5.083  0.3944  0.6126 -0.7630
 1896TIP3    H127103   4.547   3.508   5.058  0.0089  0.3572 -0.1711
 1896TIP3    H227104   4.691   3.482   5.022 -0.3613  0.3535 -1.7600
 1897TIP3   OH227105   3.735   1.401  12.681  0.4182 -0.2781  0.6401
 1897TIP3    H127106   3.829   1.422  12.686  1.3061 -2.6287 -2.3464
 1897TIP3    H227107   3.701   1.461  12.615  0.1301 -0.2168  0.8471
 1898TIP3   OH227108   4.101   2.163   6.019 -0.7462  0.3317  0.1914
 1898TIP3    H127109   4.109   2.223   6.094 -1.4567  0.1854  0.3956
 1898TIP3    H227110   4.011   2.130   6.025 -0.7433  0.1618 -0.6109
 1899TIP3   OH227111   0.879   4.868   2.138  0.3494 -1.0001  0.0280
 1899TIP3    H127112   0.892   4.777   2.164 -0.9613 -1.2656 -0.1579
 1899TIP3    H227113   0.846   4.862   2.048 -0.5371 -0.3932  0.2999
 1900TIP3   OH227114   5.682   3.324  15.564 -0.2316 -0.2580 -0.2210
 1900TIP3    H127115   5.632   3.393  15.520 -0.9653  0.1378  1.1831
 1900TIP3    H227116   5.773   3.342  15.539 -0.5793  0.2597 -1.1480
 1901TIP3   OH227117   5.301   5.883  11.237 -0.0784 -0.0632 -0.4941
 1901TIP3    H127118   5.212   5.858  11.212 -0.2653 -0.3486  0.4288
 1901TIP3    H227119   5.320   5.959  11.183 -1.1995  0.5036 -0.1210
 1902TIP3   OH227120   3.096   2.500  16.544 -0.4249 -0.1958  0.3235
 1902TIP3    H127121   3.106   2.514  16.450 -1.2321 -2.9440 -0.2459
 1902TIP3    H227122   3.003   2.486  16.557 -0.1424 -1.3133  1.2907
 1903TIP3   OH227123   6.269   2.647   3.286  0.5755 -0.5217 -0.6733
 1903TIP3    H127124   6.307   2.658   3.374  1.3671  0.2739 -1.1070
 1903TIP3    H227125   6.341   2.611   3.234 -0.2598 -2.2732 -0.7134
 1904TIP3   OH227126   4.571   0.937  16.176  0.4530  0.3714  0.3883
 1904TIP3    H127127   4.517   0.982  16.241 -1.5833  1.5751 -1.9751
 1904TIP3    H227128   4.549   0.844  16.186  0.2736  0.5194  1.4615
 1905TIP3   OH227129   1.830   1.582   0.547 -0.1901 -0.1015 -0.1984
 1905TIP3    H127130   1.758   1.594   0.609  0.2473 -2.2356  0.8003
 1905TIP3    H227131   1.815   1.497   0.508  0.6786  0.3314 -1.5359
 1906TIP3   OH227132   4.247   2.126   5.530  0.5070 -0.3240 -0.0482
 1906TIP3    H127133   4.246   2.128   5.626  2.3247 -0.1798 -0.0011
 1906TIP3    H227134   4.339   2.138   5.507 -0.1399  1.7743 -1.8606
 1907TIP3   OH227135   1.296   4.035  11.183  0.1709 -0.0158  0.4233
 1907TIP3    H127136   1.332   4.111  11.136  1.8918 -1.0802 -0.0652
 1907TIP3    H227137   1.371   3.995  11.225 -0.7435 -1.3321  0.8598
 1908TIP3   OH227138   5.429   2.024  16.334 -0.1274  0.5710 -0.1903
 1908TIP3    H127139   5.439   1.931  16.356 -0.3088  0.4188 -0.7598
 1908TIP3    H227140   5.399   2.025  16.244  0.6995  1.2072 -0.4697
 1909TIP3   OH227141   2.303   5.305  15.994  0.2825  0.0552 -0.3838
 1909TIP3    H127142   2.348   5.334  16.073  0.4617 -0.6711 -0.2085
 1909TIP3    H227143   2.271   5.386  15.953 -0.3199  0.3859  0.7210
 1910TIP3   OH227144   3.026   4.030  12.403 -0.2693  0.1355  0.4224
 1910TIP3    H127145   3.114   4.007  12.432 -1.2600 -1.8708  2.1317
 1910TIP3    H227146   2.991   3.948  12.367 -1.7171  0.6914  0.5050
 1911TIP3   OH227147   3.903   3.649  13.825 -0.0078  0.6134  0.9971
 1911TIP3    H127148   3.887   3.684  13.913  2.8828  2.9146  0.7777
 1911TIP3    H227149   3.998   3.644  13.819 -0.1638 -2.5128 -0.9847
 1912TIP3   OH227150   2.972   1.148   5.706 -0.2315 -0.6749 -0.2681
 1912TIP3    H127151   2.937   1.160   5.617 -1.7972 -1.1114  0.2481
 1912TIP3    H227152   3.034   1.076   5.698  0.0234 -0.3818 -1.0891
 1913TIP3   OH227153   1.461   5.240  16.562 -0.4295 -0.1265  0.9411
 1913TIP3    H127154   1.510   5.216  16.482 -0.0043  1.7309  0.6011
 1913TIP3    H227155   1.508   5.315  16.597 -1.5182  0.0400  2.1081
 1914TIP3   OH227156   6.182   4.193  11.398  0.5153  0.2281  0.3880
 1914TIP3    H127157   6.229   4.137  11.459  0.1282  0.4564  0.8939
 1914TIP3    H227158   6.246   4.261  11.374  0.6431  0.1769  0.5860
 1915TIP3   OH227159   0.265   2.119  13.544 -0.4449  0.7645  0.4793
 1915TIP3    H127160   0.298   2.169  13.469 -0.5723  0.6917  0.3738
 1915TIP3    H227161   0.242   2.186  13.609  1.5148  0.7695  1.2439
 1916TIP3   OH227162   2.283   0.585  13.036  0.0492 -0.2392  0.9107
 1916TIP3    H127163   2.306   0.493  13.046  0.6070 -0.2967 -0.5495
 1916TIP3    H227164   2.359   0.624  12.992 -0.6041  0.6831  0.5568
 1917TIP3   OH227165   6.303   3.549  11.500  0.2116  0.1408  0.3188
 1917TIP3    H127166   6.299   3.619  11.566  0.0493  1.8697 -1.4157
 1917TIP3    H227167   6.379   3.572  11.447  1.2446 -2.0666  0.7531
 1918TIP3   OH227168   4.996   1.944  14.993  0.4902 -0.1941  0.0871
 1918TIP3    H127169   4.977   2.019  15.049  0.1505 -0.9871  1.0593
 1918TIP3    H227170   5.086   1.918  15.017  0.5251 -0.2342 -0.0853
 1919TIP3   OH227171   0.136   3.818   1.249 -0.4738 -0.4864  0.0749
 1919TIP3    H127172   0.184   3.741   1.219 -0.4801 -0.5227  0.1571
 1919TIP3    H227173   0.179   3.842   1.331 -0.2938 -0.2350 -0.0949
 1920TIP3   OH227174   0.396   6.107   3.061  0.2214  0.1545 -0.0459
 1920TIP3    H127175   0.333   6.169   3.021  0.6069  0.4947 -0.1313
 1920TIP3    H227176   0.392   6.127   3.154  0.9901  0.9172 -0.1664
 1921TIP3   OH227177   2.328   2.666  16.854  0.3540 -0.7179 -0.0429
 1921TIP3    H127178   2.407   2.702  16.897 -0.6056  0.9174  0.4532
 1921TIP3    H227179   2.275   2.632  16.926 -0.7611  1.0308  0.0296
 1922TIP3   OH227180   0.358   2.967   1.321  0.2190 -0.3351 -0.2806
 1922TIP3    H127181   0.400   2.996   1.402 -0.0031  1.5883 -0.8209
 1922TIP3    H227182   0.338   2.875   1.337 -1.0805  0.3101  2.4011
 1923TIP3   OH227183   1.428   4.508   2.206  0.5268  0.4809  0.1623
 1923TIP3    H127184   1.468   4.531   2.290 -0.3137 -0.7236  0.9193
 1923TIP3    H227185   1.490   4.449   2.165 -0.6187 -1.8516  1.5911
 1924TIP3   OH227186   0.533   4.400   1.693  0.7607  0.0176 -0.0995
 1924TIP3    H127187   0.456   4.352   1.665  1.5070 -0.9883 -0.4572
 1924TIP3    H227188   0.553   4.458   1.619 -0.4624  1.3485  0.5461
 1925TIP3   OH227189   2.513   4.447  13.365  0.0795 -0.6177 -0.0264
 1925TIP3    H127190   2.591   4.411  13.408  0.2365 -0.5896 -0.2858
 1925TIP3    H227191   2.537   4.537  13.342 -0.2434 -0.4078  0.4408
 1926TIP3   OH227192   1.785   6.192   5.491 -0.0817 -0.7431 -0.6776
 1926TIP3    H127193   1.766   6.152   5.575 -0.1590 -1.9775 -1.2549
 1926TIP3    H227194   1.699   6.208   5.452 -0.0848  0.8689 -0.0831
 1927TIP3   OH227195   0.250   2.004  12.557  0.1762  0.0254  0.0832
 1927TIP3    H127196   0.308   1.996  12.482 -1.0602 -2.7883 -0.7129
 1927TIP3    H227197   0.164   2.024  12.519 -1.1095 -4.2719  0.2742
 1928TIP3   OH227198   4.375   0.552  14.006 -0.3392  0.7052  0.4464
 1928TIP3    H127199   4.440   0.534  14.074 -0.7400  0.9432  0.8933
 1928TIP3    H227200   4.293   0.517  14.040 -0.1776 -0.9643 -0.7598
 1929TIP3   OH227201   3.331   6.321   1.758  0.3336 -0.5909 -0.1911
 1929TIP3    H127202   3.354   6.240   1.803 -0.0786 -0.6557 -0.0986
 1929TIP3    H227203   3.345   6.390   1.823 -1.2600 -0.7772  0.3897
 1930TIP3   OH227204   6.516   1.098   0.653 -0.0085  0.0169  0.0503
 1930TIP3    H127205   6.456   1.051   0.712  0.3921 -1.5421 -0.7280
 1930TIP3    H227206   6.470   1.099   0.569 -0.1821  1.4216  0.1448
 1931TIP3   OH227207   3.693   6.733  13.952  0.6105  0.3745  0.2856
 1931TIP3    H127208   3.780   6.698  13.967  1.2131  1.0623 -1.3505
 1931TIP3    H227209   3.643   6.660  13.916  0.6556  0.1178  0.7420
 1932TIP3   OH227210   4.713   1.723   5.250 -0.0203  0.1784 -0.4923
 1932TIP3    H127211   4.738   1.809   5.285  0.0840 -0.2331  0.4723
 1932TIP3    H227212   4.650   1.743   5.181 -0.1291  1.0201 -0.1668
 1933TIP3   OH227213   5.977   3.983   5.433  0.3787  0.8683  0.4943
 1933TIP3    H127214   6.071   3.965   5.427  0.0081 -1.3484  0.5805
 1933TIP3    H227215   5.939   3.936   5.359 -0.6120  2.5470 -0.1244
 1934TIP3   OH227216   4.217   2.855   4.818 -0.0739 -0.0639 -0.1571
 1934TIP3    H127217   4.227   2.772   4.771  1.9370  0.8340 -1.4214
 1934TIP3    H227218   4.249   2.921   4.757 -0.9913  1.5860  1.0869
 1935TIP3   OH227219   4.538   1.258   2.481 -0.2296  0.2859  0.0033
 1935TIP3    H127220   4.472   1.315   2.521 -1.8865 -1.7023  0.2927
 1935TIP3    H227221   4.621   1.302   2.499 -1.1950  1.3143  2.4847
 1936TIP3   OH227222   1.330   1.455   0.279 -0.3356 -0.1967 -0.3225
 1936TIP3    H127223   1.354   1.536   0.323  0.4313  0.3978 -1.7796
 1936TIP3    H227224   1.400   1.440   0.216 -2.1949 -0.1327 -2.5073
 1937TIP3   OH227225   1.841   1.264  13.013 -0.3311 -0.2891  0.2617
 1937TIP3    H127226   1.778   1.205  12.973 -1.1354  1.0080 -0.4361
 1937TIP3    H227227   1.921   1.252  12.960 -0.9789  0.4286 -0.9140
 1938TIP3   OH227228   3.788   5.587  14.212 -0.6445 -0.0978 -0.1442
 1938TIP3    H127229   3.699   5.618  14.195 -0.4604 -0.0490 -1.0827
 1938TIP3    H227230   3.834   5.599  14.129 -0.1863 -1.5979 -0.1352
 1939TIP3   OH227231   1.247   1.872   1.344 -0.3018 -0.3387  0.0474
 1939TIP3    H127232   1.290   1.925   1.277 -0.3571 -1.8055 -1.2122
 1939TIP3    H227233   1.193   1.810   1.295  1.3430 -2.9640  1.2604
 1940TIP3   OH227234   0.060   4.790   1.021  0.1221 -0.0992 -0.2282
 1940TIP3    H127235   0.041   4.752   0.935 -0.1987 -0.3494 -0.0489
 1940TIP3    H227236   0.137   4.844   1.006 -0.6307  0.8271 -0.9515
 1941TIP3   OH227237   2.839   1.130   2.994  0.2759  0.0673  0.4777
 1941TIP3    H127238   2.746   1.113   2.983  0.3570  1.0691 -2.6016
 1941TIP3    H227239   2.845   1.225   3.008  0.8198 -0.0206  0.8916
 1942TIP3   OH227240   5.815   6.591   4.307 -0.2696 -0.3006 -0.6888
 1942TIP3    H127241   5.798   6.499   4.328 -0.1275 -0.2583 -0.3748
 1942TIP3    H227242   5.890   6.615   4.363 -0.9960  0.3114  0.0514
 1943TIP3   OH227243   2.754   5.326   5.069 -0.8932 -0.1665  0.0788
 1943TIP3    H127244   2.783   5.272   4.995  0.7191 -0.3629  0.8193
 1943TIP3    H227245   2.772   5.416   5.041 -1.6995 -0.1197 -0.3424
 1944TIP3   OH227246   4.498   6.415  13.778 -0.0782 -0.6265 -0.2126
 1944TIP3    H127247   4.589   6.409  13.806 -0.5057 -1.1826  1.1124
 1944TIP3    H227248   4.503   6.442  13.686  1.4641 -2.4960 -0.7401
 1945TIP3   OH227249   5.153   5.891  14.208 -0.3125 -0.3777  0.3058
 1945TIP3    H127250   5.086   5.926  14.149 -0.1132 -1.3291 -0.5157
 1945TIP3    H227251   5.199   5.968  14.241 -0.6567  0.1964 -0.5254
 1946TIP3   OH227252   2.842   2.222   1.646 -0.2195  0.1555 -0.1358
 1946TIP3    H127253   2.763   2.183   1.682  0.5299 -1.0756  0.2389
 1946TIP3    H227254   2.864   2.167   1.571  0.0898  0.6908 -0.4385
 1947TIP3   OH227255   3.240   3.018  11.595 -0.1227 -0.3990  0.1896
 1947TIP3    H127256   3.165   2.960  11.610 -1.8562  1.4835 -0.5990
 1947TIP3    H227257   3.204   3.089  11.541  2.9664 -0.9519 -2.9656
 1948TIP3   OH227258   6.265   1.661   2.596 -0.2997 -0.0312  0.5017
 1948TIP3    H127259   6.284   1.624   2.510 -0.4821  0.0148  0.4417
 1948TIP3    H227260   6.171   1.649   2.607 -0.3116  0.1512  0.6058
 1949TIP3   OH227261   1.359   6.193   4.454 -0.2409  0.0259 -0.0037
 1949TIP3    H127262   1.317   6.249   4.388 -0.6774  0.2862  0.4906
 1949TIP3    H227263   1.451   6.192   4.429 -0.2551  0.8265 -0.1303
 1950TIP3   OH227264   1.925   6.277  16.830  0.6036 -0.0839  0.3065
 1950TIP3    H127265   1.951   6.244  16.916  0.5930 -0.3945  0.1927
 1950TIP3    H227266   1.903   6.369  16.845 -0.5670 -0.4339  0.8786
 1951TIP3   OH227267   2.344   1.791   1.766 -0.1850 -0.5804 -0.1507
 1951TIP3    H127268   2.302   1.706   1.774 -1.8619  0.1564 -0.5485
 1951TIP3    H227269   2.280   1.845   1.719  1.2820  0.5949 -0.8756
 1952TIP3   OH227270   1.018   4.657   6.462  0.5226  0.3288  0.2877
 1952TIP3    H127271   1.031   4.749   6.486  0.2783  0.1955  0.9532
 1952TIP3    H227272   1.101   4.615   6.484  1.0155  0.5735 -1.0048
 1953TIP3   OH227273   6.344   6.590  16.981  0.1526  0.1793  0.0910
 1953TIP3    H127274   6.414   6.612  16.919  0.4917 -0.3799  0.2631
 1953TIP3    H227275   6.372   6.630  17.063  1.2821 -1.6349  0.6697
 1954TIP3   OH227276   4.770   6.477  13.801 -1.2156  0.2166  0.4572
 1954TIP3    H127277   4.814   6.404  13.758 -2.2583 -0.8347  1.1093
 1954TIP3    H227278   4.816   6.555  13.770  2.0629 -0.8287  2.2118
 1955TIP3   OH227279   4.350   4.169   2.842  0.6404  0.1632  0.5427
 1955TIP3    H127280   4.400   4.211   2.912  1.6802  2.1618 -1.3026
 1955TIP3    H227281   4.378   4.213   2.762 -0.7052 -1.8393 -1.1437
 1956TIP3   OH227282   4.235   5.820   2.961 -0.4131 -0.4222  0.5561
 1956TIP3    H127283   4.280   5.766   2.896  1.4561  3.7561 -2.1351
 1956TIP3    H227284   4.152   5.842   2.920  0.4650  1.6400 -0.2887
 1957TIP3   OH227285   0.434   1.659  16.867  0.2942  0.1809 -0.1618
 1957TIP3    H127286   0.496   1.597  16.904  2.0419  1.4163 -0.8836
 1957TIP3    H227287   0.431   1.638  16.774 -1.2423 -0.5549  0.0290
 1958TIP3   OH227288   6.628   1.726   1.791  0.3264  0.0761  0.4613
 1958TIP3    H127289   6.607   1.638   1.821  1.7120 -0.3263  0.3263
 1958TIP3    H227290   6.553   1.752   1.738  0.2081 -1.3095 -0.0904
 1959TIP3   OH227291   4.603   3.947  14.844  0.2473  0.1963 -0.3558
 1959TIP3    H127292   4.683   3.993  14.818  0.1027 -0.2488 -1.6859
 1959TIP3    H227293   4.621   3.855  14.825 -0.3309  0.0065 -0.0053
 1960TIP3   OH227294   3.738   2.714  13.801 -0.1716  0.2618 -0.2386
 1960TIP3    H127295   3.720   2.776  13.730 -1.7156  0.2931  0.1386
 1960TIP3    H227296   3.775   2.637  13.757  1.2151  1.1958 -0.7728
 1961TIP3   OH227297   0.121   0.392  17.053 -0.0796  0.1110 -0.1189
 1961TIP3    H127298   0.207   0.423  17.025  0.3449 -1.6787 -0.9789
 1961TIP3    H227299   0.059   0.443  17.001  0.6284 -1.2239 -2.4207
 1962TIP3   OH227300   3.179   2.791  13.105  0.0785  0.4322 -0.4482
 1962TIP3    H127301   3.252   2.742  13.142 -0.1907 -1.5221 -2.2796
 1962TIP3    H227302   3.129   2.821  13.181  0.4889 -1.8487  0.8048
 1963TIP3   OH227303   4.794   6.479   6.261  0.1891 -0.2797  0.0499
 1963TIP3    H127304   4.716   6.505   6.309  1.3722  0.5220  1.6241
 1963TIP3    H227305   4.820   6.396   6.300  0.2445 -0.4465 -0.3350
 1964TIP3   OH227306   4.990   5.161  16.817 -0.0051 -0.0372 -0.0197
 1964TIP3    H127307   4.976   5.070  16.845  1.1229 -0.2874 -0.2494
 1964TIP3    H227308   4.901   5.197  16.810 -0.4750 -1.1667 -0.0909
 1965TIP3   OH227309   3.403   5.960  10.902 -0.2073  0.0682  0.0967
 1965TIP3    H127310   3.442   6.047  10.915  1.3715 -0.2791 -1.9160
 1965TIP3    H227311   3.355   5.967  10.819  1.1725 -1.3589 -0.8640
 1966TIP3   OH227312   3.523   6.133  12.794  0.7357 -0.5821  0.3878
 1966TIP3    H127313   3.523   6.140  12.698  0.1660  0.7830  0.4652
 1966TIP3    H227314   3.440   6.090  12.815 -0.3421  1.3895  0.3669
 1967TIP3   OH227315   5.852   2.628  11.582 -0.4473 -0.1393  0.2854
 1967TIP3    H127316   5.778   2.631  11.522  1.4275  0.2147 -2.1575
 1967TIP3    H227317   5.825   2.567  11.651 -1.8952 -2.3405 -2.0910
 1968TIP3   OH227318   3.764   1.100   0.683  0.3348  0.1526 -0.5348
 1968TIP3    H127319   3.705   1.121   0.755 -1.9190  1.1346 -2.5375
 1968TIP3    H227320   3.800   1.185   0.656  1.2151 -0.2104 -0.5345
 1969TIP3   OH227321   0.002   2.843   2.682  0.5036  0.3004  0.2486
 1969TIP3    H127322  -0.041   2.869   2.763  0.6605  4.3154 -0.7371
 1969TIP3    H227323   0.088   2.884   2.686  0.6674  0.2764 -1.7417
 1970TIP3   OH227324   1.842   2.537  14.013 -0.0670  0.1131 -0.0989
 1970TIP3    H127325   1.831   2.482  14.091 -3.4796 -0.7515 -1.0597
 1970TIP3    H227326   1.885   2.480  13.949 -1.3317 -0.6938 -0.2650
 1971TIP3   OH227327   0.479   6.526   2.486 -1.1558 -0.0053 -0.1941
 1971TIP3    H127328   0.407   6.569   2.532  0.4825  0.3142  2.2320
 1971TIP3    H227329   0.545   6.595   2.476  0.5528 -1.2896  1.6374
 1972TIP3   OH227330   6.141   6.154   4.006 -0.4209 -0.5635 -0.7984
 1972TIP3    H127331   6.172   6.238   4.039  0.8249 -0.8135 -1.2873
 1972TIP3    H227332   6.187   6.142   3.923 -1.5514 -1.1453 -1.3658
 1973TIP3   OH227333   5.971   2.468  11.091 -0.0482 -1.0058  0.4718
 1973TIP3    H127334   5.880   2.452  11.064 -0.3025  2.4719 -1.3346
 1973TIP3    H227335   5.972   2.448  11.185 -2.5595 -1.5339  0.4569
 1974TIP3   OH227336   4.069   6.572  15.590 -0.0275 -0.2166  0.3619
 1974TIP3    H127337   4.148   6.558  15.538  0.6367  4.6193 -0.3048
 1974TIP3    H227338   4.099   6.571  15.681  0.1673 -1.2306  0.3064
 1975TIP3   OH227339   1.535   4.523   5.968 -0.6007  0.0998 -0.2352
 1975TIP3    H127340   1.505   4.534   6.058  0.5482 -3.8507  0.8498
 1975TIP3    H227341   1.460   4.484   5.923 -0.2366 -0.7992 -0.0956
 1976TIP3   OH227342   1.408   3.106  11.881 -0.1573  0.1768 -0.0270
 1976TIP3    H127343   1.401   3.070  11.793  0.7042 -1.8873  0.6849
 1976TIP3    H227344   1.477   3.172  11.875 -1.8462  1.9214 -1.3918
 1977TIP3   OH227345   5.594   6.021  16.978  0.3751  0.4255 -0.0016
 1977TIP3    H127346   5.569   5.938  17.018 -0.0096  1.1677  1.3577
 1977TIP3    H227347   5.689   6.023  16.983  0.3420  0.4003  0.6655
 1978TIP3   OH227348   3.884   4.097   2.346 -0.0377 -0.0980 -0.4254
 1978TIP3    H127349   3.792   4.106   2.373 -0.1052  0.4269 -0.8151
 1978TIP3    H227350   3.912   4.014   2.384  0.4402  1.4105  2.8558
 1979TIP3   OH227351   2.040   1.438  13.713  0.1820  0.3885  0.0277
 1979TIP3    H127352   2.099   1.489  13.768 -1.5571  2.7233 -0.1064
 1979TIP3    H227353   2.064   1.462  13.624  1.3369 -1.4558 -0.2044
 1980TIP3   OH227354   1.910   4.767   1.396  0.2048  0.0741 -0.0218
 1980TIP3    H127355   1.927   4.743   1.487  2.0455 -0.7312 -0.5414
 1980TIP3    H227356   1.831   4.717   1.372  0.1794 -0.3301  0.8806
 1981TIP3   OH227357   2.520   3.347   1.007 -0.2303  0.1921  0.2208
 1981TIP3    H127358   2.446   3.399   0.974 -0.6888 -1.4164 -1.4957
 1981TIP3    H227359   2.481   3.262   1.030  1.0088 -0.5503 -0.3222
 1982TIP3   OH227360   4.954   3.550  15.773  0.0056 -0.3667  0.0428
 1982TIP3    H127361   4.893   3.618  15.745  0.4696  0.0579  0.0664
 1982TIP3    H227362   5.033   3.565  15.721 -0.1057 -1.2798 -0.4229
 1983TIP3   OH227363   3.146   3.313  11.900 -0.5797  0.7827 -0.1680
 1983TIP3    H127364   3.180   3.372  11.833 -3.1719  0.0516 -2.3260
 1983TIP3    H227365   3.120   3.234  11.852 -1.4763 -0.2824  1.9032
 1984TIP3   OH227366   0.008   3.467   1.286  0.3397 -0.4523  0.1415
 1984TIP3    H127367  -0.022   3.409   1.215 -0.8040  0.1850  0.0816
 1984TIP3    H227368   0.079   3.517   1.247  1.0180 -1.4591  0.0443
 1985TIP3   OH227369   6.292   5.284   1.458  0.3863 -0.3657  0.8820
 1985TIP3    H127370   6.304   5.271   1.364 -0.9470 -3.2045  0.9948
 1985TIP3    H227371   6.263   5.374   1.466 -1.4600 -0.6061 -1.6967
 1986TIP3   OH227372   3.930   4.881  12.695 -0.3023  0.6781  0.1603
 1986TIP3    H127373   4.001   4.911  12.751  0.9485 -0.3206 -0.8271
 1986TIP3    H227374   3.916   4.790  12.720 -2.9823  1.5084  2.0461
 1987TIP3   OH227375   1.780   5.935   0.565  1.0364  0.8199  0.2925
 1987TIP3    H127376   1.853   5.885   0.527  0.4504 -0.4298  0.7651
 1987TIP3    H227377   1.765   5.896   0.650  1.4736  2.7621  1.3233
 1988TIP3   OH227378   0.989   4.543   0.945  0.0832  0.7507  0.7501
 1988TIP3    H127379   0.992   4.448   0.948  0.2792  0.7605  0.9345
 1988TIP3    H227380   0.899   4.564   0.922 -0.0997  0.5283  1.2527
 1989TIP3   OH227381   5.163   3.387  10.962 -0.2224 -0.0936 -0.1849
 1989TIP3    H127382   5.079   3.342  10.975 -0.1432 -0.1681  0.0678
 1989TIP3    H227383   5.203   3.341  10.888  0.3829 -1.2176  0.8117
 1990TIP3   OH227384   2.481   4.927  16.592 -0.3205  0.3454  0.0713
 1990TIP3    H127385   2.532   4.860  16.547 -2.4340 -1.3900  0.0590
 1990TIP3    H227386   2.545   4.989  16.625  1.6894 -1.2817 -0.5911
 1991TIP3   OH227387   3.694   2.253   3.525 -0.0616  0.3555 -0.5300
 1991TIP3    H127388   3.639   2.329   3.541  0.1907  0.2504  0.9070
 1991TIP3    H227389   3.653   2.210   3.450 -1.4446  0.7408 -0.0266
 1992TIP3   OH227390   5.828   6.153   3.284 -0.0864  0.0749 -0.1452
 1992TIP3    H127391   5.918   6.182   3.278 -0.3621  1.4072  1.4410
 1992TIP3    H227392   5.781   6.228   3.322 -1.8166 -0.6568 -0.7363
 1993TIP3   OH227393   2.496   0.973   2.450 -0.3143 -0.2124 -0.2034
 1993TIP3    H127394   2.498   1.001   2.359  3.3669  0.2626 -0.1238
 1993TIP3    H227395   2.538   1.044   2.498 -1.0865 -0.9845  1.6867
 1994TIP3   OH227396   2.842   1.565  13.673  0.5853  0.1152 -0.6234
 1994TIP3    H127397   2.890   1.648  13.675  1.4205 -0.3791  0.4266
 1994TIP3    H227398   2.856   1.532  13.584  0.0704  1.1753 -1.1270
 1995TIP3   OH227399   4.001   2.035   2.125 -0.0509 -0.1979  0.9666
 1995TIP3    H127400   3.964   1.952   2.155 -0.5109 -1.5093 -2.7590
 1995TIP3    H227401   4.093   2.017   2.111 -0.3422 -0.4621 -0.8209
 1996TIP3   OH227402   3.050   6.221  13.423 -0.2771  0.2628 -0.5883
 1996TIP3    H127403   3.103   6.163  13.479 -0.6137 -0.7862 -1.3377
 1996TIP3    H227404   3.030   6.296  13.480  3.5559  1.6695 -0.7870
 1997TIP3   OH227405   0.907   5.674   2.337  0.0331  0.0054  0.4012
 1997TIP3    H127406   0.895   5.609   2.268 -0.2167  0.8295 -0.3544
 1997TIP3    H227407   0.958   5.629   2.404  0.4217 -0.7691 -0.3893
 1998TIP3   OH227408   5.810   1.677   4.975 -0.2630  0.6093 -0.3439
 1998TIP3    H127409   5.784   1.701   4.887  0.6178  2.3495 -0.1825
 1998TIP3    H227410   5.728   1.668   5.024 -0.7173  0.5075 -1.1192
 1999TIP3   OH227411   4.012   3.317   5.067 -0.5953 -0.4676  0.1592
 1999TIP3    H127412   4.014   3.284   5.156  0.9159 -0.1489  0.2741
 1999TIP3    H227413   4.086   3.274   5.024 -0.3576  0.5572 -0.4903
 2000TIP3   OH227414   0.009   4.284   2.656 -0.6027 -0.0590  0.0657
 2000TIP3    H127415   0.060   4.359   2.686  1.5808 -1.3907 -0.1399
 2000TIP3    H227416   0.065   4.240   2.592 -2.5154 -0.9469 -1.0976
 2001TIP3   OH227417   2.726   1.881   4.331 -0.1571 -0.5756  0.3208
 2001TIP3    H127418   2.646   1.840   4.363  0.8287 -1.8194  1.3191
 2001TIP3    H227419   2.698   1.938   4.260 -1.8451 -1.4308  0.2708
 2002TIP3   OH227420   2.185   1.451   0.273 -0.4017  0.2205 -0.0529
 2002TIP3    H127421   2.140   1.376   0.234  1.3707 -1.1795  0.4305
 2002TIP3    H227422   2.210   1.505   0.199  0.8365 -1.1869 -0.7072
 2003TIP3   OH227423   0.735   1.358   0.433 -0.2397 -0.1955 -0.0122
 2003TIP3    H127424   0.768   1.301   0.364 -0.7953  0.1740 -0.5967
 2003TIP3    H227425   0.802   1.356   0.501  0.0926 -0.9364 -0.3579
 2004TIP3   OH227426   3.817   0.926  16.399 -0.7621 -0.4562  0.1273
 2004TIP3    H127427   3.797   0.924  16.305  0.9975 -2.5960 -0.2917
 2004TIP3    H227428   3.782   0.843  16.432 -0.8838  0.0372  1.2630
 2005TIP3   OH227429   6.720   6.253  15.596  0.1362  0.0072  0.4564
 2005TIP3    H127430   6.780   6.197  15.645 -0.0139  1.5046  2.4697
 2005TIP3    H227431   6.635   6.211  15.605  0.3949 -0.6312 -0.0107
 2006TIP3   OH227432   6.778   0.636  14.266 -0.3195  0.1105  0.0864
 2006TIP3    H127433   6.687   0.624  14.293 -0.6833  1.6438 -0.3847
 2006TIP3    H227434   6.805   0.718  14.308  0.0242  1.0029 -1.7815
 2007TIP3   OH227435   1.420   6.595  13.758  0.1555  0.4394 -0.2849
 2007TIP3    H127436   1.413   6.661  13.827 -0.8311  0.5429 -0.4737
 2007TIP3    H227437   1.470   6.637  13.689 -0.8499  1.1626 -0.5892
 2008TIP3   OH227438   3.537   1.338  14.744 -0.5440 -0.2813 -0.1961
 2008TIP3    H127439   3.526   1.245  14.725  1.1093 -0.7609  0.9848
 2008TIP3    H227440   3.556   1.377  14.659  1.3490 -1.4896 -0.3993
 2009TIP3   OH227441   0.744   5.269   2.255 -0.8363 -0.4926 -0.8874
 2009TIP3    H127442   0.718   5.197   2.312  0.1251 -0.7300 -0.7282
 2009TIP3    H227443   0.839   5.265   2.253 -0.7185  1.1819 -0.3544
 2010TIP3   OH227444   1.495   2.851   4.704  0.3796  0.3633  0.0159
 2010TIP3    H127445   1.541   2.905   4.639 -1.7189  2.0276 -0.2049
 2010TIP3    H227446   1.403   2.855   4.677 -0.0633 -2.1523  0.8965
 2011TIP3   OH227447   1.163   1.239  13.667  0.2456 -0.2007 -0.4382
 2011TIP3    H127448   1.142   1.331  13.651  2.2833  0.3482 -0.1664
 2011TIP3    H227449   1.238   1.221  13.610  0.6561 -1.3344  0.4230
 2012TIP3   OH227450   6.778   5.666   3.136  0.0630 -0.5103  0.4216
 2012TIP3    H127451   6.692   5.627   3.150 -0.8862  0.4022 -2.2429
 2012TIP3    H227452   6.797   5.713   3.218 -2.0859 -0.5091  0.9763
 2013TIP3   OH227453   3.570   4.355   5.389 -0.0785  0.3902 -0.0340
 2013TIP3    H127454   3.483   4.394   5.379  0.1568  0.4718 -2.2586
 2013TIP3    H227455   3.621   4.422   5.433 -0.8712  0.7666  0.3265
 2014TIP3   OH227456   1.993   3.784   4.638  0.3057  0.3299 -0.4485
 2014TIP3    H127457   2.020   3.794   4.729 -0.1691  1.2466 -0.3995
 2014TIP3    H227458   1.962   3.694   4.632 -4.0357  1.4277  1.5340
 2015TIP3   OH227459   4.351   4.457   4.900 -0.6915 -0.4426 -0.1034
 2015TIP3    H127460   4.434   4.414   4.919  0.5529  1.5783 -0.6496
 2015TIP3    H227461   4.323   4.492   4.985 -0.7946 -0.7781  0.0041
 2016TIP3   OH227462   2.581   5.436  15.391  0.7927  0.3898 -0.4461
 2016TIP3    H127463   2.645   5.499  15.425  0.5113  1.7726 -2.3039
 2016TIP3    H227464   2.586   5.362  15.451  2.2345  1.5504  0.9654
 2017TIP3   OH227465   1.525   6.604   3.521 -0.5303 -0.2852 -0.1098
 2017TIP3    H127466   1.621   6.601   3.524 -0.2071  3.9833  0.2546
 2017TIP3    H227467   1.505   6.637   3.433 -1.6480 -0.6199 -0.0006
 2018TIP3   OH227468   0.068   2.261  13.289 -0.4404 -0.9710  0.4322
 2018TIP3    H127469  -0.004   2.273  13.351  0.6328  2.3857  1.2489
 2018TIP3    H227470   0.145   2.249  13.345  0.6255  2.5694 -0.0567
 2019TIP3   OH227471   5.168   6.774   4.211 -0.3643 -0.4109  0.1542
 2019TIP3    H127472   5.151   6.809   4.299 -1.6194 -2.3168  0.7282
 2019TIP3    H227473   5.184   6.681   4.225  0.3128 -0.5829 -1.5715
 2020TIP3   OH227474   3.215   5.125   4.383 -0.4877 -0.1466 -0.4349
 2020TIP3    H127475   3.300   5.086   4.403 -0.4350  1.2453  2.5360
 2020TIP3    H227476   3.236   5.214   4.354 -0.8532 -0.6278 -2.2744
 2021TIP3   OH227477   5.608   0.634  16.633 -0.9238  0.2440 -0.1310
 2021TIP3    H127478   5.671   0.607  16.566 -0.3448 -1.3941  1.0127
 2021TIP3    H227479   5.525   0.594  16.607 -1.9085  3.3474 -2.2718
 2022TIP3   OH227480   3.399   1.155   5.053  0.2484  0.4225 -0.1045
 2022TIP3    H127481   3.451   1.212   5.110 -1.3839 -0.4799  2.4567
 2022TIP3    H227482   3.449   1.074   5.047  2.3097  1.7403 -3.3130
 2023TIP3   OH227483   4.553   6.310  13.488 -0.2448 -0.0908 -0.1593
 2023TIP3    H127484   4.491   6.262  13.543  1.0769  1.4228  2.8725
 2023TIP3    H227485   4.625   6.248  13.473 -1.6715 -1.3590 -2.4965
 2024TIP3   OH227486   5.256   6.071   1.486  0.5184 -0.2568 -0.0309
 2024TIP3    H127487   5.323   6.124   1.443  0.4812 -0.9064 -0.9180
 2024TIP3    H227488   5.303   5.995   1.521  0.3012 -0.5551 -0.3765
 2025TIP3   OH227489   6.178   1.271  14.340 -0.0904  0.0582  0.3006
 2025TIP3    H127490   6.273   1.263  14.355 -0.0980  0.3448  0.5090
 2025TIP3    H227491   6.140   1.275  14.428 -0.2871  0.0518  0.2162
 2026TIP3   OH227492   4.557   5.232  13.473  0.0498  0.7196  0.6239
 2026TIP3    H127493   4.502   5.294  13.425 -1.8891  0.5226  2.4545
 2026TIP3    H227494   4.537   5.147  13.434 -1.2027  0.6139  1.4417
 2027TIP3   OH227495   2.877   3.874   0.620  0.4178 -0.2778 -0.5742
 2027TIP3    H127496   2.824   3.922   0.556  0.8133  0.8791 -0.0608
 2027TIP3    H227497   2.865   3.922   0.702 -1.0381 -2.4123  0.5604
 2028TIP3   OH227498   4.186   3.381  12.316  0.1477 -0.2315  0.7590
 2028TIP3    H127499   4.185   3.321  12.392 -0.0083  1.2275  1.9586
 2028TIP3    H227500   4.235   3.457  12.348 -0.2227  0.5540 -0.5236
 2029TIP3   OH227501   1.982   0.482   5.588 -0.5563 -0.1897  0.2442
 2029TIP3    H127502   1.949   0.506   5.502 -2.0770 -0.0955  0.8308
 2029TIP3    H227503   1.983   0.386   5.588 -1.4410 -0.2018  0.4401
 2030TIP3   OH227504   4.867   1.848   4.859  0.0826 -0.3008  0.6695
 2030TIP3    H127505   4.877   1.933   4.902  1.5505 -0.6393  1.0282
 2030TIP3    H227506   4.772   1.841   4.843 -0.2522  0.7079  2.0320
 2031TIP3   OH227507   4.703   1.510   5.438 -0.4259  0.4386 -0.0278
 2031TIP3    H127508   4.654   1.582   5.399  0.8052  1.1145 -0.3774
 2031TIP3    H227509   4.704   1.529   5.532 -0.7120  0.4838 -0.0328
 2032TIP3   OH227510   1.548   3.245   0.858 -0.2774 -0.0284 -0.0845
 2032TIP3    H127511   1.556   3.151   0.843  3.1856  0.1638 -0.3221
 2032TIP3    H227512   1.542   3.283   0.770  0.8168  0.0499 -0.1452
 2033TIP3   OH227513   5.126   1.470  15.556 -0.2063 -0.0510  0.1891
 2033TIP3    H127514   5.074   1.491  15.479  0.7657  0.2822 -0.3870
 2033TIP3    H227515   5.215   1.495  15.533  0.3487 -1.2755  0.8941
 2034TIP3   OH227516   2.516   4.436  11.105  0.0535 -0.3734 -0.0513
 2034TIP3    H127517   2.452   4.483  11.051  0.7556  1.5985  0.7244
 2034TIP3    H227518   2.592   4.427  11.048  0.2562  0.3179  0.1063
 2035TIP3   OH227519   4.242   3.078  14.758  0.3652  0.6434  0.7890
 2035TIP3    H127520   4.216   3.034  14.678 -0.6889  1.0770  0.8779
 2035TIP3    H227521   4.337   3.072  14.759  0.6817  3.0009 -1.8928
 2036TIP3   OH227522   6.107   5.406   1.708  0.1010  0.1686  0.7697
 2036TIP3    H127523   6.154   5.471   1.655 -1.9750  1.5294  0.5014
 2036TIP3    H227524   6.154   5.406   1.792  0.8514  1.1348  0.3733
 2037TIP3   OH227525   0.526   1.886  13.071 -0.9055 -0.1287  0.1555
 2037TIP3    H127526   0.593   1.920  13.129 -0.4120  0.6668 -0.8460
 2037TIP3    H227527   0.570   1.816  13.022 -1.5555 -1.4010  1.2906
 2038TIP3   OH227528   4.024   4.621   2.501 -0.3741  0.3535 -0.5111
 2038TIP3    H127529   3.990   4.544   2.456 -0.5516 -0.0754  0.3245
 2038TIP3    H227530   3.968   4.631   2.578 -0.3585  1.3270 -0.6036
 2039TIP3   OH227531   1.514   5.879  13.674 -0.5089  0.1932  0.1418
 2039TIP3    H127532   1.457   5.817  13.628 -0.8090  1.6345 -1.5467
 2039TIP3    H227533   1.456   5.932  13.727 -0.3652 -0.3324  0.8305
 2040TIP3   OH227534   3.329   0.314   1.423  0.3478  0.5082  0.4706
 2040TIP3    H127535   3.358   0.405   1.411 -0.4960  0.7082 -0.1411
 2040TIP3    H227536   3.355   0.292   1.512  2.0894  0.7760  0.0724
 2041TIP3   OH227537   1.104   2.700  13.305  0.3550  0.2652 -0.3844
 2041TIP3    H127538   1.154   2.688  13.224 -1.0124 -0.2779 -1.1932
 2041TIP3    H227539   1.013   2.710  13.276 -0.6916 -3.1084  1.1448
 2042TIP3   OH227540   5.941   4.614  16.764 -0.0017  0.3745  0.1287
 2042TIP3    H127541   5.978   4.527  16.782 -0.2184  0.4003  0.7342
 2042TIP3    H227542   6.004   4.655  16.705 -0.1067 -0.3494 -0.5047
 2043TIP3   OH227543   3.283   2.714   0.978  0.6102  0.1745 -0.2459
 2043TIP3    H127544   3.371   2.747   0.995 -0.5673  2.4161  2.3255
 2043TIP3    H227545   3.278   2.703   0.884  2.3964  3.9668 -0.9654
 2044TIP3   OH227546   1.745   3.333   3.680  0.1025 -0.3761 -0.1771
 2044TIP3    H127547   1.755   3.428   3.686  0.4638 -0.4343  0.1695
 2044TIP3    H227548   1.658   3.320   3.643 -0.7373  0.0672  1.5491
 2045TIP3   OH227549   3.905   2.923  14.095  0.2154  0.2404 -0.0878
 2045TIP3    H127550   3.982   2.873  14.122 -1.2636 -1.4390  1.2665
 2045TIP3    H227551   3.893   2.989  14.163 -0.2840 -0.3622  0.4194
 2046TIP3   OH227552   5.616   6.270  16.865  0.4307  0.1263  0.5147
 2046TIP3    H127553   5.615   6.202  16.932 -0.5229  0.7845  1.2141
 2046TIP3    H227554   5.526   6.274  16.833  0.8047  0.0319 -0.6111
 2047TIP3   OH227555   6.648   6.292   0.247  0.6765 -0.1105 -0.6921
 2047TIP3    H127556   6.718   6.356   0.235  0.0092  1.1024  1.4949
 2047TIP3    H227557   6.567   6.344   0.250 -0.1414 -1.2955 -1.1296
 2048TIP3   OH227558   4.360   3.494   2.267  0.0111  0.0224  0.4881
 2048TIP3    H127559   4.320   3.418   2.224 -1.0999  1.4285 -1.1320
 2048TIP3    H227560   4.298   3.519   2.335  0.3973 -0.5212  1.0494
 2049TIP3   OH227561   1.166   0.412  14.478 -0.5375 -0.5616 -0.1165
 2049TIP3    H127562   1.192   0.328  14.441  2.4253  0.5994 -0.9402
 2049TIP3    H227563   1.238   0.436  14.537 -2.3017  0.4819  1.7646
 2050TIP3   OH227564   4.995   1.557  14.212  0.4979  0.6250 -0.3538
 2050TIP3    H127565   4.951   1.509  14.142  2.4369 -3.1587  0.7794
 2050TIP3    H227566   4.942   1.540  14.290  1.7253 -0.6473  0.2457
 2051TIP3   OH227567   6.021   4.806   2.446  0.4242  0.6818 -0.1470
 2051TIP3    H127568   5.971   4.878   2.407 -3.9212 -2.5258 -1.2373
 2051TIP3    H227569   5.972   4.784   2.525 -1.1950 -3.6532 -2.0794
 2052TIP3   OH227570   0.840   6.719  15.501  0.3814 -0.2405 -0.3385
 2052TIP3    H127571   0.934   6.709  15.484  0.5447 -0.8365  0.8011
 2052TIP3    H227572   0.832   6.809  15.534  0.8447 -0.7267  1.1955
 2053TIP3   OH227573   1.820   0.221  12.489  0.2072 -0.1575 -0.6968
 2053TIP3    H127574   1.829   0.237  12.583 -0.3956 -1.0222 -0.4797
 2053TIP3    H227575   1.753   0.283  12.461  1.2250  0.9342 -0.8087
 2054TIP3   OH227576   5.143   6.506  16.383 -0.2775  0.6723  0.2919
 2054TIP3    H127577   5.168   6.582  16.330  0.1596  0.9090  0.8364
 2054TIP3    H227578   5.220   6.486  16.435  0.3948 -1.5100 -1.3891
 2055TIP3   OH227579   2.327   3.641   2.749  0.0267  0.2417 -0.0406
 2055TIP3    H127580   2.417   3.667   2.728 -0.2402  0.8788 -0.4339
 2055TIP3    H227581   2.334   3.599   2.835  0.5868  1.0168  0.3114
 2056TIP3   OH227582   5.077   4.909   3.128  0.1529  0.3531  0.6072
 2056TIP3    H127583   5.139   4.889   3.059  0.3895  1.5214  0.4700
 2056TIP3    H227584   5.060   5.003   3.120 -0.9733  0.2206  1.1808
 2057TIP3   OH227585   4.935   1.338  16.170 -0.2557  0.1862 -0.4809
 2057TIP3    H127586   4.977   1.319  16.255 -0.2965 -4.0375 -1.1757
 2057TIP3    H227587   4.844   1.309  16.182 -0.8913  1.7234 -1.3604
 2058TIP3   OH227588   5.978   4.448   3.002  0.1140 -0.0703  0.0368
 2058TIP3    H127589   5.883   4.438   3.002  0.1667 -0.6627  0.5457
 2058TIP3    H227590   6.011   4.358   3.012  0.7237  0.1228 -0.2113
 2059TIP3   OH227591   2.971   6.549  16.845 -0.4468 -0.3179 -0.0251
 2059TIP3    H127592   2.914   6.475  16.863  0.2947 -0.8106  0.3112
 2059TIP3    H227593   2.930   6.593  16.770 -1.5289 -0.3766  0.5098
 2060TIP3   OH227594   4.504   6.268  15.239  0.5098 -0.6345 -0.0693
 2060TIP3    H127595   4.574   6.330  15.217  0.9767 -1.0612  0.2090
 2060TIP3    H227596   4.541   6.213  15.308 -0.4751 -0.1880  0.8315
 2061TIP3   OH227597   5.044   0.591   2.063 -0.1610  0.2371 -0.4585
 2061TIP3    H127598   4.954   0.623   2.071  0.1972  1.2617 -0.2607
 2061TIP3    H227599   5.050   0.556   1.974 -1.0518 -0.8419 -0.1033
 2062TIP3   OH227600   0.311   1.858  16.483 -0.1105  0.2356 -0.1029
 2062TIP3    H127601   0.333   1.939  16.529  0.8190  0.8589 -1.5859
 2062TIP3    H227602   0.222   1.837  16.513  0.2474  0.8781  1.5526
 2063TIP3   OH227603   3.151   3.678  15.746  0.2173 -1.0218  0.1839
 2063TIP3    H127604   3.139   3.759  15.696  0.4675 -0.5602  0.8675
 2063TIP3    H227605   3.196   3.619  15.685 -1.6948 -1.3439 -0.9959
 2064TIP3   OH227606   2.700   4.423  15.911 -0.5182  0.2282  0.5311
 2064TIP3    H127607   2.692   4.334  15.946  2.1540 -0.8040 -1.1470
 2064TIP3    H227608   2.755   4.468  15.975  0.7636 -0.3441 -0.1301
 2065TIP3   OH227609   3.486   1.252  12.076  0.0834 -0.1959  0.4248
 2065TIP3    H127610   3.444   1.185  12.131 -0.1947 -1.0787 -0.8155
 2065TIP3    H227611   3.419   1.320  12.067 -0.9143 -1.2924 -0.9952
 2066TIP3   OH227612   1.299   3.442   0.137 -0.1275  0.1970 -0.0019
 2066TIP3    H127613   1.252   3.371   0.181 -0.7559 -0.3640 -1.5344
 2066TIP3    H227614   1.249   3.521   0.160 -1.0104 -0.2134 -0.4633
 2067TIP3   OH227615   5.762   3.111  16.826 -0.1469  0.7781 -0.2938
 2067TIP3    H127616   5.762   3.047  16.898  0.5619 -0.1753 -1.1155
 2067TIP3    H227617   5.723   3.189  16.864 -2.8707 -0.7180  0.2210
 2068TIP3   OH227618   3.270   6.706  13.044 -0.0558 -0.0190  0.1279
 2068TIP3    H127619   3.327   6.737  13.114 -0.8139 -0.8939  1.1691
 2068TIP3    H227620   3.292   6.761  12.968  1.5205  0.2391  0.7486
 2069TIP3   OH227621   3.056   0.105  13.222  0.1823 -0.3148  0.4707
 2069TIP3    H127622   3.107   0.030  13.193  0.8458  0.8456 -1.6006
 2069TIP3    H227623   2.981   0.067  13.268 -0.2338 -2.3461 -1.6835
 2070TIP3   OH227624   2.676   0.508  12.556  0.1622 -0.8236  0.2805
 2070TIP3    H127625   2.638   0.437  12.504 -0.0548  1.1596 -2.4993
 2070TIP3    H227626   2.769   0.484  12.563  0.4274 -0.7496 -1.9691
 2071TIP3   OH227627   3.734   2.260   4.139 -0.5446  0.1756 -0.4828
 2071TIP3    H127628   3.734   2.192   4.207  0.7590  0.1613 -0.4747
 2071TIP3    H227629   3.673   2.228   4.073  0.3197 -1.2203 -0.6576
 2072TIP3   OH227630   3.354   3.126   1.307 -0.0593  0.3774  0.2301
 2072TIP3    H127631   3.345   3.176   1.226  0.0278  1.5306  0.9117
 2072TIP3    H227632   3.264   3.111   1.336 -0.0868  0.1051  0.0002
 2073TIP3   OH227633   4.440   6.523   0.226 -0.3692  0.0070  0.3574
 2073TIP3    H127634   4.489   6.504   0.306 -1.0853  0.5028  0.9299
 2073TIP3    H227635   4.364   6.572   0.256 -1.3232 -0.9048 -0.4911
 2074TIP3   OH227636   2.543   2.213  13.390  0.6860 -0.2954  0.3180
 2074TIP3    H127637   2.506   2.126  13.376 -2.6363  1.0699 -0.3179
 2074TIP3    H227638   2.502   2.244  13.471  1.1237  1.0107  0.0659
 2075TIP3   OH227639   5.786   6.435  12.610  0.1069 -0.4293  0.0083
 2075TIP3    H127640   5.707   6.397  12.648 -0.6041  2.2008  1.3719
 2075TIP3    H227641   5.843   6.453  12.685  1.2626 -0.6559 -0.7869
 2076TIP3   OH227642   1.171   3.593  11.930 -0.0949 -0.1926 -0.5689
 2076TIP3    H127643   1.237   3.661  11.919 -0.3422 -0.0430 -1.1189
 2076TIP3    H227644   1.106   3.633  11.988  1.2024 -0.9838  1.5406
 2077TIP3   OH227645   3.185   5.419  11.943 -0.1388  0.4943  0.2713
 2077TIP3    H127646   3.120   5.359  11.906  1.3606 -1.2165  0.2542
 2077TIP3    H227647   3.226   5.369  12.013  0.4500  1.9153  0.9797
 2078TIP3   OH227648   3.776   5.601   2.035  0.1700  0.8646 -0.1865
 2078TIP3    H127649   3.685   5.616   2.061 -0.4619 -2.0188 -0.4130
 2078TIP3    H227650   3.819   5.571   2.115  0.0200 -1.0260 -0.7660
 2079TIP3   OH227651   4.851   3.294   4.743  0.2801 -0.7153 -0.6261
 2079TIP3    H127652   4.811   3.252   4.667 -2.1056 -2.2405  1.3147
 2079TIP3    H227653   4.928   3.240   4.763  0.9021 -0.3248 -1.8587
 2080TIP3   OH227654   2.708   0.733   4.612  0.3979  0.3249  0.2155
 2080TIP3    H127655   2.614   0.742   4.601  0.2254 -0.8969  0.5426
 2080TIP3    H227656   2.718   0.664   4.678  1.5434 -0.6196 -0.9049
 2081TIP3   OH227657   2.452   0.414   4.872 -0.0673 -0.3042 -0.4852
 2081TIP3    H127658   2.378   0.425   4.931 -0.5621 -1.2630 -0.8917
 2081TIP3    H227659   2.516   0.479   4.900 -1.1844  0.7613 -0.3300
 2082TIP3   OH227660   3.239   5.069  11.680  0.3757 -0.5388 -0.8568
 2082TIP3    H127661   3.206   5.009  11.613 -0.4635 -1.2556  0.1676
 2082TIP3    H227662   3.216   5.028  11.763 -0.9445  1.5324 -0.0887
 2083TIP3   OH227663   4.695   4.392   5.567  0.3806  0.4887  0.6977
 2083TIP3    H127664   4.697   4.296   5.567  0.9552  0.4963 -0.0385
 2083TIP3    H227665   4.774   4.418   5.521 -0.8392  1.2900 -1.0362
 2084TIP3   OH227666   1.004   4.279  10.329 -0.0390 -0.3779 -0.2118
 2084TIP3    H127667   0.914   4.310  10.335  0.4936  1.0892  0.5599
 2084TIP3    H227668   0.996   4.187  10.302 -1.6678  0.3572 -2.5576
 2085TIP3   OH227669   6.551   5.837  12.603  0.3782 -1.3474 -0.3827
 2085TIP3    H127670   6.599   5.758  12.627  1.4111 -0.8917 -0.8794
 2085TIP3    H227671   6.535   5.881  12.686  2.4325 -0.6209 -0.3048
 2086TIP3   OH227672   1.770   4.935  12.043  0.0023 -0.1883 -0.2423
 2086TIP3    H127673   1.861   4.951  12.019  0.1773 -0.3330  0.3153
 2086TIP3    H227674   1.765   4.841  12.060 -0.1954 -0.1455 -0.0510
 2087TIP3   OH227675   3.635   5.314   4.252 -0.3999 -0.2176  0.4160
 2087TIP3    H127676   3.714   5.367   4.257 -0.8857  0.4421  1.3233
 2087TIP3    H227677   3.575   5.365   4.196 -0.2149 -0.6928 -0.2307
 2088TIP3   OH227678   2.847   0.488   4.437 -0.1623 -0.3970  0.0805
 2088TIP3    H127679   2.773   0.501   4.496 -1.0873 -1.1227 -0.8748
 2088TIP3    H227680   2.819   0.527   4.354  1.1214  0.6271  0.0955
 2089TIP3   OH227681   1.098   1.122   0.510 -0.3741 -0.1930 -0.0201
 2089TIP3    H127682   1.080   1.041   0.461 -2.9245  0.1360  0.2068
 2089TIP3    H227683   1.085   1.191   0.445 -0.2813  0.1058  0.2818
 2090TIP3   OH227684   1.510   2.223  13.182  0.6304  0.5913  0.2307
 2090TIP3    H127685   1.555   2.305  13.165  0.5470  0.5095 -0.4332
 2090TIP3    H227686   1.578   2.156  13.173  0.9363  0.6577  1.8590
 2091TIP3   OH227687   6.388   3.891   5.123  0.9190  0.7560  0.0264
 2091TIP3    H127688   6.440   3.892   5.042  0.1220  0.3408 -0.4989
 2091TIP3    H227689   6.432   3.826   5.178  0.7888  0.1805 -0.5359
 2092TIP3   OH227690   4.173   0.763   0.144  0.5745 -0.5710  0.2288
 2092TIP3    H127691   4.091   0.807   0.164  0.9675  0.7973 -1.0315
 2092TIP3    H227692   4.229   0.779   0.220 -0.2045 -1.2429  0.9530
 2093TIP3   OH227693   4.800   3.157  12.514 -0.3073  0.1262 -0.8321
 2093TIP3    H127694   4.715   3.113  12.522 -1.0408  1.5952 -0.2199
 2093TIP3    H227695   4.779   3.250  12.506  1.2305  0.4694 -1.2839
 2094TIP3   OH227696   3.845   5.125   2.591  0.4971 -0.5053 -0.8101
 2094TIP3    H127697   3.801   5.201   2.554 -0.7365 -0.1993  1.1681
 2094TIP3    H227698   3.926   5.160   2.629 -0.4086 -0.0104  0.7282
 2095TIP3   OH227699   2.952   3.331   3.156  0.1521  0.0234  0.1946
 2095TIP3    H127700   2.908   3.257   3.198  0.3792  0.2767  0.9027
 2095TIP3    H227701   2.898   3.351   3.080 -0.1874 -0.5510  0.2742
 2096TIP3   OH227702   4.073   3.683   2.252  0.0697  0.3161  0.4784
 2096TIP3    H127703   4.047   3.613   2.191 -1.2091  1.7094 -0.6478
 2096TIP3    H227704   4.064   3.764   2.201 -2.7213  1.7414  2.9460
 2097TIP3   OH227705   3.284   1.626   6.322 -0.1397 -0.3709  0.0674
 2097TIP3    H127706   3.362   1.589   6.364  0.1750 -0.9745 -1.0102
 2097TIP3    H227707   3.316   1.701   6.273 -0.4265  0.0431  0.5065
 2098TIP3   OH227708   5.625   6.068   5.593 -0.1034 -0.1559 -0.2791
 2098TIP3    H127709   5.718   6.043   5.598 -0.3317 -1.3750 -1.5017
 2098TIP3    H227710   5.598   6.041   5.505 -1.1921  1.7541 -0.5692
 2099TIP3   OH227711   4.778   6.145  17.111  0.0434  0.4085  0.1492
 2099TIP3    H127712   4.833   6.194  17.173 -0.2739  2.2327 -0.9354
 2099TIP3    H227713   4.715   6.099  17.167  0.1806  1.4833  1.2434
 2100TIP3   OH227714   2.924   1.272  14.080 -0.6388  0.9136  0.4648
 2100TIP3    H127715   2.997   1.330  14.102  0.6556 -0.5020  0.1187
 2100TIP3    H227716   2.907   1.288  13.987  0.5438 -0.0780  0.0482
 2101TIP3   OH227717   3.791   3.826  15.753 -0.1841  0.3108 -0.9176
 2101TIP3    H127718   3.809   3.870  15.836  0.3117 -0.4152 -0.6303
 2101TIP3    H227719   3.698   3.845  15.735  0.3725  2.7003 -1.5784
 2102TIP3   OH227720   0.751   2.436  11.927 -0.2737 -0.3228 -0.0808
 2102TIP3    H127721   0.824   2.480  11.970  0.7026 -0.7565 -1.2489
 2102TIP3    H227722   0.777   2.344  11.926 -1.4009 -0.6643  0.5728
 2103TIP3   OH227723   0.681   5.102  16.885 -0.5559 -0.1947  0.3290
 2103TIP3    H127724   0.715   5.138  16.967  0.6582 -1.7412  0.5556
 2103TIP3    H227725   0.721   5.157  16.817 -0.5475  0.3048  0.7322
 2104TIP3   OH227726   0.167   1.533  16.987  0.6213  0.2048  0.1136
 2104TIP3    H127727   0.229   1.555  17.056 -0.8503  0.5388  1.3970
 2104TIP3    H227728   0.186   1.594  16.916  0.5095  1.6165  1.2544
 2105TIP3   OH227729   1.883   1.131   5.881  0.4143 -0.3377  0.3199
 2105TIP3    H127730   1.838   1.049   5.902  1.0776 -0.7416  0.2213
 2105TIP3    H227731   1.816   1.198   5.887 -0.0220 -0.8152  0.9801
 2106TIP3   OH227732   1.250   2.956   4.950  0.2534  0.0167 -0.4322
 2106TIP3    H127733   1.286   2.908   5.025  0.3758 -1.1386 -1.1945
 2106TIP3    H227734   1.241   3.046   4.981  0.4153 -0.4088  0.9224
 2107TIP3   OH227735   1.376   2.346  17.028  0.7611  0.1234 -0.3159
 2107TIP3    H127736   1.316   2.293  16.976 -0.1817  1.4065 -0.5796
 2107TIP3    H227737   1.463   2.313  17.006  0.1806 -3.5092  1.9372
 2108TIP3   OH227738   2.834   2.892  15.569  0.0352 -0.3296 -0.8314
 2108TIP3    H127739   2.790   2.934  15.643 -1.3442 -2.0579 -0.5960
 2108TIP3    H227740   2.808   2.800  15.575  1.4224 -0.8741 -2.3870
 2109TIP3   OH227741   4.393   5.337  16.519  0.0676  0.3770  0.0403
 2109TIP3    H127742   4.381   5.329  16.614 -0.1202 -0.5502 -0.0513
 2109TIP3    H227743   4.375   5.249  16.485  0.0483  0.7179 -0.8653
 2110TIP3   OH227744   4.293   3.708  13.643  1.1098  0.0049 -0.7701
 2110TIP3    H127745   4.226   3.771  13.670  1.4273 -0.1554  0.4422
 2110TIP3    H227746   4.288   3.707  13.547 -0.0144  0.6501 -0.7336
 2111TIP3   OH227747   5.388   3.562  15.979  0.6094 -0.2821  0.3897
 2111TIP3    H127748   5.479   3.538  15.962  0.4367 -1.4559  0.9897
 2111TIP3    H227749   5.339   3.480  15.967 -0.2637  0.1640  0.7984
 2112TIP3   OH227750   2.430   4.473  13.103 -0.0138  0.2646  0.0297
 2112TIP3    H127751   2.482   4.438  13.176  0.5017 -1.6638 -1.1945
 2112TIP3    H227752   2.495   4.511  13.044 -0.3418  0.8564  0.0360
 2113TIP3   OH227753   6.709   0.421  10.828  0.5599  0.2538  0.0536
 2113TIP3    H127754   6.796   0.455  10.845 -0.0007  0.3930  3.1421
 2113TIP3    H227755   6.657   0.498  10.804  0.6348  0.6602  1.1549
 2114TIP3   OH227756   3.715   2.564   5.842  0.3207  0.3116  0.2034
 2114TIP3    H127757   3.701   2.508   5.918 -0.9146  0.6723  0.2714
 2114TIP3    H227758   3.741   2.649   5.878 -0.4509  0.5373  0.2493
 2115TIP3   OH227759   6.456   1.491  14.405 -0.3057  0.5442  0.7057
 2115TIP3    H127760   6.479   1.402  14.379 -0.7184  0.4111  0.7979
 2115TIP3    H227761   6.387   1.517  14.344 -1.8462 -0.0534  2.1106
 2116TIP3   OH227762   3.561   0.661  13.217 -0.3233 -0.4021 -0.3229
 2116TIP3    H127763   3.547   0.742  13.167  0.7638 -0.5842 -0.9428
 2116TIP3    H227764   3.493   0.663  13.285  0.0170  1.2873  0.0062
 2117TIP3   OH227765   5.150   5.595  12.236  0.0121  0.2035 -0.5946
 2117TIP3    H127766   5.083   5.580  12.304  2.0993  3.5187  2.5835
 2117TIP3    H227767   5.111   5.660  12.178  0.0100  1.2942  0.5891
 2118TIP3   OH227768   5.237   4.040   1.438 -0.0347 -0.3731  0.5628
 2118TIP3    H127769   5.293   4.054   1.514 -0.6076 -1.5327  1.2366
 2118TIP3    H227770   5.150   4.023   1.475 -0.2733 -1.1804 -0.3165
 2119TIP3   OH227771   6.155   4.419   2.189 -0.4832 -0.1775  0.3767
 2119TIP3    H127772   6.133   4.451   2.276 -0.9128 -0.0108  0.2104
 2119TIP3    H227773   6.239   4.461   2.168 -1.7149  2.0555 -0.4393
 2120TIP3   OH227774   5.644   1.352   6.087 -0.0279  0.1285 -0.4311
 2120TIP3    H127775   5.713   1.408   6.124  1.4198 -0.1542 -2.5514
 2120TIP3    H227776   5.691   1.287   6.035 -1.8289 -1.3479 -0.3066
 2121TIP3   OH227777   0.443   1.326   2.141  0.2581  0.4393 -0.0687
 2121TIP3    H127778   0.369   1.329   2.080 -0.7011 -1.3971  0.9437
 2121TIP3    H227779   0.450   1.416   2.174 -0.1345  1.1356 -1.7561
 2122TIP3   OH227780   5.773   4.893  17.050 -0.1642 -0.0596  0.8120
 2122TIP3    H127781   5.751   4.936  17.132 -2.5421 -1.3099  0.9077
 2122TIP3    H227782   5.771   4.800  17.070  0.2451 -0.3592 -0.4306
 2123TIP3   OH227783   2.120   0.531   2.142  0.6463 -0.4009 -0.2949
 2123TIP3    H127784   2.155   0.461   2.086  0.3145 -0.8515  0.0592
 2123TIP3    H227785   2.026   0.515   2.145  0.5019  0.3499 -0.6053
 2124TIP3   OH227786   5.916   6.037  12.781 -0.6837  0.0776  0.1735
 2124TIP3    H127787   5.947   5.951  12.752 -0.5820 -0.4666  1.7832
 2124TIP3    H227788   5.991   6.095  12.770 -0.5588 -0.1770 -0.3455
 2125TIP3   OH227789   2.087   0.854  15.013  0.0337  0.5825  0.4123
 2125TIP3    H127790   2.024   0.885  15.077  3.3518 -0.1824  4.5248
 2125TIP3    H227791   2.128   0.933  14.978 -1.0236  0.9827  0.0396
 2126TIP3   OH227792   3.163   0.384   5.826  0.5022 -0.5229 -0.6048
 2126TIP3    H127793   3.184   0.476   5.840  1.2899 -0.9045  0.8751
 2126TIP3    H227794   3.122   0.356   5.908 -1.8113 -0.9509 -1.8193
 2127TIP3   OH227795   5.720   5.259   1.267 -0.3449  0.2055 -0.6416
 2127TIP3    H127796   5.741   5.340   1.313  1.4849 -1.3222  1.4912
 2127TIP3    H227797   5.762   5.268   1.182  1.6440  0.7450  0.3221
 2128TIP3   OH227798   0.111   5.409   5.088 -0.0768 -0.4409  0.0098
 2128TIP3    H127799   0.170   5.378   5.158 -0.4677 -0.6342  0.2570
 2128TIP3    H227800   0.143   5.496   5.066  0.8998 -0.9170 -0.5281
 2129TIP3   OH227801   3.393   4.241  15.060 -0.2468 -0.8368 -0.1402
 2129TIP3    H127802   3.392   4.336  15.051 -1.3710 -0.8713 -0.4690
 2129TIP3    H227803   3.471   4.213  15.012 -1.4167 -0.2976 -2.4712
 2130TIP3   OH227804   3.784   0.731  14.652  0.4485  0.1493 -0.6912
 2130TIP3    H127805   3.808   0.794  14.720 -1.7806 -0.0477  0.3832
 2130TIP3    H227806   3.701   0.764  14.618  0.5394 -0.8459 -1.9332
 2131TIP3   OH227807   5.002   6.008  15.581 -0.1819 -0.8114 -1.0779
 2131TIP3    H127808   5.028   6.100  15.585  2.1200 -1.4560  1.5438
 2131TIP3    H227809   4.910   6.007  15.606 -0.3220  0.7795 -1.4710
 2132TIP3   OH227810   0.372   4.144  15.605 -0.0823 -0.6697  0.5413
 2132TIP3    H127811   0.442   4.081  15.617  0.2364 -0.1376  1.6001
 2132TIP3    H227812   0.321   4.140  15.686 -0.8988 -0.5897  0.0473
 2133TIP3   OH227813   2.556   0.879   4.324 -0.0125  0.0246 -0.1888
 2133TIP3    H127814   2.628   0.819   4.305 -1.3306 -1.7982  0.2006
 2133TIP3    H227815   2.511   0.889   4.240  1.3205  2.1340 -0.7116
 2134TIP3   OH227816   2.443   2.617   0.899 -0.0166  0.2722  0.4661
 2134TIP3    H127817   2.358   2.620   0.856 -0.1362  2.9046  0.7300
 2134TIP3    H227818   2.507   2.619   0.828 -0.1337 -1.0067  0.2960
 2135TIP3   OH227819   1.826   2.609   3.024  0.0357  0.1230  0.4329
 2135TIP3    H127820   1.855   2.528   2.982  1.5764  0.8362  0.0556
 2135TIP3    H227821   1.745   2.584   3.070 -0.5433 -1.1756 -1.1771
 2136TIP3   OH227822   2.430   5.449   3.667 -0.3992  0.4174 -0.2438
 2136TIP3    H127823   2.340   5.482   3.671 -0.6943 -0.3914 -0.0024
 2136TIP3    H227824   2.484   5.527   3.658 -1.1740  0.8658 -1.0977
 2137TIP3   OH227825   3.216   0.697   4.786  0.3280  0.2674  0.0100
 2137TIP3    H127826   3.212   0.680   4.692  0.3041  0.3370 -0.0018
 2137TIP3    H227827   3.294   0.651   4.816  0.1920  0.0305  0.0003
 2138TIP3   OH227828   2.126   4.976  12.814  0.4714  0.0596  0.1536
 2138TIP3    H127829   2.073   4.907  12.776 -2.0429  1.2825  1.2111
 2138TIP3    H227830   2.063   5.039  12.849  2.6331  1.8360  1.1512
 2139TIP3   OH227831   4.227   4.231  15.593 -0.1170  0.9217 -0.2017
 2139TIP3    H127832   4.136   4.215  15.570 -0.7153  1.5955  1.4804
 2139TIP3    H227833   4.268   4.260  15.512 -2.3667  4.3956 -0.3190
 2140TIP3   OH227834   1.639   5.530   4.166 -0.1411 -0.2659  0.0634
 2140TIP3    H127835   1.695   5.503   4.239  0.2374  2.0537  0.7198
 2140TIP3    H227836   1.699   5.545   4.094 -0.3742 -1.2706 -0.3635
 2141TIP3   OH227837   5.219   0.761   4.066  0.3497 -0.4368  0.5982
 2141TIP3    H127838   5.292   0.822   4.064  0.2211 -0.1920  2.3141
 2141TIP3    H227839   5.172   0.777   3.983  0.5926  1.4502  0.7832
 2142TIP3   OH227840   4.703   3.186   5.126  0.6055  0.2856  0.0813
 2142TIP3    H127841   4.706   3.215   5.218  0.4803  1.2103 -0.1942
 2142TIP3    H227842   4.661   3.259   5.080 -1.7514 -1.2168 -0.3220
 2143TIP3   OH227843   4.907   3.954  13.141 -0.0088 -0.0749 -0.5750
 2143TIP3    H127844   4.898   4.048  13.121  0.9999  0.2270  0.2557
 2143TIP3    H227845   4.952   3.953  13.226 -1.6359 -1.3090  0.3201
 2144TIP3   OH227846   2.534   5.719   3.569  0.5415 -0.8827 -0.2222
 2144TIP3    H127847   2.441   5.742   3.567  0.1527 -2.2380  0.7553
 2144TIP3    H227848   2.580   5.803   3.564 -0.7435 -0.1126  0.4464
 2145TIP3   OH227849   3.424   2.738   3.713 -0.5370  0.2429  0.0914
 2145TIP3    H127850   3.477   2.678   3.765 -1.6140 -0.4894  0.3826
 2145TIP3    H227851   3.465   2.823   3.725 -0.8198  0.1238  2.2240
 2146TIP3   OH227852   3.137   0.550   3.048  0.6463  0.3598 -0.2593
 2146TIP3    H127853   3.094   0.533   3.132 -0.5039  2.2403 -0.4226
 2146TIP3    H227854   3.186   0.631   3.062  2.1990 -0.4325 -0.8214
 2147TIP3   OH227855   1.284   3.837   0.169 -0.2627  0.3591 -0.2185
 2147TIP3    H127856   1.234   3.771   0.217  1.4208  0.8138  2.3558
 2147TIP3    H227857   1.220   3.904   0.146 -1.4114 -0.6280  0.0185
 2148TIP3   OH227858   0.547   4.397   3.819  0.2307 -0.2517  0.1716
 2148TIP3    H127859   0.620   4.397   3.881 -0.9234  2.5457  1.7123
 2148TIP3    H227860   0.527   4.489   3.806 -1.3019 -0.8401 -2.3970
 2149TIP3   OH227861   2.972   1.886  16.703  0.1901 -0.2375  0.2324
 2149TIP3    H127862   2.956   1.899  16.609 -0.9541  0.8156  0.5502
 2149TIP3    H227863   3.031   1.811  16.706 -0.4067 -0.8265 -1.2912
 2150TIP3   OH227864   4.196   1.817   4.947  0.1206 -0.1515 -0.6194
 2150TIP3    H127865   4.196   1.791   4.855  1.4003 -0.7581 -0.4832
 2150TIP3    H227866   4.223   1.738   4.994 -0.3431  0.1988  0.2562
 2151TIP3   OH227867   0.227   0.826   0.324 -0.5395 -0.2861  0.9297
 2151TIP3    H127868   0.150   0.836   0.269  0.5339 -1.1357 -0.8168
 2151TIP3    H227869   0.276   0.908   0.312  0.8525 -1.3404 -1.3895
 2152TIP3   OH227870   2.953   0.227   5.101 -0.4363  0.3873 -0.4734
 2152TIP3    H127871   2.884   0.161   5.106 -0.3261  0.1798 -1.3753
 2152TIP3    H227872   2.951   0.272   5.185 -1.2854 -0.0041 -0.2799
 2153TIP3   OH227873   2.174   4.091  11.125 -0.2790 -0.3347  0.0860
 2153TIP3    H127874   2.233   4.150  11.173 -1.5556  0.7398  0.3911
 2153TIP3    H227875   2.107   4.148  11.089 -1.5435 -1.5993  0.3463
 2154TIP3   OH227876   1.366   2.022   0.863  0.6011 -0.2568  0.2277
 2154TIP3    H127877   1.379   2.094   0.801 -1.1711 -1.4248 -1.6666
 2154TIP3    H227878   1.452   2.007   0.901  1.5207  1.3121 -1.0672
 2155TIP3   OH227879   0.441   2.685   3.389 -0.0192  0.3351 -0.1277
 2155TIP3    H127880   0.362   2.736   3.404 -0.1977  1.5732 -4.2132
 2155TIP3    H227881   0.410   2.597   3.370 -0.2679  0.4096 -0.0647
 2156TIP3   OH227882   1.152   0.565   3.153 -0.5594  0.2860  0.0148
 2156TIP3    H127883   1.239   0.560   3.115  0.7319  1.7676  2.4980
 2156TIP3    H227884   1.102   0.622   3.095 -0.0275 -0.8863 -1.6366
 2157TIP3   OH227885   5.791   6.646  16.590  0.4693 -0.3926 -0.1177
 2157TIP3    H127886   5.847   6.722  16.574  0.2832  0.1440  1.6282
 2157TIP3    H227887   5.771   6.613  16.502 -0.5054  2.3609 -1.0624
 2158TIP3   OH227888   2.889   1.115  14.451  0.0131 -0.4832 -0.3661
 2158TIP3    H127889   2.868   1.029  14.415 -1.3416  0.3260 -1.6377
 2158TIP3    H227890   2.906   1.098  14.544 -0.6365 -2.0570 -0.4963
 2159TIP3   OH227891   1.384   3.861   2.297  0.1246 -0.1040  0.0736
 2159TIP3    H127892   1.431   3.939   2.269 -0.7749  0.3810 -0.1265
 2159TIP3    H227893   1.339   3.887   2.378  1.4585 -1.0348  1.1679
 2160TIP3   OH227894   3.146   2.768  14.212 -0.4668  0.0786  0.1170
 2160TIP3    H127895   3.206   2.832  14.250  0.6726 -0.2547 -1.0114
 2160TIP3    H227896   3.081   2.821  14.166 -1.1321  0.4502  1.4586
 2161TIP3   OH227897   5.425   2.784  13.579 -0.2147 -0.7411  0.1650
 2161TIP3    H127898   5.432   2.689  13.576  0.4172 -0.7415  1.2252
 2161TIP3    H227899   5.516   2.815  13.572 -0.5685 -0.0800 -3.0197
 2162TIP3   OH227900   4.760   6.552  14.858 -0.0872 -0.4776  0.0193
 2162TIP3    H127901   4.776   6.467  14.817 -0.1795 -0.4292 -0.1201
 2162TIP3    H227902   4.810   6.614  14.804 -1.1164 -0.2560 -0.7183
 2163TIP3   OH227903   4.380   1.991  11.389 -0.3935  0.2059 -0.3535
 2163TIP3    H127904   4.377   2.079  11.352  0.1213 -0.2605 -1.5428
 2163TIP3    H227905   4.393   2.006  11.483 -0.6510  1.3972 -0.4842
 2164TIP3   OH227906   3.415   3.719  14.152 -0.8179 -0.1587  0.0015
 2164TIP3    H127907   3.422   3.783  14.081 -0.5708 -1.4994 -1.2371
 2164TIP3    H227908   3.332   3.674  14.135 -0.8368 -0.3845  0.6719
 2165TIP3   OH227909   4.779   0.854  14.681 -0.3084  0.1270  0.2280
 2165TIP3    H127910   4.795   0.763  14.704 -0.5403 -0.1512 -0.6871
 2165TIP3    H227911   4.789   0.901  14.764  0.7308 -0.5992  0.5400
 2166TIP3   OH227912   5.395   4.228   4.334  0.1797  0.0915 -0.0038
 2166TIP3    H127913   5.477   4.193   4.367 -0.4275  0.0322  1.5285
 2166TIP3    H227914   5.329   4.164   4.359 -0.2538 -0.3334 -2.0403
 2167TIP3   OH227915   4.387   4.575   6.772 -0.5651 -0.2152  0.7285
 2167TIP3    H127916   4.322   4.518   6.730 -0.7966  0.6702 -0.1756
 2167TIP3    H227917   4.337   4.652   6.799 -0.0345  0.1243  0.7536
 2168TIP3   OH227918   1.121   4.647  11.523 -0.1945 -0.2566 -0.3310
 2168TIP3    H127919   1.104   4.712  11.591 -1.3983  1.0095 -1.7427
 2168TIP3    H227920   1.211   4.665  11.495 -0.6253  1.0962 -0.9370
 2169TIP3   OH227921   6.382   4.231   5.167 -0.4697  0.1668 -0.2299
 2169TIP3    H127922   6.355   4.160   5.108 -1.4448  1.4024 -1.3643
 2169TIP3    H227923   6.466   4.260   5.132 -0.4299  0.0613 -0.2238
 2170TIP3   OH227924   3.546   0.003   2.659 -0.1706 -0.4324  0.2353
 2170TIP3    H127925   3.564  -0.063   2.593 -0.6095  0.4300 -0.7792
 2170TIP3    H227926   3.543  -0.045   2.741  0.9681 -1.4451 -0.2842
 2171TIP3   OH227927   0.835   2.042   1.696 -0.4150 -0.5858  0.4638
 2171TIP3    H127928   0.835   2.136   1.678 -1.2847 -0.5071  0.8193
 2171TIP3    H227929   0.743   2.017   1.695 -0.2985 -1.1524  1.7794
 2172TIP3   OH227930   4.427   2.307   3.340 -0.2617  0.2109 -0.1250
 2172TIP3    H127931   4.411   2.277   3.429  0.1430  2.1446  0.6691
 2172TIP3    H227932   4.355   2.368   3.322 -0.4323 -0.2855 -1.1935
 2173TIP3   OH227933   4.048   0.195   4.720  0.1359 -0.3838  0.4501
 2173TIP3    H127934   3.968   0.184   4.668  0.2765  1.3867 -0.1954
 2173TIP3    H227935   4.021   0.175   4.810 -0.5861 -1.5532 -0.0008
 2174TIP3   OH227936   6.438   0.512  10.758 -0.3061  0.1181  0.1171
 2174TIP3    H127937   6.350   0.542  10.739 -0.3626  0.6572  1.1206
 2174TIP3    H227938   6.495   0.577  10.718 -0.3716 -0.0701 -0.2803
 2175TIP3   OH227939   5.077   3.631   2.394 -0.0220  0.5018 -0.4140
 2175TIP3    H127940   5.045   3.614   2.482  0.0975 -0.7990 -0.5926
 2175TIP3    H227941   5.171   3.614   2.398  0.0229  0.6647 -0.7356
 2176TIP3   OH227942   1.679   4.062   5.246  0.0810 -0.3275  0.1214
 2176TIP3    H127943   1.736   4.013   5.305 -1.5209 -0.9588  1.2110
 2176TIP3    H227944   1.697   4.024   5.160  1.5403 -0.2510  0.3646
 2177TIP3   OH227945   4.796   6.204  11.785  1.1071 -0.2350  0.0588
 2177TIP3    H127946   4.788   6.177  11.694  0.8840  0.5059 -0.1468
 2177TIP3    H227947   4.813   6.298  11.781  0.1347 -0.0033  0.8017
 2178TIP3   OH227948   6.591   4.739  16.669  0.3358 -0.6152  0.3161
 2178TIP3    H127949   6.552   4.808  16.617  1.2692 -1.1200 -1.1079
 2178TIP3    H227950   6.683   4.765  16.679  1.2187 -2.4849 -1.8969
 2179TIP3   OH227951   2.812   0.732  12.235  0.5564  0.4170  0.2682
 2179TIP3    H127952   2.896   0.694  12.259  0.1933  0.3105  1.4152
 2179TIP3    H227953   2.802   0.808  12.293 -0.3635  0.1322  0.5007
 2180TIP3   OH227954   3.514   0.740   2.139  0.4158 -0.1757  0.1897
 2180TIP3    H127955   3.566   0.785   2.206 -1.9875 -0.0294  2.1413
 2180TIP3    H227956   3.541   0.648   2.145  0.1006 -0.2022  1.5872
 2181TIP3   OH227957   4.574   3.271   5.712 -0.3307 -0.2755 -0.8867
 2181TIP3    H127958   4.583   3.358   5.750  0.9378 -0.2511 -1.1819
 2181TIP3    H227959   4.528   3.220   5.778  0.5387  0.1468  0.0728
 2182TIP3   OH227960   5.398   0.624  16.229 -0.0303 -0.3231  0.1160
 2182TIP3    H127961   5.491   0.636  16.250 -0.0655 -0.8649  0.6181
 2182TIP3    H227962   5.352   0.650  16.309 -0.1525 -2.7782  0.9344
 2183TIP3   OH227963   4.699   2.166   4.798 -0.1966  0.1175 -0.2432
 2183TIP3    H127964   4.769   2.143   4.860 -0.2930  0.7388  0.1021
 2183TIP3    H227965   4.621   2.174   4.853  0.1036  2.7721 -0.0676
 2184TIP3   OH227966   6.637   1.229   3.986  0.5341 -0.0558  0.5628
 2184TIP3    H127967   6.674   1.196   3.904 -0.0616 -0.6287  0.5194
 2184TIP3    H227968   6.611   1.319   3.965  0.3148 -0.2232  0.0985
 2185TIP3   OH227969   3.013   4.886   1.058  0.0730 -0.1124  0.1213
 2185TIP3    H127970   3.100   4.854   1.081  0.7176 -0.1375 -2.0709
 2185TIP3    H227971   2.981   4.822   0.994 -0.9639  0.6628 -0.1540
 2186TIP3   OH227972   3.569   1.724   6.587 -0.4137  0.2025  0.1720
 2186TIP3    H127973   3.591   1.631   6.589 -0.5797  0.1681  2.1337
 2186TIP3    H227974   3.476   1.727   6.606 -0.5377  0.7608 -0.4807
 2187TIP3   OH227975   5.057   3.965  16.746 -0.0622  0.1862 -0.2977
 2187TIP3    H127976   5.116   3.941  16.818 -0.8079 -2.1370 -0.4039
 2187TIP3    H227977   5.086   4.053  16.720  2.4753 -0.3238  0.5413
 2188TIP3   OH227978   3.936   0.165  16.998 -0.3008 -0.4104  0.0703
 2188TIP3    H127979   4.019   0.180  16.954 -0.6027 -0.3559 -0.4834
 2188TIP3    H227980   3.951   0.198  17.087  1.3883 -3.5386  1.0869
 2189TIP3   OH227981   4.060   3.355   3.605  0.6288 -0.5687  0.3890
 2189TIP3    H127982   4.125   3.424   3.592  0.0358 -0.2300 -1.0187
 2189TIP3    H227983   4.110   3.280   3.638  1.6391 -0.1554 -0.1560
 2190TIP3   OH227984   2.674   1.594   5.630  0.1153  0.0424 -0.1003
 2190TIP3    H127985   2.737   1.540   5.679 -0.1060 -0.7399 -0.6726
 2190TIP3    H227986   2.691   1.573   5.538 -0.4412  0.4351 -0.2942
 2191TIP3   OH227987   1.520   5.000  17.142  0.7880  0.1760  0.2953
 2191TIP3    H127988   1.511   4.907  17.122 -0.6048  0.0899  1.1925
 2191TIP3    H227989   1.554   5.039  17.061  1.3809 -1.0896 -0.0929
 2192TIP3   OH227990   0.309   4.274  16.968  0.5915 -0.3839  0.3895
 2192TIP3    H127991   0.374   4.225  16.916  0.4314  0.3637 -0.5506
 2192TIP3    H227992   0.236   4.214  16.978  1.3274 -1.1517  1.2451
 2193TIP3   OH227993   6.020   4.298  13.161 -0.8295  0.3672 -0.0061
 2193TIP3    H127994   6.092   4.246  13.125 -0.5598  1.1186 -0.5934
 2193TIP3    H227995   6.016   4.375  13.104 -1.2513  0.9604  0.8070
 2194TIP3   OH227996   3.631   1.237   6.205 -0.6278 -0.2572 -0.4423
 2194TIP3    H127997   3.677   1.236   6.121 -0.5775 -1.6103 -0.4224
 2194TIP3    H227998   3.647   1.150   6.242 -1.2564  0.0683  0.6401
 2195TIP3   OH227999   1.603   5.276  13.544  0.1744 -0.1490  0.1785
 2195TIP3    H128000   1.610   5.207  13.478  1.3254  0.2723 -0.1538
 2195TIP3    H228001   1.584   5.229  13.625  1.2954 -0.8981  0.0255
 2196TIP3   OH228002   5.591   5.982  12.031  0.4067  0.2502 -0.2133
 2196TIP3    H128003   5.529   6.048  12.001 -0.4088 -0.0594  0.7176
 2196TIP3    H228004   5.666   5.991  11.973 -0.4745  0.6940 -1.3174
 2197TIP3   OH228005   1.530   5.738   1.457 -0.1054 -0.6462  0.1425
 2197TIP3    H128006   1.556   5.762   1.368 -1.2978 -0.4084 -0.1570
 2197TIP3    H228007   1.443   5.700   1.447  0.6928 -2.8103  0.9275
 2198TIP3   OH228008   0.594   6.280  14.833  0.1617 -0.1381  0.0874
 2198TIP3    H128009   0.590   6.334  14.754  1.8150  0.8823  0.6517
 2198TIP3    H228010   0.615   6.193  14.801  2.4112  0.5625 -0.5672
 2199TIP3   OH228011   1.335   1.129  13.411 -0.4318  0.4205 -0.4557
 2199TIP3    H128012   1.408   1.110  13.470  0.3323  0.1939 -1.4363
 2199TIP3    H228013   1.376   1.173  13.337 -1.0718 -0.9769 -1.6935
 2200TIP3   OH228014   0.017   6.125   2.428  0.0375  0.1997  0.7599
 2200TIP3    H128015   0.070   6.048   2.449  0.0860  0.6022  2.2011
 2200TIP3    H228016   0.061   6.164   2.353  0.8496 -0.3680  0.9236
 2201TIP3   OH228017   1.450   0.582  14.063  0.1584  0.3613 -0.5602
 2201TIP3    H128018   1.395   0.530  14.121  0.5908 -0.5247 -0.9207
 2201TIP3    H228019   1.406   0.667  14.058 -0.4573  0.1007  0.1969
 2202TIP3   OH228020   2.036   6.306   4.507  0.5470  0.1952  1.0043
 2202TIP3    H128021   2.109   6.367   4.517 -0.1448  1.3236 -0.3958
 2202TIP3    H228022   1.987   6.340   4.433 -1.6925 -0.2325  2.1977
 2203TIP3   OH228023   0.295   1.615   5.146  0.5022 -0.0443 -0.0483
 2203TIP3    H128024   0.255   1.553   5.206 -1.4799  1.0987 -0.1036
 2203TIP3    H228025   0.380   1.635   5.186 -0.4468  0.1215  2.0151
 2204TIP3   OH228026   4.943   6.674  15.207 -0.3478 -0.2452  0.1613
 2204TIP3    H128027   4.969   6.659  15.297  0.9637  1.1802  0.0650
 2204TIP3    H228028   4.976   6.599  15.158  1.5706  0.3684  0.4350
 2205TIP3   OH228029   4.444   3.095   0.857  0.6352  0.4615  0.1735
 2205TIP3    H128030   4.496   3.121   0.933 -1.6371  1.8153  1.3745
 2205TIP3    H228031   4.476   3.152   0.786  2.0335 -0.0585  0.3544
 2206TIP3   OH228032   0.412   4.480   2.935 -0.4137  0.3365  0.2380
 2206TIP3    H128033   0.352   4.532   2.880  0.3176  2.1099  1.0283
 2206TIP3    H228034   0.476   4.544   2.967  1.1663 -1.2817  0.4395
 2207TIP3   OH228035   0.677   5.583   3.398 -0.1006 -0.1197  0.2956
 2207TIP3    H128036   0.671   5.523   3.324  1.4326 -0.8838  0.7413
 2207TIP3    H228037   0.771   5.587   3.418 -0.3329  1.1863  1.3021
 2208TIP3   OH228038   4.791   2.270   0.439 -0.1358  0.1941  0.3145
 2208TIP3    H128039   4.854   2.336   0.411 -1.2539  1.1936  0.0733
 2208TIP3    H228040   4.840   2.187   0.437  1.2333  0.9778  0.4425
 2209TIP3   OH228041   0.860   3.951  11.419  0.7636 -0.0294 -0.1749
 2209TIP3    H128042   0.931   3.932  11.357  0.6324  0.2732 -0.4207
 2209TIP3    H228043   0.831   4.039  11.395  0.8482  0.1750  0.4505
 2210TIP3   OH228044   1.885   2.727   1.870 -0.3155  0.1943 -0.3306
 2210TIP3    H128045   1.929   2.805   1.902 -4.8572  3.1937 -0.5623
 2210TIP3    H228046   1.926   2.709   1.785 -0.4695  3.7644 -1.3044
 2211TIP3   OH228047   6.736   0.287  15.889 -0.5366 -0.0366 -0.3554
 2211TIP3    H128048   6.677   0.332  15.950  0.3235  1.7630 -0.7697
 2211TIP3    H228049   6.809   0.257  15.943  0.2033  1.5184 -0.4297
 2212TIP3   OH228050   0.027   1.904   1.816  0.1982 -0.2570 -0.0921
 2212TIP3    H128051  -0.043   1.839   1.818  1.7307 -1.9890 -0.2926
 2212TIP3    H228052   0.084   1.880   1.889 -0.5587  2.5428  1.5569
 2213TIP3   OH228053   6.354   3.785  11.132 -0.7164  0.1347 -0.1435
 2213TIP3    H128054   6.273   3.745  11.162 -0.7533  0.2085 -0.1440
 2213TIP3    H228055   6.342   3.797  11.038 -1.3523  1.6067  0.0895
 2214TIP3   OH228056   0.632   1.885  14.865  0.6406  0.1103 -0.0895
 2214TIP3    H128057   0.636   1.821  14.936  2.8727 -0.4810 -0.6812
 2214TIP3    H228058   0.556   1.860  14.814  0.6606 -1.2057  0.4906
 2215TIP3   OH228059   0.482   4.114   1.914 -0.6312  0.0646 -0.0881
 2215TIP3    H128060   0.570   4.153   1.913 -0.5771  0.0165  1.0965
 2215TIP3    H228061   0.458   4.107   1.822  1.5120 -1.9880 -0.5877
 2216TIP3   OH228062   2.347   3.987   1.134  0.3682 -0.3507 -0.2775
 2216TIP3    H128063   2.253   3.967   1.141  0.1103  0.0902 -1.9881
 2216TIP3    H228064   2.379   3.984   1.224 -1.5376  0.6648  0.4937
 2217TIP3   OH228065   3.945   4.395   6.451 -0.2889 -0.2564  0.3037
 2217TIP3    H128066   4.011   4.426   6.513 -1.4711  1.6177  0.7167
 2217TIP3    H228067   3.947   4.458   6.379 -0.9017 -0.7763 -0.1894
 2218TIP3   OH228068   1.033   2.738   1.030  0.0538  0.1314 -0.7281
 2218TIP3    H128069   1.088   2.806   1.070 -0.1323  0.3666 -0.8731
 2218TIP3    H228070   1.057   2.658   1.077  1.3945 -0.0142 -1.5823
 2219TIP3   OH228071   2.519   6.515  13.317 -0.5213  0.1258 -0.3133
 2219TIP3    H128072   2.512   6.426  13.351  0.8221  0.9910  2.5313
 2219TIP3    H228073   2.464   6.567  13.376  2.2469  1.7903  0.9664
 2220TIP3   OH228074   6.053   5.446  17.051  0.2525 -0.1800 -0.6117
 2220TIP3    H128075   5.992   5.506  17.008  0.4776  1.1956  0.8668
 2220TIP3    H228076   6.104   5.408  16.980 -1.3186 -0.2338 -1.7629
 2221TIP3   OH228077   4.785   3.336  13.492 -0.5576  0.0111 -0.2475
 2221TIP3    H128078   4.698   3.307  13.466 -0.7271  1.3269 -1.2707
 2221TIP3    H228079   4.830   3.355  13.410 -0.6329  2.9694  0.2919
 2222TIP3   OH228080   4.497   3.248  14.554  0.2707 -0.1473 -0.1279
 2222TIP3    H128081   4.581   3.213  14.584 -0.5121 -1.8930  0.2124
 2222TIP3    H228082   4.483   3.206  14.469 -1.1461 -1.5145  0.7186
 2223TIP3   OH228083   6.273   3.588   5.220  0.8592 -0.3904  0.0444
 2223TIP3    H128084   6.259   3.612   5.312  0.7902  0.1228 -0.0965
 2223TIP3    H228085   6.359   3.625   5.199  1.1457 -1.0378  0.0796
 2224TIP3   OH228086   0.840   3.624  15.041 -0.1554 -0.1159 -0.1573
 2224TIP3    H128087   0.860   3.531  15.044  0.4653  0.0203 -0.0223
 2224TIP3    H228088   0.895   3.659  14.972  0.1771  0.2830  0.3037
 2225TIP3   OH228089   5.059   0.011  16.778 -0.2669 -0.5361  0.5788
 2225TIP3    H128090   5.080   0.099  16.808  0.0870 -0.8242  1.1866
 2225TIP3    H228091   5.089   0.010  16.687  1.2262 -0.5204  1.0297
 2226TIP3   OH228092   1.194   3.311  12.293 -0.1789  0.1688 -0.0858
 2226TIP3    H128093   1.185   3.330  12.200  2.0675 -0.0832 -0.3965
 2226TIP3    H228094   1.253   3.378  12.327 -1.2359  0.4795  1.2852
 2227TIP3   OH228095   6.224   1.659   5.956 -0.3629  0.0092 -0.6568
 2227TIP3    H128096   6.283   1.732   5.941 -0.0561  0.2111  1.2865
 2227TIP3    H228097   6.281   1.586   5.981 -0.8613  0.3556  1.8100
 2228TIP3   OH228098   5.674   2.564  15.079  0.0587  0.0709  0.6068
 2228TIP3    H128099   5.683   2.534  14.988  2.0126 -1.4836  1.2217
 2228TIP3    H228100   5.659   2.658  15.072  0.4726  0.0443 -1.3193
 2229TIP3   OH228101   1.504   4.833  15.072  0.5843  0.0191  0.8512
 2229TIP3    H128102   1.508   4.917  15.117  0.8185  1.4182 -1.6060
 2229TIP3    H228103   1.579   4.784  15.106  0.4238  0.7746  2.3620
 2230TIP3   OH228104   2.668   3.602   1.090  0.0474  0.0310 -0.0925
 2230TIP3    H128105   2.573   3.608   1.104  0.2398  2.5558  0.7329
 2230TIP3    H228106   2.686   3.662   1.018  0.9816 -0.7199 -0.5052
 2231TIP3   OH228107   1.905   3.865   3.325 -0.3433 -0.1034 -0.1866
 2231TIP3    H128108   1.821   3.911   3.328 -0.4205 -0.2704  0.5161
 2231TIP3    H228109   1.970   3.934   3.333 -0.4734 -0.1386  2.1266
 2232TIP3   OH228110   5.812   5.997   3.783 -0.2793 -0.2832  0.2137
 2232TIP3    H128111   5.873   5.939   3.829  4.1697  1.2505 -3.0205
 2232TIP3    H228112   5.810   6.077   3.836  0.6271 -0.3308  0.3338
 2233TIP3   OH228113   3.650   1.340  14.992 -0.0187  0.1108  0.2116
 2233TIP3    H128114   3.604   1.308  14.915  0.3076  0.4109 -0.1117
 2233TIP3    H228115   3.582   1.377  15.048 -0.5032 -1.6693  0.8795
 2234TIP3   OH228116   4.251   4.118  12.942  0.2050 -0.0753 -0.0474
 2234TIP3    H128117   4.251   4.184  12.872  0.1263  0.3945  0.3876
 2234TIP3    H228118   4.325   4.061  12.921  1.0916  0.9247  0.2799
 2235TIP3   OH228119   1.822   1.674   1.649 -0.2173  0.0585 -0.2681
 2235TIP3    H128120   1.753   1.736   1.624 -1.4803 -1.2778 -0.2811
 2235TIP3    H228121   1.831   1.617   1.572 -0.9811 -1.3656  0.6483
 2236TIP3   OH228122   2.197   2.405  14.760 -0.2673 -0.3634 -0.0314
 2236TIP3    H128123   2.205   2.318  14.798 -0.0983 -0.8543 -1.1369
 2236TIP3    H228124   2.188   2.464  14.835  0.3497 -1.2492  0.7568
 2237TIP3   OH228125   0.030   3.129  11.268  0.6062  0.0724  0.2184
 2237TIP3    H128126  -0.018   3.091  11.342  0.5873 -1.1717 -0.3963
 2237TIP3    H228127   0.113   3.159  11.305  0.1540  0.4536  0.9335
 2238TIP3   OH228128   0.526   5.253   0.714 -0.0646 -0.1339 -0.0704
 2238TIP3    H128129   0.504   5.235   0.623  0.7313 -0.3615 -0.2197
 2238TIP3    H228130   0.443   5.282   0.753 -0.7986 -1.6078 -0.4617
 2239TIP3   OH228131   4.481   3.976   0.970 -0.1301  0.2506  0.2011
 2239TIP3    H128132   4.498   3.911   1.038 -1.5771  0.4439  0.7825
 2239TIP3    H228133   4.566   4.019   0.956  0.3387 -0.2548  1.3970
 2240TIP3   OH228134   1.065   6.469   5.830 -0.5576 -0.7196 -0.1315
 2240TIP3    H128135   1.088   6.500   5.918 -1.2428  1.7650 -0.7732
 2240TIP3    H228136   1.034   6.379   5.845  1.1033 -1.0695  1.8778
 2241TIP3   OH228137   4.223   3.089   1.607 -0.2500  0.1021 -0.0676
 2241TIP3    H128138   4.285   3.022   1.578 -0.5586 -0.1859 -0.0784
 2241TIP3    H228139   4.137   3.055   1.580 -0.5459 -0.1467  1.1129
 2242TIP3   OH228140   3.383   3.755  15.441  0.3091 -0.7718  0.1797
 2242TIP3    H128141   3.374   3.660  15.443 -0.0827 -0.7643 -0.8280
 2242TIP3    H228142   3.478   3.770  15.438  0.3853 -1.1105  0.8250
 2243TIP3   OH228143   0.695   1.070  14.920 -0.0532 -0.0743  0.0687
 2243TIP3    H128144   0.756   1.142  14.935 -0.7095  0.4149  0.4541
 2243TIP3    H228145   0.712   1.042  14.830  1.0025 -0.2113  0.2960
 2244TIP3   OH228146   0.726   0.030   1.437 -0.4629 -0.2013 -0.1252
 2244TIP3    H128147   0.795   0.001   1.498 -0.3922 -0.3549 -0.2790
 2244TIP3    H228148   0.760   0.111   1.400  0.8090 -1.5815 -2.1464
 2245TIP3   OH228149   0.859   0.104  12.209  0.6587 -0.4771  0.4363
 2245TIP3    H128150   0.895   0.112  12.120 -1.9655  0.9066 -0.6498
 2245TIP3    H228151   0.861   0.194  12.243 -1.9659 -0.1994  0.1038
 2246TIP3   OH228152   2.115   2.525  16.711 -0.1360 -0.6017  0.0172
 2246TIP3    H128153   2.177   2.462  16.675  0.2206 -0.5974  0.6155
 2246TIP3    H228154   2.169   2.586  16.761 -0.7506 -1.5873  1.9932
 2247TIP3   OH228155   0.246   2.895  13.239 -0.7608 -0.3467 -0.1381
 2247TIP3    H128156   0.308   2.823  13.249  0.8580  0.5665 -2.5481
 2247TIP3    H228157   0.184   2.864  13.174 -0.1938  0.2833 -1.0104
 2248TIP3   OH228158   4.353   3.821  16.328 -0.6093 -0.2004  0.3588
 2248TIP3    H128159   4.362   3.775  16.412  2.2316  0.7886  0.7204
 2248TIP3    H228160   4.377   3.911  16.348 -0.5358  0.2017 -1.3962
 2249TIP3   OH228161   5.969   3.963   4.617 -0.2648 -0.4862 -0.3468
 2249TIP3    H128162   6.019   4.014   4.554  3.0507 -0.4707  2.0691
 2249TIP3    H228163   5.991   3.872   4.598  0.2722 -0.5165  0.4015
 2250TIP3   OH228164   1.493   1.623  14.093 -0.1096 -0.2296 -0.3384
 2250TIP3    H128165   1.487   1.717  14.072  1.2690 -0.0040  0.2003
 2250TIP3    H228166   1.502   1.580  14.008  0.4580  0.2354 -0.5180
 2251TIP3   OH228167   6.472   1.677   5.373  0.0759 -0.2764 -0.0594
 2251TIP3    H128168   6.477   1.753   5.431  0.4833 -0.1789 -0.2161
 2251TIP3    H228169   6.407   1.620   5.413  0.2428 -0.1396  0.4070
 2252TIP3   OH228170   0.424   5.900  15.695  0.5248 -0.0954  0.1622
 2252TIP3    H128171   0.340   5.903  15.740 -0.5914 -1.3517 -1.7139
 2252TIP3    H228172   0.406   5.936  15.607  2.8478  3.3485  0.8526
 2253TIP3   OH228173   0.340   5.726  11.837 -0.0353  0.4678 -0.2063
 2253TIP3    H128174   0.433   5.745  11.847 -0.1359  0.5316  0.6937
 2253TIP3    H228175   0.298   5.812  11.835 -0.0932  0.4351 -0.3817
 2254TIP3   OH228176   0.137   0.573   0.868  0.2447  0.3287 -0.2108
 2254TIP3    H128177   0.087   0.614   0.797 -0.5859  0.1810  0.2686
 2254TIP3    H228178   0.151   0.483   0.838 -0.1369  0.2562 -0.1858
 2255TIP3   OH228179   2.266   1.281   4.139  0.1210 -0.4024  0.4751
 2255TIP3    H128180   2.176   1.306   4.119  0.0997 -0.9758 -0.1934
 2255TIP3    H228181   2.318   1.315   4.066  0.3766 -0.4945  0.6102
 2256TIP3   OH228182   2.416   2.885  11.210  0.4079  0.1342  0.3301
 2256TIP3    H128183   2.490   2.871  11.268 -0.3211  0.7520  1.4374
 2256TIP3    H228184   2.382   2.971  11.234  1.0968  1.1744 -2.1635
 2257TIP3   OH228185   5.649   5.548   3.879  0.3354 -0.0368 -0.5420
 2257TIP3    H128186   5.654   5.615   3.947 -1.1529  0.6005 -1.0307
 2257TIP3    H228187   5.694   5.587   3.804  0.9936 -0.2990 -0.2966
 2258TIP3   OH228188   5.776   4.627   2.347 -0.5127 -0.3353 -0.0702
 2258TIP3    H128189   5.838   4.669   2.287 -1.7482 -0.7620 -1.7056
 2258TIP3    H228190   5.732   4.699   2.391 -1.2072  0.0673 -1.3849
 2259TIP3   OH228191   5.172   3.362  12.927  0.1725 -0.0090 -0.0239
 2259TIP3    H128192   5.220   3.300  12.982 -0.2736 -0.3502 -0.0171
 2259TIP3    H228193   5.198   3.340  12.838 -0.3718 -0.5449 -0.0562
 2260TIP3   OH228194   5.204   4.946  14.632  0.1116  0.2140 -0.9886
 2260TIP3    H128195   5.237   5.019  14.579 -0.3615  2.2476  1.3534
 2260TIP3    H228196   5.110   4.959  14.634 -0.0223 -0.7233 -0.8523
 2261TIP3   OH228197   0.212   3.031  16.427 -0.5828  0.2696  0.1688
 2261TIP3    H128198   0.247   3.047  16.340 -0.6566 -2.1119 -0.3712
 2261TIP3    H228199   0.270   2.965  16.464 -1.9464 -0.5347  0.9555
 2262TIP3   OH228200   2.954   6.621   6.365 -0.0733 -0.2280 -0.0826
 2262TIP3    H128201   2.910   6.666   6.436 -0.5127 -1.5622  0.5101
 2262TIP3    H228202   2.907   6.650   6.286 -0.4665  0.1956  0.2990
 2263TIP3   OH228203   4.307   4.689  15.637  0.1104 -0.1337  0.3048
 2263TIP3    H128204   4.360   4.610  15.628  0.3628  0.0433  0.2413
 2263TIP3    H228205   4.217   4.658  15.627  0.0026 -0.8251  2.8819
 2264TIP3   OH228206   5.477   0.381   1.767 -0.4181 -0.6493  0.2082
 2264TIP3    H128207   5.410   0.373   1.699 -0.2903 -0.3668  0.0492
 2264TIP3    H228208   5.554   0.415   1.722 -0.2067 -0.8469  0.4168
 2265TIP3   OH228209   1.877   5.211  16.087  0.1962  0.2300 -0.0266
 2265TIP3    H128210   1.809   5.156  16.047  0.0229 -0.5518  1.2716
 2265TIP3    H228211   1.837   5.298  16.093  0.4212  0.5151 -1.9691
 2266TIP3   OH228212   3.844   2.291  15.932 -0.3367  0.1144  0.0219
 2266TIP3    H128213   3.873   2.266  16.020 -1.0818  0.5638  0.4088
 2266TIP3    H228214   3.854   2.211  15.880 -0.5694 -0.3625  0.6922
 2267TIP3   OH228215   3.091   1.814  11.712 -0.0507 -0.3796  0.1480
 2267TIP3    H128216   3.132   1.894  11.679 -1.5220  1.0859  1.6258
 2267TIP3    H228217   3.010   1.806  11.661  0.0784 -0.9372  0.0217
 2268TIP3   OH228218   1.472   4.261   3.938  0.0737 -0.3710 -0.1207
 2268TIP3    H128219   1.455   4.349   3.904  0.7540 -0.5591 -0.9819
 2268TIP3    H228220   1.554   4.234   3.895 -0.6310 -1.8023 -0.6175
 2269TIP3   OH228221   6.281   1.148  13.538 -0.3437 -0.4909 -0.0904
 2269TIP3    H128222   6.218   1.090  13.495 -0.5752  1.1185 -2.0412
 2269TIP3    H228223   6.366   1.119  13.506 -0.3216 -0.7542  0.1989
 2270TIP3   OH228224   1.524   3.125   1.362 -0.0645  0.4268 -0.4897
 2270TIP3    H128225   1.582   3.200   1.375  0.0045  0.5361 -1.3606
 2270TIP3    H228226   1.580   3.049   1.373  0.0352  0.5125 -0.3993
 2271TIP3   OH228227   2.533   5.702   2.926  0.1187  0.3016  0.4648
 2271TIP3    H128228   2.492   5.682   3.010 -0.3863 -0.7627 -0.0103
 2271TIP3    H228229   2.520   5.796   2.914 -0.4083  0.3355  1.2587
 2272TIP3   OH228230   5.524   5.904   0.282 -0.0508  0.0793  0.0613
 2272TIP3    H128231   5.466   5.952   0.340 -1.0376  0.1772 -0.9876
 2272TIP3    H228232   5.594   5.872   0.340 -1.9530 -1.4395  1.6754
 2273TIP3   OH228233   0.325   4.195  14.137 -0.2325  0.3313 -0.0079
 2273TIP3    H128234   0.338   4.104  14.165 -0.9859 -0.0048 -0.7170
 2273TIP3    H228235   0.232   4.200  14.116 -0.0287  1.0465 -0.7621
 2274TIP3   OH228236   6.627   0.790  16.086 -0.0876 -0.4489  0.2540
 2274TIP3    H128237   6.610   0.883  16.073 -1.8223 -0.7616 -0.0459
 2274TIP3    H228238   6.697   0.787  16.151 -0.4724  1.0640  0.7819
 2275TIP3   OH228239   0.428   4.239   0.992 -0.1849  0.2818  0.3057
 2275TIP3    H128240   0.383   4.176   1.048 -0.0989  0.1347  0.2104
 2275TIP3    H228241   0.415   4.206   0.903  0.8523 -0.2511  0.3271
 2276TIP3   OH228242   2.193   3.171   2.447 -0.6706 -0.1192  0.3741
 2276TIP3    H128243   2.256   3.198   2.514  0.8311 -0.2674 -0.9263
 2276TIP3    H228244   2.107   3.183   2.488  0.0681  2.5197  1.3371
 2277TIP3   OH228245   2.625   1.093  13.903  0.1301  0.4432  0.2427
 2277TIP3    H128246   2.704   1.139  13.875  0.3633  0.9218  1.6389
 2277TIP3    H228247   2.594   1.142  13.979 -1.3007  0.0397 -0.0528
 2278TIP3   OH228248   6.463   1.909   5.523 -0.7094  0.0362  0.2892
 2278TIP3    H128249   6.433   1.999   5.517  1.1453  0.6557 -0.5517
 2278TIP3    H228250   6.545   1.915   5.572 -0.7583 -1.2557  0.5609
 2279TIP3   OH228251   3.633   2.090  15.745 -0.0230 -0.3144 -0.0812
 2279TIP3    H128252   3.720   2.070  15.779 -0.2742  1.1239  1.5186
 2279TIP3    H228253   3.650   2.131  15.660  0.7277 -1.7553 -0.6771
 2280TIP3   OH228254   6.134   0.662  14.323  0.0911  0.1637 -0.1465
 2280TIP3    H128255   6.053   0.615  14.303 -1.5558  1.7082  2.2719
 2280TIP3    H228256   6.142   0.728  14.254  0.5271 -1.3383 -1.5929
 2281TIP3   OH228257   5.787   5.494   3.151  0.6926 -0.3724  0.0433
 2281TIP3    H128258   5.721   5.426   3.133  0.8540 -1.0158  1.7653
 2281TIP3    H228259   5.855   5.478   3.085 -0.8741  0.3864 -1.8637
 2282TIP3   OH228260   0.685   6.078   0.868  0.1792  0.1444  0.2768
 2282TIP3    H128261   0.634   6.085   0.949  0.6025  0.1194  0.5486
 2282TIP3    H228262   0.662   5.992   0.833  0.1509  0.0687  0.4780
 2283TIP3   OH228263   0.881   3.847   4.308 -0.0676 -0.6965  0.6953
 2283TIP3    H128264   0.906   3.897   4.230 -1.4450 -2.3222 -0.9010
 2283TIP3    H228265   0.792   3.816   4.289 -0.0600 -1.9912  2.4819
 2284TIP3   OH228266   5.802   4.570  15.920 -0.1503 -0.7963  0.8363
 2284TIP3    H128267   5.733   4.556  15.855  0.9280  1.0043 -0.8000
 2284TIP3    H228268   5.778   4.653  15.962  1.2071  0.0930 -0.0801
 2285TIP3   OH228269   4.163   1.592   3.220 -0.5841 -0.1711 -0.6787
 2285TIP3    H128270   4.195   1.682   3.213  0.1490 -0.2852  0.7770
 2285TIP3    H228271   4.223   1.541   3.165  1.6491 -0.3218  1.7061
 2286TIP3   OH228272   1.358   6.481  11.531  0.8490  0.1837 -0.4306
 2286TIP3    H128273   1.309   6.542  11.586 -0.5311  1.0199 -2.4404
 2286TIP3    H228274   1.338   6.509  11.442  2.2261 -1.6827 -1.3866
 2287TIP3   OH228275   5.272   5.590  12.738 -0.1199 -0.3621 -0.2615
 2287TIP3    H128276   5.336   5.569  12.670 -0.3874 -0.1367 -0.5906
 2287TIP3    H228277   5.322   5.641  12.802  0.1689 -0.6994 -0.2170
 2288TIP3   OH228278   2.984   2.516   5.058 -0.3696  0.0861  0.2755
 2288TIP3    H128279   3.008   2.537   4.968 -2.2790  0.7622 -0.1246
 2288TIP3    H228280   2.929   2.438   5.050  0.2187 -0.4011  0.9570
 2289TIP3   OH228281   2.489   2.740  11.623  0.9513 -0.4404  0.1260
 2289TIP3    H128282   2.437   2.661  11.608  0.0481 -0.3568  2.3762
 2289TIP3    H228283   2.551   2.714  11.692  0.5229  0.8524  1.0178
 2290TIP3   OH228284   5.356   0.791  17.197  0.6712  0.0880 -0.0689
 2290TIP3    H128285   5.400   0.747  17.125  2.3033  1.5897 -0.0663
 2290TIP3    H228286   5.303   0.859  17.156 -0.7725 -0.9515  0.0057
 2291TIP3   OH228287   1.975   3.907   5.158  1.0498  0.1502  0.4795
 2291TIP3    H128288   1.944   3.877   5.244  0.5477 -2.1811 -0.4179
 2291TIP3    H228289   2.044   3.970   5.178 -0.3019  1.0867  2.5608
 2292TIP3   OH228290   3.066   5.419  14.627  0.0270  0.1850 -0.0940
 2292TIP3    H128291   3.012   5.428  14.548 -1.0745 -0.3616  0.5699
 2292TIP3    H228292   3.110   5.335  14.616  0.2776  0.3476 -0.3552
 2293TIP3   OH228293   4.998   3.077   2.033 -0.5704 -0.0907 -0.1821
 2293TIP3    H128294   5.019   3.170   2.043 -1.7836  0.0400  1.5877
 2293TIP3    H228295   4.903   3.073   2.041 -0.5116 -1.4976 -0.0103
 2294TIP3   OH228296   5.477   6.389  14.238  0.3165 -0.0261 -0.3433
 2294TIP3    H128297   5.442   6.311  14.194 -1.1516  0.9876 -1.0644
 2294TIP3    H228298   5.488   6.453  14.168 -3.3824  2.1124  0.7599
 2295TIP3   OH228299   5.965   0.008   5.996 -0.0470  0.4298  0.1279
 2295TIP3    H128300   6.015   0.004   5.915 -0.0508 -0.5664  0.1618
 2295TIP3    H228301   6.028  -0.016   6.064  0.0213  1.5040  0.4639
 2296TIP3   OH228302   3.554   6.510   1.835  0.1511 -0.4036  0.3684
 2296TIP3    H128303   3.595   6.425   1.849 -0.1451 -0.5983  0.0657
 2296TIP3    H228304   3.623   6.564   1.797 -0.0702 -0.9495 -0.8620
 2297TIP3   OH228305   4.624   0.914   2.686 -0.0261 -0.5641 -0.1793
 2297TIP3    H128306   4.650   0.826   2.660  3.6323  0.3510 -0.1637
 2297TIP3    H228307   4.591   0.955   2.606 -1.5143 -1.7844 -0.2342
 2298TIP3   OH228308   2.570   1.733   5.837  0.5383  0.2007  0.3170
 2298TIP3    H128309   2.641   1.702   5.893 -0.0258 -1.5427  0.1603
 2298TIP3    H228310   2.586   1.691   5.752 -0.2726  0.3546  0.0787
 2299TIP3   OH228311   0.012   2.263   3.170 -0.3675  0.4519 -0.0703
 2299TIP3    H128312  -0.070   2.263   3.218 -0.7198  0.0259 -0.6528
 2299TIP3    H228313   0.014   2.178   3.126  1.2635 -0.3188  1.3848
 2300TIP3   OH228314   4.981   4.067   4.077 -0.5064  0.0014  0.1914
 2300TIP3    H128315   4.940   4.046   3.993 -0.6052 -0.1027  0.2666
 2300TIP3    H228316   4.951   4.156   4.097 -0.8909 -0.1696  0.3675
 2301TIP3   OH228317   0.786   1.635   6.401 -0.2635  0.6112 -0.4062
 2301TIP3    H128318   0.853   1.655   6.335 -0.1468 -0.0983 -0.5055
 2301TIP3    H228319   0.747   1.553   6.371 -0.6409  0.6121  0.0783
 2302TIP3   OH228320   4.170   3.846   0.778 -0.2839  0.1157  0.7175
 2302TIP3    H128321   4.115   3.775   0.813 -0.5297  0.1555  0.4202
 2302TIP3    H228322   4.181   3.906   0.851  0.1344 -0.3509  1.0482
 2303TIP3   OH228323   6.613   1.178  13.026 -0.5077  1.1363 -0.0796
 2303TIP3    H128324   6.703   1.205  13.008 -0.4032 -0.1225 -1.7002
 2303TIP3    H228325   6.622   1.094  13.071 -0.8521  0.6605 -0.8790
 2304TIP3   OH228326   6.070   3.142   2.935 -0.3052 -0.7189 -0.2094
 2304TIP3    H128327   6.074   3.193   2.854  0.0220 -0.2942  0.0690
 2304TIP3    H228328   6.034   3.057   2.909 -0.0654 -0.6336 -0.8187
 2305TIP3   OH228329   3.559   1.198   1.955 -0.3226 -0.1774  0.1186
 2305TIP3    H128330   3.604   1.133   1.900  0.5622  1.1877 -0.8438
 2305TIP3    H228331   3.466   1.186   1.935  0.0303  1.0054 -2.6070
 2306TIP3   OH228332   0.960   6.754  16.473  0.1495  0.0991 -0.1390
 2306TIP3    H128333   0.955   6.825  16.536  0.8202  0.4527 -0.4718
 2306TIP3    H228334   1.050   6.757  16.440  0.0076 -0.5081 -0.6100
 2307TIP3   OH228335   1.348   4.139   4.728  0.1325  0.2761  0.1477
 2307TIP3    H128336   1.422   4.173   4.678 -1.3091  0.4719 -1.9947
 2307TIP3    H228337   1.327   4.209   4.789  1.0344  0.6677  0.0230
 2308TIP3   OH228338   5.746   1.070  16.031  0.1183 -0.5330 -0.3421
 2308TIP3    H128339   5.741   0.994  16.088 -0.3810 -0.9095 -0.8815
 2308TIP3    H228340   5.690   1.136  16.073  1.0917 -0.2073  0.4902
 2309TIP3   OH228341   1.052   2.444  11.922 -0.0107  0.2289 -0.0111
 2309TIP3    H128342   1.011   2.360  11.940  1.5364 -0.5583 -0.0321
 2309TIP3    H228343   0.983   2.496  11.881 -1.3270 -0.6105  1.0750
 2310TIP3   OH228344   0.267   3.747   3.690  0.2355 -0.2889 -0.2417
 2310TIP3    H128345   0.323   3.816   3.727  0.6896 -1.5446  1.5192
 2310TIP3    H228346   0.319   3.708   3.620  0.3573  0.4746 -0.5908
 2311TIP3   OH228347   2.736   6.210  17.225 -0.3927 -0.2355 -0.3250
 2311TIP3    H128348   2.691   6.138  17.269  0.9973  0.6101  2.6648
 2311TIP3    H228349   2.824   6.177  17.209 -0.2282  0.2606 -0.4486
 2312TIP3   OH228350   4.071   2.127  16.613 -0.4123  0.4657  0.0446
 2312TIP3    H128351   4.155   2.159  16.580 -0.3153  0.5366  0.3584
 2312TIP3    H228352   4.021   2.206  16.632  0.4623  0.5224  2.4833
 2313TIP3   OH228353   2.697   4.124   2.934  0.0893 -0.8500 -0.4373
 2313TIP3    H128354   2.777   4.109   2.884  1.4350 -1.8296  1.8204
 2313TIP3    H228355   2.699   4.056   3.003 -2.4298 -0.5751  0.0017
 2314TIP3   OH228356   0.056   5.026  14.353  0.2556  0.3841 -0.1560
 2314TIP3    H128357   0.074   5.107  14.401 -0.4403  0.8439 -0.6430
 2314TIP3    H228358   0.065   4.956  14.418  2.6456  0.6594 -0.1233
 2315TIP3   OH228359   6.273   4.696  16.540 -0.0378 -0.1376  0.2398
 2315TIP3    H128360   6.321   4.708  16.622 -0.5930  2.0870  0.3131
 2315TIP3    H228361   6.187   4.736  16.557 -0.1135  0.4860 -1.4510
 2316TIP3   OH228362   2.117   4.085  17.151 -0.3221 -0.5943  0.1520
 2316TIP3    H128363   2.087   3.996  17.169  3.1292 -1.6850  1.2854
 2316TIP3    H228364   2.180   4.075  17.079 -0.0738  0.9611  0.1189
 2317TIP3   OH228365   0.072   1.351   3.404  0.0958  0.1728 -0.8639
 2317TIP3    H128366   0.068   1.323   3.313  1.7827  1.5483 -1.3999
 2317TIP3    H228367   0.013   1.426   3.408  0.7605  0.7136 -1.0725
 2318TIP3   OH228368   6.020   5.812  12.659  0.3228  0.6685  0.4911
 2318TIP3    H128369   6.099   5.768  12.627  0.9791  1.3083  1.1782
 2318TIP3    H228370   5.958   5.806  12.587  1.3680  1.1034 -0.4678
 2319TIP3   OH228371   4.985   2.722   5.524 -0.2297  0.5816  0.0884
 2319TIP3    H128372   4.913   2.676   5.481 -0.5096  2.6740 -1.8990
 2319TIP3    H228373   4.966   2.715   5.617 -1.6626 -0.9730 -0.2635
 2320TIP3   OH228374   1.186   0.863  15.503 -0.0661  0.4382  0.0123
 2320TIP3    H128375   1.095   0.859  15.533  0.2211 -0.7746  0.8533
 2320TIP3    H228376   1.185   0.821  15.417 -0.3268  0.5771 -0.0534
 2321TIP3   OH228377   0.236   0.944   5.916 -0.6309  0.1999 -0.0189
 2321TIP3    H128378   0.247   0.960   6.010  1.4728  0.5629 -0.2892
 2321TIP3    H228379   0.222   0.850   5.909 -0.1006  0.0714  0.6022
 2322TIP3   OH228380   3.905   1.593  10.966  0.5908 -0.2247 -0.0487
 2322TIP3    H128381   3.903   1.620  11.057  1.6010 -1.4132  0.3533
 2322TIP3    H228382   3.896   1.498  10.969  1.8518 -0.4074 -1.0935
 2323TIP3   OH228383   3.424   0.820  17.223 -0.4987 -0.8550  0.0447
 2323TIP3    H128384   3.474   0.857  17.149 -0.9203  0.7636  0.5246
 2323TIP3    H228385   3.465   0.858  17.300 -0.9809 -1.3932  0.5709
 2324TIP3   OH228386   2.952   5.424   3.055 -0.4380 -0.2820  0.1659
 2324TIP3    H128387   2.866   5.446   3.089 -0.2409 -0.5954  0.8867
 2324TIP3    H228388   2.981   5.350   3.109  0.8667  0.7049  0.8820
 2325TIP3   OH228389   5.107   5.535  11.410  0.1247 -0.2343  0.3119
 2325TIP3    H128390   5.182   5.577  11.451 -1.2135  1.2305  1.3959
 2325TIP3    H228391   5.065   5.487  11.482  0.0083 -1.0378 -0.2773
 2326TIP3   OH228392   4.580   3.091  14.849 -0.4895 -0.0062  0.1383
 2326TIP3    H128393   4.658   3.138  14.820  0.4936 -1.8403 -0.3022
 2326TIP3    H228394   4.525   3.159  14.889  1.1251  1.3964  0.0873
 2327TIP3   OH228395   2.119   3.263   0.503  0.1280  0.5688  0.7952
 2327TIP3    H128396   2.194   3.210   0.476 -1.2069 -1.1451  0.2386
 2327TIP3    H228397   2.155   3.325   0.567  2.1741  0.4740 -0.1713
 2328TIP3   OH228398   4.141   5.242   5.079  0.0441  0.4716  0.2027
 2328TIP3    H128399   4.084   5.261   5.004  2.0555 -0.1183 -1.5783
 2328TIP3    H228400   4.092   5.178   5.131 -0.4825 -0.9181 -1.8735
 2329TIP3   OH228401   1.795   2.450  12.148  0.4444  0.6265 -0.0939
 2329TIP3    H128402   1.707   2.466  12.114  0.2515  3.2552  1.3735
 2329TIP3    H228403   1.786   2.371  12.202 -0.4200 -0.4945 -1.7977
 2330TIP3   OH228404   2.230   4.399   5.005  0.0580  0.3270 -0.0639
 2330TIP3    H128405   2.288   4.368   4.935  0.4230  0.3316  0.2363
 2330TIP3    H228406   2.258   4.351   5.083 -1.0234 -0.4300 -0.1365
 2331TIP3   OH228407   0.609   1.389   1.917 -0.0508  0.0634 -0.4572
 2331TIP3    H128408   0.562   1.461   1.959 -0.8084 -0.8297  0.2668
 2331TIP3    H228409   0.682   1.371   1.975  0.8004  0.9596 -1.2073
 2332TIP3   OH228410   2.905   6.090   3.619 -0.0685  0.0913  0.5839
 2332TIP3    H128411   2.822   6.103   3.664 -0.9000  0.5080 -1.0045
 2332TIP3    H228412   2.950   6.174   3.627 -1.5378  1.2273 -1.8836
 2333TIP3   OH228413   3.382   2.631   6.631  0.2818  0.1251  0.0563
 2333TIP3    H128414   3.387   2.719   6.669 -1.7667  0.8037 -1.1053
 2333TIP3    H228415   3.290   2.608   6.635  0.5598 -1.3294 -1.0553
 2334TIP3   OH228416   4.640   1.583  12.733  0.1153 -0.1708  0.1772
 2334TIP3    H128417   4.697   1.656  12.711 -2.0053  0.6561 -3.3897
 2334TIP3    H228418   4.655   1.518  12.664 -1.8028 -0.7563  0.2469
 2335TIP3   OH228419   2.536   3.184  13.336 -0.0881 -0.1959 -0.3291
 2335TIP3    H128420   2.534   3.170  13.241  0.0122 -1.6498 -0.1461
 2335TIP3    H228421   2.447   3.165  13.365  0.2354 -1.2605  0.0268
 2336TIP3   OH228422   6.705   4.631   5.231 -0.0426  0.1769  0.1279
 2336TIP3    H128423   6.792   4.612   5.197 -0.5656 -0.3334 -0.9754
 2336TIP3    H228424   6.654   4.659   5.154 -1.2056 -0.8224  0.4987
 2337TIP3   OH228425   4.725   3.628  12.895  0.3880 -0.2261  0.6337
 2337TIP3    H128426   4.772   3.636  12.978  2.6771  0.8947 -0.6723
 2337TIP3    H228427   4.777   3.567  12.843 -1.0089 -0.9131 -0.0093
 2338TIP3   OH228428   4.172   5.777  12.951 -0.1410  0.6314  0.3419
 2338TIP3    H128429   4.154   5.773  12.857  1.8623  1.1745 -0.1114
 2338TIP3    H228430   4.156   5.868  12.975  0.4054  0.7462  0.2804
 2339TIP3   OH228431   5.748   2.468  12.324  0.4429  0.4821  0.6855
 2339TIP3    H128432   5.691   2.403  12.364 -1.4470  1.0261 -0.9621
 2339TIP3    H228433   5.829   2.420  12.307  0.5450 -0.3272  3.0512
 2340TIP3   OH228434   3.052   6.764   3.150 -0.3477 -0.7586  0.6533
 2340TIP3    H128435   3.065   6.854   3.180  0.9268 -1.0491  1.0419
 2340TIP3    H228436   2.983   6.730   3.206  1.7017 -1.1577  3.1292
 2341TIP3   OH228437   1.570   3.814   5.977  0.0094  0.4047  0.6465
 2341TIP3    H128438   1.483   3.805   5.940  0.6092  0.1767 -0.8024
 2341TIP3    H228439   1.556   3.843   6.067 -1.5658 -0.4368  0.6939
 2342TIP3   OH228440   3.156   3.810   0.965  0.1092 -0.7068  0.2572
 2342TIP3    H128441   3.183   3.766   0.884 -0.0677 -0.3519 -0.0010
 2342TIP3    H228442   3.230   3.800   1.024  0.2089 -1.0398  0.0805
 2343TIP3   OH228443   6.494   4.746  14.562 -0.0577  0.8006 -0.1115
 2343TIP3    H128444   6.584   4.727  14.590  0.7784  1.2520 -2.2688
 2343TIP3    H228445   6.495   4.840  14.545 -1.0646  0.8736  0.2283
 2344TIP3   OH228446   0.347   3.761   2.061  0.2141 -0.2487  0.0501
 2344TIP3    H128447   0.253   3.757   2.079  0.1294 -0.7371 -0.4541
 2344TIP3    H228448   0.366   3.678   2.018  0.4709  0.6288 -1.6592
 2345TIP3   OH228449   3.605   6.456  14.759 -0.1872 -0.2485 -0.3802
 2345TIP3    H128450   3.651   6.468  14.843  0.1119 -0.1470 -0.5593
 2345TIP3    H228451   3.569   6.367  14.764 -1.5693  0.3276  0.5429
 2346TIP3   OH228452   4.714   3.748   4.455  1.3541  0.5996  0.5491
 2346TIP3    H128453   4.717   3.814   4.386 -1.8633 -0.1845 -0.5130
 2346TIP3    H228454   4.743   3.667   4.413  1.7346  0.5814  0.8347
 2347TIP3   OH228455   4.632   6.378   4.239  0.3800  0.3152  0.6882
 2347TIP3    H128456   4.622   6.440   4.167  0.0194 -0.3990  0.1179
 2347TIP3    H228457   4.719   6.397   4.275  1.4827 -0.6830 -1.2648
 2348TIP3   OH228458   5.665   2.873   3.372 -0.1837  0.2048  0.3965
 2348TIP3    H128459   5.732   2.811   3.399  0.2666  1.3099  1.9935
 2348TIP3    H228460   5.663   2.938   3.442 -0.6045  2.0160 -1.1910
 2349TIP3   OH228461   1.984   3.877  13.332  0.3392  0.1850  0.3272
 2349TIP3    H128462   1.974   3.783  13.317 -1.1077  0.4179 -0.3749
 2349TIP3    H228463   1.947   3.891  13.419 -0.6857  0.2678 -0.1018
 2350TIP3   OH228464   4.119   2.852  13.100  0.1179 -0.5101 -0.9544
 2350TIP3    H128465   4.104   2.787  13.168  0.7986 -0.6091 -0.8956
 2350TIP3    H228466   4.193   2.903  13.132 -1.7121  1.7028  0.0447
 2351TIP3   OH228467   6.440   3.691   0.151 -0.0255  0.3126  0.0614
 2351TIP3    H128468   6.385   3.708   0.228 -0.7793  0.2806 -0.4680
 2351TIP3    H228469   6.386   3.714   0.076  0.1867 -1.0423 -0.5384
 2352TIP3   OH228470   3.834   1.108  13.689 -0.0688  0.3813  0.2863
 2352TIP3    H128471   3.900   1.175  13.707 -1.5933  1.2439  3.5394
 2352TIP3    H228472   3.760   1.132  13.746 -2.9903 -0.8567 -2.6734
 2353TIP3   OH228473   4.379   4.849   4.451  0.1251  0.4539 -0.1462
 2353TIP3    H128474   4.368   4.870   4.544  0.6079 -0.1918  0.0692
 2353TIP3    H228475   4.464   4.887   4.428  0.6875 -0.6145  0.0713
 2354TIP3   OH228476   1.208   4.394  10.467 -0.2012  0.1126  0.1324
 2354TIP3    H128477   1.155   4.328  10.422 -0.4933 -1.2458  2.2983
 2354TIP3    H228478   1.187   4.477  10.423 -2.1560 -0.7785 -0.7154
 2355TIP3   OH228479   5.603   5.037  13.393  0.3998  0.5637 -0.1032
 2355TIP3    H128480   5.603   4.981  13.316  1.6693 -0.7473  0.8082
 2355TIP3    H228481   5.694   5.064  13.404  0.3918  0.0719  1.3837
 2356TIP3   OH228482   5.781   1.650   0.121 -0.3325  0.4278  0.3620
 2356TIP3    H128483   5.753   1.730   0.078 -0.6712 -0.0859 -0.3982
 2356TIP3    H228484   5.754   1.580   0.061  0.5608 -0.2119  0.6926
 2357TIP3   OH228485   5.580   0.049   2.257 -0.3772 -0.3508  0.6730
 2357TIP3    H128486   5.500   0.076   2.302 -1.4001 -1.9969 -0.0805
 2357TIP3    H228487   5.621   0.132   2.230 -2.6411  0.5388 -0.3116
 2358TIP3   OH228488   5.650   3.804   4.502  0.0471 -0.0392  0.3669
 2358TIP3    H128489   5.707   3.758   4.563 -0.2801 -1.1472 -0.1235
 2358TIP3    H228490   5.700   3.808   4.421  0.4424  1.3374  0.6608
 2359TIP3   OH228491   2.085   5.242  11.185  0.0788 -0.0773 -0.6133
 2359TIP3    H128492   2.132   5.315  11.226  0.3133 -0.6712  0.2055
 2359TIP3    H228493   2.143   5.213  11.114  0.2784  0.1141 -0.5287
 2360TIP3   OH228494   3.359   1.206  12.613 -0.1828 -0.6121 -0.0621
 2360TIP3    H128495   3.440   1.239  12.574 -0.7870 -0.1179 -0.9393
 2360TIP3    H228496   3.294   1.274  12.594 -1.0436 -1.4892 -0.3051
 2361TIP3   OH228497   0.578   2.135  15.136  0.0938  0.2205  0.2700
 2361TIP3    H128498   0.534   2.181  15.064 -1.3491 -0.0791  0.9352
 2361TIP3    H228499   0.518   2.142  15.210  1.1460 -0.2644  1.2000
 2362TIP3   OH228500   6.368   5.317   1.049  0.3908 -0.0542 -0.0146
 2362TIP3    H128501   6.393   5.249   1.111  0.9112  0.1829  0.0450
 2362TIP3    H228502   6.295   5.363   1.092  0.5531 -0.0798  0.2912
 2363TIP3   OH228503   5.327   3.818   1.643 -0.1033 -0.2660  0.3366
 2363TIP3    H128504   5.239   3.849   1.669  0.7093  1.0000  1.7784
 2363TIP3    H228505   5.317   3.723   1.635 -1.7670 -0.0871 -0.2297
 2364TIP3   OH228506   5.523   0.316   5.528  0.3031  0.3959  0.1150
 2364TIP3    H128507   5.442   0.356   5.561  0.6969  1.6013 -0.3060
 2364TIP3    H228508   5.574   0.298   5.607 -0.1051  0.2445  0.3487
 2365TIP3   OH228509   0.004   1.992   2.373  0.1997  0.4590  0.0893
 2365TIP3    H128510   0.059   2.004   2.296  1.7421  1.3856  1.2935
 2365TIP3    H228511  -0.063   2.060   2.365 -0.9267 -0.7478 -1.4408
 2366TIP3   OH228512   0.787   1.372   3.760  0.0341  0.3725  0.8155
 2366TIP3    H128513   0.760   1.462   3.742 -1.4203 -0.2781 -0.4143
 2366TIP3    H228514   0.705   1.324   3.771  0.7581 -1.0440  0.2445
 2367TIP3   OH228515   1.507   3.503   2.532  0.0821  0.0080 -0.1470
 2367TIP3    H128516   1.601   3.502   2.550 -0.2535  1.2332  1.9794
 2367TIP3    H228517   1.468   3.462   2.609 -1.1621 -0.1225 -0.8267
 2368TIP3   OH228518   6.419   3.064   4.069 -0.1782 -0.0041  0.3044
 2368TIP3    H128519   6.476   3.021   4.132  1.4320  0.5887 -0.7000
 2368TIP3    H228520   6.403   2.998   4.002  2.2217  0.7887 -1.1916
 2369TIP3   OH228521   5.627   6.009  15.095 -0.0462  0.5633  0.1147
 2369TIP3    H128522   5.611   5.933  15.150  1.9246  0.5521  0.7319
 2369TIP3    H228523   5.681   6.067  15.149 -0.9972  2.1558 -0.5531
 2370TIP3   OH228524   4.468   4.474   0.886  0.3661  0.3768  0.5011
 2370TIP3    H128525   4.424   4.409   0.940  0.0267  0.5871  0.4815
 2370TIP3    H228526   4.535   4.425   0.839 -0.5093 -0.1398 -0.2361
 2371TIP3   OH228527   2.163   3.421  14.628  0.5134 -0.4491  0.4671
 2371TIP3    H128528   2.073   3.445  14.649  0.6250  1.3912 -0.9745
 2371TIP3    H228529   2.161   3.325  14.625 -1.4209 -0.4475  0.3054
 2372TIP3   OH228530   6.603   0.520   1.168  0.2876  1.0904 -0.5064
 2372TIP3    H128531   6.607   0.600   1.116  0.3601  0.0828 -2.1399
 2372TIP3    H228532   6.691   0.483   1.160  0.1672  0.7010 -0.0299
 2373TIP3   OH228533   2.850   6.008   2.770 -0.2599  0.0700 -0.2872
 2373TIP3    H128534   2.859   5.952   2.693  0.7089  0.3003 -0.3472
 2373TIP3    H228535   2.930   6.060   2.773  0.3635 -0.8738  1.6177
 2374TIP3   OH228536   5.124   2.745   4.454 -0.3780 -0.0731 -0.0496
 2374TIP3    H128537   5.149   2.654   4.468 -0.3224 -0.1109 -0.3729
 2374TIP3    H228538   5.040   2.754   4.498 -0.2512 -0.2059  0.2218
 2375TIP3   OH228539   3.118   0.233   3.249  0.1320  0.4321  0.0153
 2375TIP3    H128540   3.048   0.262   3.191 -0.5588  0.4069  0.8116
 2375TIP3    H228541   3.197   0.238   3.196 -0.6810 -1.1530 -1.4425
 2376TIP3   OH228542   6.563   4.265   0.160 -0.4638  0.3423  0.0297
 2376TIP3    H128543   6.621   4.303   0.226  2.2737  0.1529 -2.0622
 2376TIP3    H228544   6.511   4.338   0.128  0.0159  0.9516  0.6288
 2377TIP3   OH228545   1.713   2.691   1.617 -0.2910 -0.4940 -0.7464
 2377TIP3    H128546   1.620   2.701   1.635 -0.1602  0.1263 -0.3975
 2377TIP3    H228547   1.722   2.601   1.585 -0.9232 -0.7450 -0.2308
 2378TIP3   OH228548   2.027   4.716   2.226 -0.2907 -0.0069  0.0803
 2378TIP3    H128549   2.021   4.627   2.190 -1.6522  0.8041 -1.8775
 2378TIP3    H228550   1.948   4.759   2.195 -0.3312  1.5299  2.1486
 2379TIP3   OH228551   3.956   4.594  11.281 -0.3707 -0.2012 -0.3042
 2379TIP3    H128552   4.048   4.604  11.304 -0.4412  2.9368 -0.9662
 2379TIP3    H228553   3.957   4.565  11.189 -0.0834 -0.7992 -0.1197
 2380TIP3   OH228554   1.658   5.029   1.486  0.0055 -0.3139 -0.1387
 2380TIP3    H128555   1.681   5.093   1.553 -0.4652 -0.3127  0.0280
 2380TIP3    H228556   1.640   4.948   1.535 -0.9969 -0.1362 -0.1897
 2381TIP3   OH228557   3.959   3.123   5.963 -0.4336  0.1222  0.2614
 2381TIP3    H128558   3.992   3.139   6.051  2.1368 -0.2568 -0.5562
 2381TIP3    H228559   3.912   3.204   5.940 -0.2358  0.6315  1.5691
 2382TIP3   OH228560   6.487   0.303   1.267  0.4427  0.1911  0.1874
 2382TIP3    H128561   6.517   0.386   1.228  0.3185  1.0731  1.8915
 2382TIP3    H228562   6.565   0.265   1.306  0.2051  0.3140  0.7970
 2383TIP3   OH228563   3.440   5.963  15.381 -0.6854 -0.0642  0.2319
 2383TIP3    H128564   3.423   6.018  15.457 -0.1726  1.0643 -0.4444
 2383TIP3    H228565   3.531   5.981  15.358 -1.2237  0.7020 -1.4889
 2384TIP3   OH228566   4.511   3.194   1.349 -0.6154 -0.4317  0.7857
 2384TIP3    H128567   4.593   3.189   1.398 -0.2475  0.7138  0.3349
 2384TIP3    H228568   4.463   3.265   1.391 -1.0020 -0.5204  0.4944
 2385TIP3   OH228569   4.001   2.000  10.833 -0.4637 -0.3399 -0.2651
 2385TIP3    H128570   3.924   1.945  10.842 -2.3672  2.1264 -0.6489
 2385TIP3    H228571   4.024   2.023  10.923 -0.5650 -0.5286 -0.1893
 2386TIP3   OH228572   5.627   4.017  15.144  0.0722  0.0938 -0.1120
 2386TIP3    H128573   5.644   3.930  15.110 -0.5191  0.1415 -0.5463
 2386TIP3    H228574   5.599   4.003  15.235  0.0955 -0.1518 -0.1441
 2387TIP3   OH228575   3.383   4.002   5.947 -0.1143  0.1197  0.1534
 2387TIP3    H128576   3.299   3.957   5.932  0.7649 -1.3350 -0.6494
 2387TIP3    H228577   3.363   4.068   6.013 -2.1222  0.5237 -0.7703
 2388TIP3   OH228578   6.366   0.728   0.311 -0.2755  0.2227  0.6059
 2388TIP3    H128579   6.307   0.788   0.265 -1.1651 -1.7924 -1.0121
 2388TIP3    H228580   6.308   0.662   0.350  0.6724  0.4028  2.4445
 2389TIP3   OH228581   4.368   0.042  14.986 -0.5373  0.2388 -0.0795
 2389TIP3    H128582   4.357  -0.009  14.906 -0.2984 -1.5602  0.9728
 2389TIP3    H228583   4.421   0.118  14.960  0.2903 -0.7693 -1.4520
 2390TIP3   OH228584   2.852   2.468  15.409 -0.4371 -0.0649  0.4796
 2390TIP3    H128585   2.884   2.430  15.328 -1.2341 -1.3499  0.7516
 2390TIP3    H228586   2.924   2.525  15.439  0.1168 -0.0935 -0.7623
 2391TIP3   OH228587   2.030   1.890   4.574  0.6822  0.5448  0.1595
 2391TIP3    H128588   1.999   1.810   4.617  0.2142  0.3611 -0.5056
 2391TIP3    H228589   1.951   1.931   4.540  1.0668  0.4995 -0.8339
 2392TIP3   OH228590   3.176   6.467  13.850  0.0283 -0.0295 -0.1797
 2392TIP3    H128591   3.098   6.519  13.834  0.5150  0.1877 -2.0702
 2392TIP3    H228592   3.227   6.519  13.912 -0.8149  0.3226  0.2423
 2393TIP3   OH228593   5.387   5.860   3.448 -0.0734  0.1539  0.1453
 2393TIP3    H128594   5.384   5.859   3.352  0.3952 -2.3447  0.0933
 2393TIP3    H228595   5.433   5.942   3.469  0.3704  0.4583 -1.7749
 2394TIP3   OH228596   3.359   4.750  14.150  0.3702 -0.1357  0.1730
 2394TIP3    H128597   3.281   4.728  14.200  0.1689 -0.7782 -0.4016
 2394TIP3    H228598   3.327   4.798  14.074  0.4516 -0.9435 -0.3910
 2395TIP3   OH228599   3.415   3.256  10.959  0.0738  0.0358 -0.4524
 2395TIP3    H128600   3.340   3.312  10.941 -0.4165 -0.2426  0.6141
 2395TIP3    H228601   3.405   3.181  10.900 -0.8043 -0.2663  0.0616
 2396TIP3   OH228602   3.225   4.485   2.495  0.0904 -0.6751  0.0809
 2396TIP3    H128603   3.305   4.473   2.444  0.0240 -0.6160 -0.0394
 2396TIP3    H228604   3.243   4.443   2.579 -0.2776 -1.9681 -0.4647
 2397TIP3   OH228605   3.917   5.950   3.141  0.2123 -0.7688 -0.0056
 2397TIP3    H128606   3.957   5.958   3.055  2.2896  4.2686  1.1060
 2397TIP3    H228607   3.958   5.872   3.180  1.5015 -1.3847 -2.4245
 2398TIP3   OH228608   3.171   2.051   5.214 -0.0630 -0.0635  0.0619
 2398TIP3    H128609   3.110   2.120   5.241 -0.1681 -0.1419  0.0276
 2398TIP3    H228610   3.122   1.970   5.229  0.3349 -0.1725  0.8133
 2399TIP3   OH228611   1.337   4.067  11.527 -0.1406 -0.1729  0.5619
 2399TIP3    H128612   1.341   4.149  11.478 -3.6350 -0.5004 -0.5295
 2399TIP3    H228613   1.359   4.091  11.617 -0.7186  1.9032  0.1904
 2400TIP3   OH228614   1.041   6.573  13.469 -0.1691 -0.3398 -0.4722
 2400TIP3    H128615   0.975   6.626  13.422 -0.1023 -0.5289 -0.7850
 2400TIP3    H228616   1.115   6.569  13.409 -0.8557 -2.3497 -1.2795
 2401TIP3   OH228617   6.776   5.909   1.465  0.2245 -0.1408 -0.2898
 2401TIP3    H128618   6.705   5.923   1.527  2.8450 -0.8330  3.1321
 2401TIP3    H228619   6.748   5.955   1.386 -2.3582  2.8479  2.1240
 2402TIP3   OH228620   0.429   4.502  16.052 -0.2304 -0.0975  0.6778
 2402TIP3    H128621   0.338   4.527  16.044 -0.0687  0.2576 -0.1422
 2402TIP3    H228622   0.458   4.539  16.135  0.0217  2.5664 -0.4968
 2403TIP3   OH228623   1.875   6.403   4.271  0.4420 -0.0231 -0.0546
 2403TIP3    H128624   1.810   6.361   4.215 -1.6712  0.5921  1.7880
 2403TIP3    H228625   1.895   6.485   4.226  0.2064 -0.3818 -0.8284
 2404TIP3   OH228626   3.022   1.838   5.190 -0.3037 -0.3792 -0.4526
 2404TIP3    H128627   3.001   1.771   5.124 -0.1391 -1.1362  0.2480
 2404TIP3    H228628   3.035   1.788   5.271  1.8031  0.2690 -0.3218
 2405TIP3   OH228629   2.792   3.173  15.254  0.2357 -0.2714  0.5076
 2405TIP3    H128630   2.835   3.225  15.187 -1.1351  1.7388  1.0913
 2405TIP3    H228631   2.779   3.087  15.214  1.7712  0.0859 -0.8188
 2406TIP3   OH228632   5.580   2.625   2.191 -0.4379  0.2251 -0.4482
 2406TIP3    H128633   5.533   2.708   2.201  3.1973  2.5438 -0.6973
 2406TIP3    H228634   5.588   2.591   2.280 -0.9512  0.7706 -0.1862
 2407TIP3   OH228635   3.611   6.387   6.180  0.1514  0.7356 -0.0124
 2407TIP3    H128636   3.669   6.327   6.134 -1.8427 -0.5457 -0.9986
 2407TIP3    H228637   3.539   6.402   6.119  0.7932  4.7065 -0.1077
 2408TIP3   OH228638   1.769   1.374  15.983 -0.0131 -0.1965 -0.3713
 2408TIP3    H128639   1.776   1.344  16.074 -2.3568 -0.7337 -0.3080
 2408TIP3    H228640   1.675   1.385  15.968  0.4379  2.9875 -1.7656
 2409TIP3   OH228641   2.449   3.835  11.407 -0.0957  0.2278  0.3687
 2409TIP3    H128642   2.523   3.781  11.436  0.8070  0.3870 -1.4884
 2409TIP3    H228643   2.429   3.889  11.482  2.1253  0.6339  0.7563
 2410TIP3   OH228644   2.292   6.061  12.933  0.0404  0.3590  0.3681
 2410TIP3    H128645   2.283   6.155  12.947  1.8050  0.5180  0.6082
 2410TIP3    H228646   2.303   6.052  12.838 -0.7717  0.3197  0.2703
 2411TIP3   OH228647   1.096   1.392  16.323 -0.2000 -0.5540 -0.0508
 2411TIP3    H128648   1.016   1.433  16.290 -0.1863  0.8461  1.4992
 2411TIP3    H228649   1.118   1.443  16.401  1.0802 -2.1960  0.7138
 2412TIP3   OH228650   3.441   0.782  14.204 -0.6120  0.0315  0.1126
 2412TIP3    H128651   3.412   0.728  14.277 -2.3502  0.4450 -0.2216
 2412TIP3    H228652   3.360   0.808  14.160  0.1839  2.5638  0.0183
 2413TIP3   OH228653   6.107   2.358   5.346 -0.0287  0.1451 -0.1056
 2413TIP3    H128654   6.040   2.293   5.369  0.5854 -0.3809  0.2514
 2413TIP3    H228655   6.104   2.422   5.417 -0.7081  0.5755 -0.5110
 2414TIP3   OH228656   4.944   3.830   3.560 -0.1507 -0.4759  0.6135
 2414TIP3    H128657   4.944   3.793   3.649  1.0551 -2.9983 -0.3253
 2414TIP3    H228658   5.036   3.851   3.543 -0.2345 -0.8493 -0.3395
 2415TIP3   OH228659   6.380   5.537   3.926 -0.0099 -0.1849 -0.2219
 2415TIP3    H128660   6.377   5.471   3.857 -0.7941 -2.9824  2.3128
 2415TIP3    H228661   6.288   5.560   3.941  0.2063  0.9691 -0.5277
 2416TIP3   OH228662   1.051   0.552   2.091  0.3431 -0.0518 -0.2410
 2416TIP3    H128663   1.035   0.472   2.140  1.1607  1.1182  2.0639
 2416TIP3    H228664   1.025   0.623   2.150 -0.6396  1.4335 -2.3013
 2417TIP3   OH228665   3.639   3.026  16.188  0.2625  0.1562 -0.4841
 2417TIP3    H128666   3.578   3.100  16.179  0.2722  0.3532  0.8158
 2417TIP3    H228667   3.585   2.956  16.224  0.5231 -0.0707 -0.5355
 2418TIP3   OH228668   5.284   4.532  14.225  0.1372 -0.3252 -0.5643
 2418TIP3    H128669   5.194   4.509  14.203  0.5466 -1.1033 -1.5525
 2418TIP3    H228670   5.278   4.617  14.268 -0.9926  0.0762 -1.4639
 2419TIP3   OH228671   1.783   2.999   5.639  0.0996 -0.5842 -0.1227
 2419TIP3    H128672   1.706   3.037   5.683 -0.1243  0.0704 -1.0526
 2419TIP3    H228673   1.791   3.049   5.558  1.3385 -0.8437 -0.1783
 2420TIP3   OH228674   2.817   5.610   0.261  0.0554 -0.2626  0.0584
 2420TIP3    H128675   2.885   5.645   0.318 -0.2103  0.2236  0.0862
 2420TIP3    H228676   2.747   5.582   0.321  0.3972 -1.1494  0.0559
 2421TIP3   OH228677   5.533   4.172   0.033  0.1178 -0.1678  0.2958
 2421TIP3    H128678   5.475   4.124   0.092  0.5790 -2.1678 -0.7522
 2421TIP3    H228679   5.601   4.208   0.089 -0.6014 -0.2090  1.2132
 2422TIP3   OH228680   1.851   4.336   1.346  0.1613 -0.6789  0.4296
 2422TIP3    H128681   1.887   4.406   1.291 -1.4984 -2.4217 -3.1966
 2422TIP3    H228682   1.913   4.264   1.336 -0.9999 -1.5689 -0.6336
 2423TIP3   OH228683   1.182   2.383   3.143  0.2848  0.1712 -0.0290
 2423TIP3    H128684   1.215   2.314   3.200 -0.2135 -0.0214  0.0316
 2423TIP3    H228685   1.101   2.412   3.185  0.2175  0.4309 -0.3353
 2424TIP3   OH228686   3.181   6.700   5.355  0.0438 -0.3348  0.3888
 2424TIP3    H128687   3.255   6.651   5.392  0.4832 -0.8980 -1.1443
 2424TIP3    H228688   3.153   6.758   5.426  0.8439 -1.3334  1.5762
 2425TIP3   OH228689   4.170   0.793  12.968  0.0821  0.2947 -0.1195
 2425TIP3    H128690   4.213   0.837  12.895 -1.7537 -0.6026 -1.8370
 2425TIP3    H228691   4.236   0.733  13.002  0.6297 -0.1440 -1.8406
 2426TIP3   OH228692   2.545   4.821  10.557  0.1107 -0.5150  0.3328
 2426TIP3    H128693   2.625   4.778  10.529 -1.3494 -1.9645 -1.9401
 2426TIP3    H228694   2.494   4.753  10.600 -0.2909  0.1706  0.9794
 2427TIP3   OH228695   3.467   6.208   0.826  0.2090 -0.2807  0.1733
 2427TIP3    H128696   3.547   6.234   0.872  0.7715 -1.4519 -0.1159
 2427TIP3    H228697   3.398   6.221   0.891  0.5877  0.9550  0.3578
 2428TIP3   OH228698   5.973   5.258   2.073  0.1887 -0.6951 -0.3752
 2428TIP3    H128699   6.000   5.216   2.155  1.4799 -2.2082 -1.5079
 2428TIP3    H228700   6.051   5.254   2.017 -1.0357 -0.9159 -2.1486
 2429TIP3   OH228701   4.487   3.085  13.635 -0.1216 -0.3935 -0.1325
 2429TIP3    H128702   4.538   3.131  13.569 -0.3720  0.1895  0.0724
 2429TIP3    H228703   4.503   3.133  13.716 -2.0727  0.7065 -0.3165
 2430TIP3   OH228704   1.011   6.651   5.023  0.4483 -0.0086 -0.0117
 2430TIP3    H128705   1.038   6.738   5.050  1.9289 -0.3932 -0.1613
 2430TIP3    H228706   0.920   6.661   4.996 -0.0893  1.0412  1.9917
 2431TIP3   OH228707   2.755   6.387  16.630  0.3176  0.3595  1.0149
 2431TIP3    H128708   2.757   6.309  16.686  1.8123 -0.5154 -0.1710
 2431TIP3    H228709   2.732   6.354  16.544  1.6944  1.0801  0.3331
 2432TIP3   OH228710   1.051   5.359   0.613  0.3738 -0.4406 -0.2974
 2432TIP3    H128711   0.994   5.303   0.665  0.6235 -0.7769 -0.3827
 2432TIP3    H228712   1.105   5.298   0.562  0.1277 -0.1285 -0.9569
 2433TIP3   OH228713   3.348   5.643  15.596 -0.4107 -0.1094 -0.0219
 2433TIP3    H128714   3.311   5.559  15.569  0.9346 -1.3767  1.8519
 2433TIP3    H228715   3.403   5.670  15.523 -0.0095 -1.4223 -0.2313
 2434TIP3   OH228716   2.211   3.789  11.296  0.1688 -0.0582  0.2702
 2434TIP3    H128717   2.293   3.799  11.344  1.2060  0.9451 -1.6015
 2434TIP3    H228718   2.211   3.697  11.268 -0.3464 -0.5981  1.9114
 2435TIP3   OH228719   4.608   6.314   1.080  0.3604 -0.6467 -0.0502
 2435TIP3    H128720   4.616   6.229   1.036 -1.5335 -1.8335  1.7091
 2435TIP3    H228721   4.673   6.312   1.150  0.9498 -0.2409 -0.5794
 2436TIP3   OH228722   0.912   0.092  12.999 -0.3549  0.1426 -0.1020
 2436TIP3    H128723   0.929   0.169  13.054 -0.7107  0.3888 -0.3342
 2436TIP3    H228724   0.874   0.028  13.059  0.1953  0.0483  0.1494
 2437TIP3   OH228725   4.498   1.557   2.467 -0.3382 -0.1728 -0.2999
 2437TIP3    H128726   4.536   1.608   2.395  1.1048 -0.2560  0.3655
 2437TIP3    H228727   4.484   1.621   2.536 -0.3489 -0.3492 -0.1390
 2438TIP3   OH228728   2.096   1.491   5.668 -0.4761  0.0140  0.4638
 2438TIP3    H128729   2.123   1.400   5.677 -0.8737 -0.0491  1.1243
 2438TIP3    H228730   2.177   1.541   5.670 -0.1927 -0.3776 -0.7842
 2439TIP3   OH228731   4.942   0.917   2.704 -0.1453  0.4141 -0.2782
 2439TIP3    H128732   4.991   0.852   2.755 -0.9984 -1.3628 -1.5794
 2439TIP3    H228733   4.850   0.902   2.727 -0.3992  0.7767 -1.0150
 2440TIP3   OH228734   3.373   5.848  12.488 -0.6794 -0.2572 -0.0527
 2440TIP3    H128735   3.289   5.874  12.527 -1.1254 -2.6809  0.7640
 2440TIP3    H228736   3.431   5.922  12.505 -1.4526 -0.2587  3.3435
 2441TIP3   OH228737   0.946   6.104  13.933  0.4370 -0.2670  0.2416
 2441TIP3    H128738   0.985   6.017  13.945 -0.5053 -0.9969 -1.5365
 2441TIP3    H228739   0.974   6.131  13.846  0.1306  0.9061  0.4888
 2442TIP3   OH228740   4.263   3.889   0.495 -0.0262  0.2200  0.0668
 2442TIP3    H128741   4.198   3.926   0.436  0.4384 -0.2308 -0.7483
 2442TIP3    H228742   4.233   3.800   0.511  1.0967 -0.4635 -1.4399
 2443TIP3   OH228743   2.529   3.554   5.882  0.0535  0.6733  0.1458
 2443TIP3    H128744   2.622   3.570   5.871  0.4053 -1.0736  0.2913
 2443TIP3    H228745   2.521   3.514   5.968 -0.9364  1.4233  0.4307
 2444TIP3   OH228746   4.124   0.757  12.273 -0.0561  0.2123  0.1298
 2444TIP3    H128747   4.206   0.789  12.311 -0.3163  1.4877 -0.3379
 2444TIP3    H228748   4.152   0.689  12.211  0.4042 -1.4587  2.0506
 2445TIP3   OH228749   1.498   2.760   6.610 -0.2217 -0.5074 -0.0120
 2445TIP3    H128750   1.473   2.835   6.665 -0.6974 -1.0721  0.5505
 2445TIP3    H228751   1.550   2.799   6.540 -0.1429  0.3086  0.4823
 2446TIP3   OH228752   6.238   2.346  15.333 -0.0360  0.0928 -0.1685
 2446TIP3    H128753   6.322   2.301  15.324  0.4938  1.1967 -0.9020
 2446TIP3    H228754   6.192   2.327  15.251 -1.3220 -2.0419  0.9383
 2447TIP3   OH228755   6.527   4.457   0.761  0.0697 -0.7047  0.7181
 2447TIP3    H128756   6.572   4.520   0.705  2.5917 -2.0215  1.0756
 2447TIP3    H228757   6.477   4.402   0.701 -1.8247  1.2627  0.3705
 2448TIP3   OH228758   5.606   1.139   3.401  0.1869 -0.4377 -0.0459
 2448TIP3    H128759   5.656   1.213   3.437  0.6093 -1.7536  2.2936
 2448TIP3    H228760   5.522   1.144   3.446 -0.3250 -0.5849 -0.9611
 2449TIP3   OH228761   2.957   6.174   5.470 -0.3294  0.3060  0.4532
 2449TIP3    H128762   2.936   6.136   5.555 -2.1215  0.1990  0.0029
 2449TIP3    H228763   2.998   6.258   5.491 -1.0470  0.4339  1.4325
 2450TIP3   OH228764   2.510   4.206   0.468 -0.7275 -0.2112 -0.2993
 2450TIP3    H128765   2.451   4.131   0.463 -0.7946 -0.1739 -0.1178
 2450TIP3    H228766   2.544   4.203   0.558  0.7243 -1.1119 -0.8461
 2451TIP3   OH228767   0.713   1.317  13.910 -0.0573 -0.2409 -0.3107
 2451TIP3    H128768   0.658   1.314  13.988 -0.9982  0.8400 -0.9137
 2451TIP3    H228769   0.679   1.390  13.859  2.1516  0.6783 -0.5612
 2452TIP3   OH228770   5.141   1.352   5.392  0.1772  0.6516 -0.0284
 2452TIP3    H128771   5.191   1.275   5.419 -0.2946  0.1042 -0.6823
 2452TIP3    H228772   5.076   1.364   5.462 -0.7379 -0.4782 -0.6363
 2453TIP3   OH228773   1.106   5.586   2.526 -0.1325 -0.4380 -0.5940
 2453TIP3    H128774   1.161   5.587   2.448  0.4521  0.4700 -0.1954
 2453TIP3    H228775   1.141   5.657   2.580 -0.2994 -1.2818  0.6525
 2454TIP3   OH228776   2.397   0.577   2.934 -0.4298  0.6615  0.1438
 2454TIP3    H128777   2.382   0.563   3.028 -0.5965 -0.8871 -0.0895
 2454TIP3    H228778   2.378   0.670   2.921  0.3237  1.0912  1.7751
 2455TIP3   OH228779   3.151   4.801  11.617  0.2807  0.1355 -0.0214
 2455TIP3    H128780   3.174   4.744  11.690 -0.0058  0.4522  0.3199
 2455TIP3    H228781   3.168   4.748  11.539 -1.9063 -1.2032  0.3125
 2456TIP3   OH228782   5.859   2.616   3.428  0.1817 -0.1943 -0.5885
 2456TIP3    H128783   5.802   2.572   3.491  0.4734  0.1008 -0.1223
 2456TIP3    H228784   5.902   2.545   3.381 -0.9189 -0.4362 -1.2742
 2457TIP3   OH228785   3.995   4.606  15.127  0.9203  0.1897  0.4249
 2457TIP3    H128786   4.022   4.564  15.045 -0.5899 -1.5392  0.7241
 2457TIP3    H228787   3.987   4.534  15.189 -2.0592  0.7991  0.9171
 2458TIP3   OH228788   0.274   1.035   2.371 -0.0754  0.5359  0.5922
 2458TIP3    H128789   0.365   1.048   2.400 -0.1878 -1.4529  2.1332
 2458TIP3    H228790   0.279   0.962   2.310 -0.5274  1.1418 -0.1791
 2459TIP3   OH228791   5.381   6.616   0.481  0.8638 -0.8992  0.0091
 2459TIP3    H128792   5.466   6.648   0.450 -0.0511 -0.1839 -1.9541
 2459TIP3    H228793   5.344   6.571   0.405 -1.4906  0.8577  0.0020
 2460TIP3   OH228794   2.463   2.625  15.878  0.3623 -0.0677 -0.0122
 2460TIP3    H128795   2.493   2.534  15.884  3.5744  0.8341 -0.3346
 2460TIP3    H228796   2.437   2.637  15.787 -1.5936 -1.0281  0.3872
 2461TIP3   OH228797   4.448   0.356   0.934  0.1367  0.1494 -0.1852
 2461TIP3    H128798   4.379   0.335   0.871 -0.6113 -2.4260  1.3345
 2461TIP3    H228799   4.499   0.425   0.892 -2.2086  0.8101 -2.1914
 2462TIP3   OH228800   3.102   0.804   0.124 -0.2676 -0.4335 -0.4933
 2462TIP3    H128801   3.026   0.773   0.173  0.2588 -4.1665 -1.7904
 2462TIP3    H228802   3.170   0.815   0.191 -0.2219 -3.2038  0.0256
 2463TIP3   OH228803   1.947   1.298   3.057  0.3589 -0.0879  0.1480
 2463TIP3    H128804   2.032   1.295   3.102 -0.1826 -1.2040  1.1443
 2463TIP3    H228805   1.911   1.384   3.079  0.9735  0.1662  0.1892
 2464TIP3   OH228806   4.220   1.117  13.565  0.5429 -0.2866 -0.4312
 2464TIP3    H128807   4.208   1.022  13.562  2.1625 -0.5142 -1.1844
 2464TIP3    H228808   4.311   1.130  13.536  0.8330  1.3946  1.0748
 2465TIP3   OH228809   3.257   6.078  12.275  0.3035 -0.1244 -0.4650
 2465TIP3    H128810   3.346   6.047  12.256 -0.9806 -2.8054 -2.8534
 2465TIP3    H228811   3.209   5.998  12.298 -1.8796  0.9978 -0.9129
 2466TIP3   OH228812   4.640   4.776   0.036 -0.3672  0.0305  0.4129
 2466TIP3    H128813   4.712   4.720   0.066  0.7254  0.9551 -0.3940
 2466TIP3    H228814   4.591   4.796   0.116  0.1934 -0.7233  0.9643
 2467TIP3   OH228815   1.799   4.831   1.879  0.6605  0.1907 -0.6873
 2467TIP3    H128816   1.887   4.858   1.853  0.5205  3.0615  1.3929
 2467TIP3    H228817   1.810   4.797   1.968 -0.1886 -0.6117 -0.8720
 2468TIP3   OH228818   3.087   3.177  14.511  0.5286  0.5214  0.0328
 2468TIP3    H128819   3.077   3.264  14.473 -1.1398 -0.0448 -0.9814
 2468TIP3    H228820   3.014   3.127  14.473 -0.8829 -0.3088  3.4492
 2469TIP3   OH228821   2.670   0.094  14.989  0.0891  0.5308  0.1190
 2469TIP3    H128822   2.596   0.149  15.017  0.0636  0.0264  1.0785
 2469TIP3    H228823   2.714   0.070  15.070  0.9055  0.2454 -0.3993
 2470TIP3   OH228824   5.419   4.275   0.550 -0.7296 -0.3000  0.3287
 2470TIP3    H128825   5.417   4.354   0.604 -0.8189  0.2664 -0.4721
 2470TIP3    H228826   5.439   4.204   0.611 -0.8687  0.3104  1.0997
 2471TIP3   OH228827   2.896   1.470  15.856 -0.0624  0.0547  0.5238
 2471TIP3    H128828   2.964   1.472  15.923 -0.4672  0.3590  0.9299
 2471TIP3    H228829   2.929   1.408  15.791  0.0643 -0.7166  1.2951
 2472TIP3   OH228830   4.664   0.756  10.858 -0.0998 -0.0944  0.4062
 2472TIP3    H128831   4.722   0.824  10.824 -3.2811  1.4503 -2.5118
 2472TIP3    H228832   4.635   0.789  10.944  0.2993  1.0173  0.1261
 2473TIP3   OH228833   0.960   4.089  17.132 -0.1127  0.1681 -0.3721
 2473TIP3    H128834   0.960   4.007  17.182 -0.6366 -0.0011 -0.6358
 2473TIP3    H228835   0.908   4.149  17.186  0.0094  0.2312 -0.3245
 2474TIP3   OH228836   2.571   0.968  13.660  0.0193 -0.4948  0.3810
 2474TIP3    H128837   2.612   0.982  13.745 -0.0296  0.8583  0.1914
 2474TIP3    H228838   2.478   0.981  13.675 -0.0387 -0.7119  0.2124
 2475TIP3   OH228839   5.911   3.528  11.207 -0.2504 -0.1626  0.0290
 2475TIP3    H128840   5.865   3.523  11.124 -0.1670  0.6880 -0.0839
 2475TIP3    H228841   5.850   3.492  11.271 -0.7012  0.0772 -0.2614
 2476TIP3   OH228842   3.830   5.028   3.344 -0.3272  0.3861 -0.0099
 2476TIP3    H128843   3.920   5.010   3.372 -0.4188 -2.5897 -1.2798
 2476TIP3    H228844   3.781   5.039   3.426  0.5824 -1.6050  0.8824
 2477TIP3   OH228845   0.200   1.814  13.655 -0.0125  0.1753 -0.8684
 2477TIP3    H128846   0.217   1.751  13.586  2.8783 -0.0050 -0.1075
 2477TIP3    H228847   0.105   1.812  13.667 -0.0870 -4.0499 -0.8739
 2478TIP3   OH228848   4.755   0.070  11.361  0.5956 -0.5065 -0.2489
 2478TIP3    H128849   4.783   0.152  11.400  1.9002 -0.8418 -0.4248
 2478TIP3    H228850   4.814   0.004  11.398 -1.9524 -1.8356  1.8167
 2479TIP3   OH228851   6.442   3.013   0.917 -1.1810 -0.3843  0.2889
 2479TIP3    H128852   6.531   3.004   0.884 -2.3243 -1.1099 -3.0155
 2479TIP3    H228853   6.433   2.945   0.984  0.6608 -0.3987  0.5593
 2480TIP3   OH228854   4.656   4.223   3.398 -0.0978 -0.3141 -0.4437
 2480TIP3    H128855   4.706   4.263   3.327 -1.4520  4.0320  0.7265
 2480TIP3    H228856   4.711   4.233   3.475 -0.4369 -0.8175 -0.1331
 2481TIP3   OH228857   4.838   2.383  16.308 -0.3627  0.5499  0.3916
 2481TIP3    H128858   4.920   2.427  16.328  0.9213 -0.3932 -2.2857
 2481TIP3    H228859   4.861   2.319  16.240 -3.2993  0.1915 -0.4102
 2482TIP3   OH228860   0.584   6.337  12.094 -0.0095  0.1843  0.4027
 2482TIP3    H128861   0.578   6.429  12.070 -1.0433  0.1638  0.5365
 2482TIP3    H228862   0.604   6.292  12.012 -0.3160  0.4509  0.1787
 2483TIP3   OH228863   4.054   5.876   3.754  0.3560 -0.2310 -0.1717
 2483TIP3    H128864   4.146   5.901   3.749  0.1822  0.9901  1.7803
 2483TIP3    H228865   4.009   5.955   3.785 -1.4151 -0.7154 -1.3259
 2484TIP3   OH228866   4.882   6.428   4.329 -0.1208  0.4318  0.4575
 2484TIP3    H128867   4.946   6.478   4.278  1.1007  0.9960  2.4012
 2484TIP3    H228868   4.900   6.337   4.309  0.1124  0.6550 -0.3627
 2485TIP3   OH228869   1.015   5.546  13.261  0.0800 -0.0031 -0.4181
 2485TIP3    H128870   1.029   5.473  13.200  1.1109 -1.6214  1.6496
 2485TIP3    H228871   1.019   5.624  13.205  3.3399 -1.2145 -2.1676
 2486TIP3   OH228872   3.228   1.718  14.164  0.7115  0.4904  0.1543
 2486TIP3    H128873   3.210   1.628  14.193 -2.7007  0.9014 -0.2357
 2486TIP3    H228874   3.215   1.716  14.070 -1.8934  1.7602  0.3949
 2487TIP3   OH228875   1.324   2.764  12.098 -0.5061  0.0474 -0.2589
 2487TIP3    H128876   1.287   2.775  12.011 -1.7510 -0.4892  0.1772
 2487TIP3    H228877   1.350   2.852  12.125  1.6364  0.0005 -1.8658
 2488TIP3   OH228878   5.535   4.270  14.675  0.4398  0.8166  0.5405
 2488TIP3    H128879   5.457   4.254  14.621 -0.1690 -2.5158  2.1520
 2488TIP3    H228880   5.542   4.365  14.679 -2.2384  1.2253 -1.4695
 2489TIP3   OH228881   4.997   1.382   0.213 -0.0754 -0.3638  0.3650
 2489TIP3    H128882   4.960   1.307   0.167  0.5863  0.8663 -2.3251
 2489TIP3    H228883   5.084   1.354   0.239  0.1424 -0.5633 -0.5666
 2490TIP3   OH228884   2.916   6.330  14.393  0.2126 -0.0525  0.3861
 2490TIP3    H128885   2.861   6.398  14.355  0.7009  0.5041  0.6546
 2490TIP3    H228886   2.896   6.332  14.487  0.3087 -0.2063  0.4110
 2491TIP3   OH228887   0.624   0.316   5.190  0.0700 -0.0651 -0.3047
 2491TIP3    H128888   0.556   0.248   5.193  0.7275 -0.7217 -0.1066
 2491TIP3    H228889   0.576   0.397   5.205 -0.6557 -0.5342  0.0067
 2492TIP3   OH228890   4.159   0.368   5.346  0.1477 -0.0090 -0.2995
 2492TIP3    H128891   4.158   0.273   5.335 -0.1365  0.0536 -0.8491
 2492TIP3    H228892   4.126   0.383   5.435 -0.8992 -0.3675 -0.6179
 2493TIP3   OH228893   6.266   3.452   3.159 -0.0022  0.2296 -0.8481
 2493TIP3    H128894   6.221   3.513   3.218  2.0160 -0.0046  1.0283
 2493TIP3    H228895   6.211   3.373   3.160 -0.6099  0.6504 -0.2405
 2494TIP3   OH228896   0.957   0.920  10.784  0.1082  0.7638 -0.2993
 2494TIP3    H128897   0.879   0.910  10.837 -0.0206  0.6949 -0.4999
 2494TIP3    H228898   1.014   0.978  10.835 -0.2003  1.0628 -0.2919
 2495TIP3   OH228899   4.950   5.225  16.043  0.4270 -0.4031 -0.0105
 2495TIP3    H128900   4.989   5.166  15.978  0.4827 -0.5058  0.1148
 2495TIP3    H228901   4.980   5.312  16.017  1.8382 -0.5946  0.8450
 2496TIP3   OH228902   6.566   3.620  16.816 -0.2711 -0.2054  0.2416
 2496TIP3    H128903   6.540   3.623  16.724 -0.1591  2.4020  0.2046
 2496TIP3    H228904   6.607   3.535  16.827 -0.2512 -0.5693 -2.1368
 2497TIP3   OH228905   1.428   1.773   3.630  0.2094 -0.2017  0.5048
 2497TIP3    H128906   1.421   1.686   3.590  0.4125  0.1990 -0.4341
 2497TIP3    H228907   1.370   1.827   3.577  1.5690  0.6573 -0.1564
 2498TIP3   OH228908   4.844   0.035  15.690  0.2318  0.2142 -0.7739
 2498TIP3    H128909   4.899   0.106  15.657  0.5775  0.1954 -0.2440
 2498TIP3    H228910   4.774   0.079  15.738 -0.8196  0.2871 -2.3072
 2499TIP3   OH228911   2.497   3.635  13.042 -0.3950 -0.0751 -0.3921
 2499TIP3    H128912   2.526   3.693  12.971  0.6370  2.5851  1.9792
 2499TIP3    H228913   2.562   3.565  13.044  0.7374  0.9342 -0.7989
 2500TIP3   OH228914   4.229   2.652   1.506  0.3861  0.1843 -0.4862
 2500TIP3    H128915   4.170   2.632   1.578  0.6078 -0.0374 -0.3623
 2500TIP3    H228916   4.317   2.639   1.542  0.4784 -1.7497 -1.2835
 2501TIP3   OH228917   5.356   2.127  13.810 -0.3025  0.2863 -0.4642
 2501TIP3    H128918   5.313   2.115  13.895 -1.6018 -1.2062 -1.2865
 2501TIP3    H228919   5.446   2.151  13.832 -0.5230 -0.3658  1.3390
 2502TIP3   OH228920   1.459   3.107  13.715 -0.1732  0.0500 -0.6891
 2502TIP3    H128921   1.498   3.022  13.693  1.4726  0.2414  1.1886
 2502TIP3    H228922   1.488   3.165  13.645  2.2520 -0.0496  0.1387
 2503TIP3   OH228923   2.418   3.123  13.088  0.5882 -0.3621 -0.2037
 2503TIP3    H128924   2.448   3.033  13.077 -0.5368 -0.9428  1.0693
 2503TIP3    H228925   2.337   3.128  13.037  1.1591  0.2540 -1.0845
 2504TIP3   OH228926   0.790   2.069  15.930 -0.7077  0.2199 -0.0383
 2504TIP3    H128927   0.758   2.152  15.895  0.8201  0.4993 -0.8933
 2504TIP3    H228928   0.844   2.094  16.005  1.9157  0.3321 -1.8280
 2505TIP3   OH228929   4.393   0.890  14.374 -0.0712 -0.1950 -0.8353
 2505TIP3    H128930   4.382   0.802  14.410 -0.2037  0.2056  0.1223
 2505TIP3    H228931   4.456   0.932  14.432 -0.3628  0.4981 -1.0111
 2506TIP3   OH228932   6.305   4.803  13.603 -0.1783 -0.2854  0.2185
 2506TIP3    H128933   6.308   4.813  13.698 -2.2743 -1.1657  0.4146
 2506TIP3    H228934   6.295   4.709  13.589 -0.1244 -0.1404 -0.8768
 2507TIP3   OH228935   1.417   5.913  13.092  0.6704 -0.4506  0.5549
 2507TIP3    H128936   1.490   5.889  13.036 -1.0329 -0.6003 -1.7447
 2507TIP3    H228937   1.351   5.846  13.076 -1.6718  2.0146 -0.9815
 2508TIP3   OH228938   3.027   0.770  13.824 -0.2772 -0.1565 -0.2544
 2508TIP3    H128939   3.080   0.849  13.829  0.3475 -0.6448  1.7005
 2508TIP3    H228940   2.944   0.794  13.867  0.3091 -0.8037  1.3342
 2509TIP3   OH228941   0.238   1.848   5.022 -0.5002 -0.1020 -0.0563
 2509TIP3    H128942   0.261   1.762   5.057  0.9858 -0.3702 -1.5708
 2509TIP3    H228943   0.220   1.832   4.929 -0.3483  1.1957 -0.3301
 2510TIP3   OH228944   0.562   5.567  15.051 -0.1886 -0.3568 -0.1713
 2510TIP3    H128945   0.488   5.534  15.000  0.8682 -1.0739 -1.3101
 2510TIP3    H228946   0.537   5.656  15.076 -1.0027 -0.2212 -1.3971
 2511TIP3   OH228947   2.083   4.457  12.730 -0.1091 -0.2994 -0.5611
 2511TIP3    H128948   2.086   4.407  12.812  0.1536  0.6742  0.0342
 2511TIP3    H228949   2.174   4.480  12.713 -0.2934  0.5136 -0.4830
 2512TIP3   OH228950   0.979   5.528  16.611  0.7404  0.5816 -0.2392
 2512TIP3    H128951   0.975   5.433  16.596 -0.0769  0.1037  2.4783
 2512TIP3    H228952   1.008   5.564  16.527 -0.2604 -1.9273 -1.7779
 2513TIP3   OH228953   4.299   2.182   4.279 -0.0031  0.3766 -0.6184
 2513TIP3    H128954   4.387   2.219   4.287 -0.0838  0.2786  1.0842
 2513TIP3    H228955   4.305   2.097   4.323 -0.6041 -0.2640 -1.7446
 2514TIP3   OH228956   0.102   3.002  16.030 -0.9309 -0.3167 -0.1815
 2514TIP3    H128957   0.022   2.951  16.040 -0.5493 -0.6594  1.2878
 2514TIP3    H228958   0.076   3.080  15.981 -2.1914 -0.3533  0.4104
 2515TIP3   OH228959   3.359   5.510  11.034  0.2699  0.0457  0.3580
 2515TIP3    H128960   3.395   5.525  10.947 -0.1324  0.2354  0.2251
 2515TIP3    H228961   3.419   5.557  11.093 -0.8603  2.1094 -0.0329
 2516TIP3   OH228962   1.781   5.189  11.221  0.2956 -0.0736 -0.0425
 2516TIP3    H128963   1.874   5.201  11.200  0.0706 -0.7168 -1.5800
 2516TIP3    H228964   1.735   5.246  11.159 -0.3379 -0.0746  0.4241
 2517TIP3   OH228965   4.182   0.749   5.659  0.4130 -0.3895  0.6307
 2517TIP3    H128966   4.258   0.730   5.715  1.8127 -0.9303 -1.3701
 2517TIP3    H228967   4.192   0.692   5.583 -1.1253  0.7235 -0.4756
 2518TIP3   OH228968   3.491   3.164   0.987  0.1995  0.4027  0.6296
 2518TIP3    H128969   3.495   3.253   0.950 -0.6799  0.0955 -0.2694
 2518TIP3    H228970   3.560   3.162   1.053  1.6628  1.0859 -0.8141
 2519TIP3   OH228971   4.894   6.049   0.287  0.0530  0.0683  0.4098
 2519TIP3    H128972   4.880   6.061   0.381 -1.2437  1.4635  0.0645
 2519TIP3    H228973   4.834   6.111   0.245 -0.5863 -1.6625 -1.3859
 2520TIP3   OH228974   0.354   1.416   1.053 -0.5648 -0.8899  0.1781
 2520TIP3    H128975   0.416   1.433   0.982  0.0133 -0.1596  0.8418
 2520TIP3    H228976   0.398   1.447   1.132 -0.5819 -3.0361  1.1035
 2521TIP3   OH228977   2.718   0.874   4.921  0.0956 -0.3336  0.7048
 2521TIP3    H128978   2.810   0.898   4.931  1.0420 -2.5936 -1.4266
 2521TIP3    H228979   2.682   0.940   4.863  0.0121  1.2023  2.4268
 2522TIP3   OH228980   4.155   3.993  14.568  0.5013  0.8196 -0.2186
 2522TIP3    H128981   4.129   3.959  14.654 -0.1307 -0.7544 -0.9938
 2522TIP3    H228982   4.238   3.948  14.548 -1.2609 -1.9540 -2.0748
 2523TIP3   OH228983   2.583   3.552   4.925 -0.9994  0.5737 -0.1333
 2523TIP3    H128984   2.628   3.593   4.852  0.5629 -0.5083  0.1506
 2523TIP3    H228985   2.539   3.624   4.971  1.9217  2.0704  0.5744
 2524TIP3   OH228986   6.168   0.436  17.019  0.1673  0.1418 -0.3106
 2524TIP3    H128987   6.112   0.425  16.942  0.2424  1.2631 -0.5536
 2524TIP3    H228988   6.189   0.347  17.047 -0.3998 -0.2841 -1.1963
 2525TIP3   OH228989   1.498   2.055  13.851 -0.6711 -0.2183  0.9662
 2525TIP3    H128990   1.558   1.980  13.848 -1.3258 -0.7475  0.9690
 2525TIP3    H228991   1.484   2.079  13.760 -0.9617 -0.5112  0.9305
 2526TIP3   OH228992   3.043   4.555  14.477  0.4656  0.1749  0.4066
 2526TIP3    H128993   2.957   4.567  14.515 -0.0815 -1.2838 -0.2723
 2526TIP3    H228994   3.083   4.484  14.528  1.2431  0.7849  0.6699
 2527TIP3   OH228995   1.257   4.675  14.568 -0.0064  0.2118  0.0913
 2527TIP3    H128996   1.198   4.635  14.632 -0.4074  1.2175  0.3700
 2527TIP3    H228997   1.201   4.731  14.515  0.0583 -1.6693 -2.1093
 2528TIP3   OH228998   1.205   0.085  13.798 -0.0672 -0.0642 -0.2170
 2528TIP3    H128999   1.181   0.168  13.756 -0.7828 -0.0024  0.2927
 2528TIP3    H229000   1.133   0.026  13.775 -1.1595  0.3270  1.9542
 2529TIP3   OH229001   2.352   0.594  11.837  0.8242  0.3195 -0.3754
 2529TIP3    H129002   2.431   0.596  11.892 -0.3256 -1.1297  1.4805
 2529TIP3    H229003   2.381   0.555  11.755  1.7294 -2.2454  1.0285
 2530TIP3   OH229004   6.424   3.597  15.904 -0.3604  0.4229  0.2461
 2530TIP3    H129005   6.494   3.645  15.860  2.5871 -2.2891  1.6018
 2530TIP3    H229006   6.394   3.533  15.839 -0.0653  0.1946  0.3336
 2531TIP3   OH229007   2.070   3.139  14.553 -0.1935 -0.0105 -0.0371
 2531TIP3    H129008   2.093   3.092  14.473  2.8531  2.0642 -0.5300
 2531TIP3    H229009   2.119   3.096  14.622  0.0127  0.3951  0.0755
 2532TIP3   OH229010   4.692   1.488  14.885  0.1958  0.7534 -0.4744
 2532TIP3    H129011   4.702   1.555  14.952 -1.1191 -1.1572  1.8095
 2532TIP3    H229012   4.604   1.452  14.901 -0.2148  0.2622 -3.3290
 2533TIP3   OH229013   3.020   2.516   2.827  0.0393 -0.0609  0.4570
 2533TIP3    H129014   2.976   2.580   2.883  1.8253  1.8189 -0.1549
 2533TIP3    H229015   3.029   2.438   2.882  0.2239  1.1488  2.2140
 2534TIP3   OH229016   0.479   1.985   0.735 -0.3118 -0.5713  0.4776
 2534TIP3    H129017   0.450   2.063   0.783  2.5130  0.4683  0.7028
 2534TIP3    H229018   0.500   1.921   0.802  0.5833 -0.2615  0.5156
 2535TIP3   OH229019   0.008   6.151   0.637  0.3768 -0.2547  0.2878
 2535TIP3    H129020   0.004   6.110   0.550 -0.8062  0.3147  0.0489
 2535TIP3    H229021  -0.079   6.190   0.648  0.9724  0.8481  1.1617
 2536TIP3   OH229022   4.927   6.002   5.096  0.4045 -0.2148  0.0611
 2536TIP3    H129023   4.869   5.945   5.146  1.2460  0.1506  1.5128
 2536TIP3    H229024   5.013   5.992   5.138  0.8439  1.1360 -0.4558
 2537TIP3   OH229025   6.399   5.624  15.123  0.1092  0.2064  0.5235
 2537TIP3    H129026   6.335   5.624  15.052 -0.5337  1.1756  1.0890
 2537TIP3    H229027   6.465   5.688  15.095  0.5764 -0.4012  0.1917
 2538TIP3   OH229028   3.571   4.934  14.556 -0.5192 -0.4198  0.6686
 2538TIP3    H129029   3.545   4.842  14.548  3.0876 -1.5965  0.6655
 2538TIP3    H229030   3.614   4.954  14.473  2.3951 -0.1301  2.1238
 2539TIP3   OH229031   6.512   1.868   2.370  0.7706 -0.8541  0.0094
 2539TIP3    H129032   6.585   1.861   2.309  0.7462  2.1370 -0.5401
 2539TIP3    H229033   6.447   1.806   2.337  1.6070 -0.8572 -1.7725
 2540TIP3   OH229034   1.975   0.218   2.822 -1.0384 -0.2162  0.5530
 2540TIP3    H129035   1.999   0.125   2.817  0.7435  0.2392 -0.2735
 2540TIP3    H229036   2.020   0.251   2.899 -1.1701  0.0839  0.5031
 2541TIP3   OH229037   5.701   0.476   3.772 -0.3505 -0.2082 -0.0985
 2541TIP3    H129038   5.784   0.518   3.748  1.0501 -2.5592  0.2564
 2541TIP3    H229039   5.702   0.475   3.867 -0.3910 -0.9277 -0.1005
 2542TIP3   OH229040   3.626   1.195   1.193  0.3364  0.0728 -0.5514
 2542TIP3    H129041   3.573   1.185   1.272  2.3004  0.7512  0.9527
 2542TIP3    H229042   3.616   1.112   1.147 -2.0353  0.2122 -0.4054
 2543TIP3   OH229043   1.149   4.946  14.447  0.2676  0.1594  0.2879
 2543TIP3    H129044   1.123   5.034  14.476  0.5002  0.3790 -0.1703
 2543TIP3    H229045   1.245   4.949  14.445  0.2849 -0.1881  0.5219
 2544TIP3   OH229046   3.813   5.484  12.093 -0.6003  0.0112 -0.1197
 2544TIP3    H129047   3.791   5.396  12.065 -0.1534 -0.6309  1.4343
 2544TIP3    H229048   3.902   5.498  12.061  0.6823 -1.4809  2.5096
 2545TIP3   OH229049   0.894   4.468   4.325 -0.0746 -0.2703  0.0920
 2545TIP3    H129050   0.918   4.559   4.343  1.4948 -0.7174  0.4440
 2545TIP3    H229051   0.799   4.469   4.318 -0.0881  1.3886  0.1256
 2546TIP3   OH229052   1.646   4.586  11.960  0.4443  0.4938  0.2444
 2546TIP3    H129053   1.665   4.549  12.046  0.8509  0.3526  0.0964
 2546TIP3    H229054   1.628   4.510  11.905 -0.1380  0.6025  0.2791
 2547TIP3   OH229055   1.305   6.423   5.588  0.0706  0.0883  0.3127
 2547TIP3    H129056   1.344   6.382   5.665 -1.5632 -0.0966  1.0736
 2547TIP3    H229057   1.379   6.460   5.540  1.0383  1.1659  2.5358
 2548TIP3   OH229058   2.787   0.991  15.029 -0.2803  0.7437 -0.0002
 2548TIP3    H129059   2.851   0.931  15.068 -0.5114  0.0709 -0.6291
 2548TIP3    H229060   2.714   0.935  15.005 -0.4271  1.2510 -0.7702
 2549TIP3   OH229061   3.660   6.346   3.789  0.3759  0.1505  0.9185
 2549TIP3    H129062   3.687   6.385   3.707 -0.7369 -0.3103  0.3165
 2549TIP3    H229063   3.565   6.353   3.790  0.1519 -2.1755  0.9423
 2550TIP3   OH229064   0.810   6.303  15.938 -0.0720  0.2642  0.3280
 2550TIP3    H129065   0.842   6.391  15.955 -0.5133  0.3431  0.7788
 2550TIP3    H229066   0.716   6.314  15.921  0.0375 -0.0134 -0.5101
 2551TIP3   OH229067   0.922   5.831   0.651 -0.1979 -0.5631 -0.0272
 2551TIP3    H129068   1.002   5.787   0.623 -0.5973 -1.1619 -0.2450
 2551TIP3    H229069   0.926   5.830   0.746  0.6061  0.4390 -0.0439
 2552TIP3   OH229070   4.054   6.746   4.125 -0.5617  0.0666 -0.0834
 2552TIP3    H129071   4.127   6.714   4.071  0.1222 -1.3656  1.6115
 2552TIP3    H229072   4.047   6.839   4.101  2.3937  0.4982  0.2776
 2553TIP3   OH229073   1.155   5.198  16.247  0.4774  0.0922 -0.1246
 2553TIP3    H129074   1.120   5.275  16.203 -2.0383 -0.9793 -0.1908
 2553TIP3    H229075   1.241   5.184  16.206 -0.1711  1.2878 -2.0513
 2554TIP3   OH229076   1.274   1.877  14.765 -0.5269  0.1165 -0.0794
 2554TIP3    H129077   1.284   1.859  14.858 -0.7727 -1.1718 -0.2864
 2554TIP3    H229078   1.184   1.906  14.755 -0.2686  1.0240  0.1932
 2555TIP3   OH229079   6.241   2.816   4.331 -0.5313 -0.5255 -0.6716
 2555TIP3    H129080   6.322   2.774   4.301 -0.2705  0.7988 -1.9498
 2555TIP3    H229081   6.183   2.813   4.256 -0.5093  1.3165 -0.8264
 2556TIP3   OH229082   1.380   1.091   4.025  0.0648  0.8828  0.1239
 2556TIP3    H129083   1.435   1.112   3.949 -1.0089  0.9993 -0.6573
 2556TIP3    H229084   1.323   1.168   4.035 -1.6040 -0.1829 -0.6535
 2557TIP3   OH229085   6.566   3.528  12.885  0.1903  1.2001 -0.0011
 2557TIP3    H129086   6.654   3.553  12.915  1.5218 -2.5396 -0.3845
 2557TIP3    H229087   6.575   3.516  12.791 -0.3707 -0.4506  0.1375
 2558TIP3   OH229088   4.936   6.594   5.048 -0.4130  0.0305  0.4412
 2558TIP3    H129089   4.909   6.517   4.998 -0.4388 -0.5657  1.3351
 2558TIP3    H229090   4.871   6.661   5.026 -0.2078 -0.0958 -0.5891
 2559TIP3   OH229091   1.635   6.332  11.785  0.5529  0.6731  0.1546
 2559TIP3    H129092   1.595   6.247  11.767  0.2140  0.7873  0.3579
 2559TIP3    H229093   1.722   6.311  11.817  0.6794  0.4232 -0.3424
 2560TIP3   OH229094   3.190   6.444  14.389 -0.1936  0.1355 -0.1042
 2560TIP3    H129095   3.159   6.479  14.472 -0.0389  0.1832 -0.0659
 2560TIP3    H229096   3.111   6.411  14.346 -0.8770  3.0276 -1.3681
 2561TIP3   OH229097   3.622   5.820  16.385  0.6239 -0.4878 -0.1861
 2561TIP3    H129098   3.548   5.827  16.445  0.3014  1.4043 -0.7101
 2561TIP3    H229099   3.693   5.867  16.429  0.5151  0.5309 -1.0540
 2562TIP3   OH229100   3.084   4.876   3.383 -0.2999  0.8173  0.2139
 2562TIP3    H129101   3.150   4.807   3.385  0.7915  1.8444  0.7588
 2562TIP3    H229102   3.004   4.831   3.354  0.4268 -0.6114  0.3066
 2563TIP3   OH229103   5.938   1.384  13.066  0.5416 -0.1196 -0.6543
 2563TIP3    H129104   5.919   1.352  12.978  3.3147 -0.7602 -1.1299
 2563TIP3    H229105   5.878   1.336  13.123  0.9216 -2.1995 -1.9073
 2564TIP3   OH229106   2.400   4.002   4.437 -0.0007 -0.6050  0.1014
 2564TIP3    H129107   2.377   4.081   4.486 -1.2739 -0.4358 -0.7183
 2564TIP3    H229108   2.436   4.034   4.355  0.4295 -0.8900  0.1739
 2565TIP3   OH229109   0.482   6.130   1.871 -0.1480  0.0843 -0.0656
 2565TIP3    H129110   0.491   6.154   1.778 -1.6438  0.2722 -0.1761
 2565TIP3    H229111   0.453   6.039   1.869 -0.3268  0.1361  0.2224
 2566TIP3   OH229112   2.247   1.482  15.033  0.4411  0.0346 -0.0775
 2566TIP3    H129113   2.254   1.446  14.945  0.1705 -1.0177  0.3119
 2566TIP3    H229114   2.153   1.493  15.047  0.1110 -3.2772  1.3556
 2567TIP3   OH229115   3.614   1.534  15.229  0.3445 -0.2666 -0.7701
 2567TIP3    H129116   3.558   1.462  15.258 -0.3240  0.9128  1.0025
 2567TIP3    H229117   3.690   1.531  15.288  0.8190 -0.1379 -1.3599
 2568TIP3   OH229118   2.786   0.518  15.094 -0.8810  0.0976 -0.0046
 2568TIP3    H129119   2.821   0.444  15.045  1.0015  1.2140 -0.4725
 2568TIP3    H229120   2.753   0.480  15.175 -2.5879 -1.5846 -1.4025
 2569TIP3   OH229121   0.588   0.579  15.342 -0.8638 -0.4997 -0.0451
 2569TIP3    H129122   0.665   0.593  15.287 -0.8884 -0.4865 -0.0767
 2569TIP3    H229123   0.524   0.538  15.283 -1.3011  0.5744 -0.3525
 2570TIP3   OH229124   0.043   6.315   1.404 -0.5041 -0.1078 -0.1098
 2570TIP3    H129125   0.086   6.400   1.391  2.1470 -1.1688  1.0637
 2570TIP3    H229126  -0.028   6.334   1.466  0.9325  1.0693  1.2627
 2571TIP3   OH229127   3.030   5.271   1.759 -0.4182 -0.2573  0.7005
 2571TIP3    H129128   3.058   5.268   1.851  0.7705  0.5127  0.3827
 2571TIP3    H229129   3.087   5.336   1.719 -0.6705 -0.8617 -0.6850
 2572TIP3   OH229130   1.514   5.107  13.760  0.1152 -0.3718  0.3438
 2572TIP3    H129131   1.468   5.165  13.821 -1.4592  1.1859 -2.1584
 2572TIP3    H229132   1.446   5.051  13.723  0.7034 -0.1668 -1.1325
 2573TIP3   OH229133   4.004   6.427   3.554  0.4748  0.5354 -0.3398
 2573TIP3    H129134   4.042   6.465   3.633  2.0939  1.4943 -1.5033
 2573TIP3    H229135   3.981   6.503   3.500  1.4947 -0.0968 -1.7148
 2574TIP3   OH229136   3.801   4.199  11.891 -0.2554 -0.0381  0.5395
 2574TIP3    H129137   3.752   4.182  11.810  2.4411 -0.6983 -1.0838
 2574TIP3    H229138   3.846   4.117  11.909  0.1223  0.4772  2.0465
 2575TIP3   OH229139   6.700   5.041   1.222 -0.3084  0.5555 -0.4237
 2575TIP3    H129140   6.663   4.966   1.174 -0.1877  0.8026 -0.9064
 2575TIP3    H229141   6.737   5.002   1.301 -2.6229  0.4214  0.6760
 2576TIP3   OH229142   3.441   1.365   5.527  0.0348 -0.4709  0.4679
 2576TIP3    H129143   3.448   1.315   5.608  0.5344  2.0359  2.0581
 2576TIP3    H229144   3.502   1.437   5.537  1.6083 -1.0997 -3.0290
 2577TIP3   OH229145   1.754   2.061  14.174 -0.6257  0.4549  0.4153
 2577TIP3    H129146   1.678   2.011  14.204 -1.4156 -0.2010 -2.3531
 2577TIP3    H229147   1.802   2.000  14.117  2.4973  0.5866  2.6522
 2578TIP3   OH229148   1.071   0.264  16.305  0.4322  0.7736  0.5424
 2578TIP3    H129149   1.037   0.354  16.305  0.9564  0.9732  0.4404
 2578TIP3    H229150   1.136   0.262  16.374 -0.1331  0.2472  1.0790
 2579TIP3   OH229151   4.642   0.221   5.023  0.0520  0.1266  0.0665
 2579TIP3    H129152   4.616   0.198   4.934  0.2757 -1.8322  0.4686
 2579TIP3    H229153   4.737   0.231   5.018 -0.0506  1.1717 -0.1225
 2580TIP3   OH229154   3.567   6.009   1.119  0.1309 -0.2459 -0.1119
 2580TIP3    H129155   3.568   6.072   1.191  1.2659  0.6713 -0.8867
 2580TIP3    H229156   3.606   5.930   1.155 -1.2053 -0.5094  0.8412
 2581TIP3   OH229157   4.646   2.708  14.946 -0.2097  0.2380  0.5901
 2581TIP3    H129158   4.623   2.799  14.926 -0.2649  0.1850  0.4111
 2581TIP3    H229159   4.679   2.711  15.035 -1.8693  0.1563  1.2519
 2582TIP3   OH229160   0.897   0.364   5.159  0.1822 -0.2414 -0.2548
 2582TIP3    H129161   0.884   0.456   5.180  1.5102 -0.6518  2.8987
 2582TIP3    H229162   0.810   0.325   5.167  0.2424  0.0566  2.8606
 2583TIP3   OH229163   2.790   0.343  11.753  0.4099 -0.3273 -0.0600
 2583TIP3    H129164   2.871   0.295  11.775  0.1414 -0.9751 -0.4588
 2583TIP3    H229165   2.764   0.309  11.668 -0.2811 -0.1116  0.0578
 2584TIP3   OH229166   5.191   3.555   3.178 -0.1488 -0.3965 -0.1666
 2584TIP3    H129167   5.206   3.479   3.234  0.1006  0.2770  0.7022
 2584TIP3    H229168   5.199   3.630   3.237  0.3195  0.3421 -1.1503
 2585TIP3   OH229169   5.400   5.479  11.174  0.2383  0.1941 -0.7455
 2585TIP3    H129170   5.381   5.422  11.249  0.1303  1.5473  0.3093
 2585TIP3    H229171   5.332   5.459  11.110 -1.4171  0.9634  0.6898
 2586TIP3   OH229172   4.100   5.056   3.426 -0.4486 -0.6523  0.7180
 2586TIP3    H129173   4.169   5.029   3.366 -1.3186 -0.3641 -0.4376
 2586TIP3    H229174   4.140   5.047   3.513  1.1197 -0.2256  0.0761
 2587TIP3   OH229175   0.336   4.578   1.148 -0.3162 -0.1594 -0.2386
 2587TIP3    H129176   0.405   4.601   1.085  0.3185  0.8312  0.7716
 2587TIP3    H229177   0.384   4.553   1.227 -1.1133  0.1312  0.3449
 2588TIP3   OH229178   5.325   3.162   5.508  0.0357  0.1683 -0.1713
 2588TIP3    H129179   5.246   3.214   5.522 -0.3492 -0.3264 -0.4877
 2588TIP3    H229180   5.297   3.071   5.519  0.7958  0.0283  0.8211
 2589TIP3   OH229181   3.442   0.104   5.608  0.0538 -0.0115 -0.0832
 2589TIP3    H129182   3.524   0.115   5.560 -0.4202 -0.0386 -0.9336
 2589TIP3    H229183   3.449   0.164   5.682 -0.1632  1.8908 -1.5165
 2590TIP3   OH229184   5.229   0.047   2.601 -0.2358  0.2685  0.1236
 2590TIP3    H129185   5.272   0.081   2.680 -1.0447  0.7445  0.3822
 2590TIP3    H229186   5.280   0.082   2.528 -0.4514  1.2076  0.4131
 2591TIP3   OH229187   5.956   1.898  15.296 -0.1748  0.1132  0.2513
 2591TIP3    H129188   5.933   1.935  15.211 -0.2108 -0.4958 -0.0084
 2591TIP3    H229189   5.988   1.972  15.346 -1.0572  0.6655  0.0311
 2592TIP3   OH229190   1.294   0.759   1.287  0.0099 -0.2876  0.0803
 2592TIP3    H129191   1.350   0.683   1.268  1.3559  0.6349  0.2295
 2592TIP3    H229192   1.304   0.775   1.381 -0.7482 -0.2816  0.1702
 2593TIP3   OH229193   6.502   2.261   1.325 -0.2055 -0.4931  0.1180
 2593TIP3    H129194   6.481   2.185   1.271 -0.3389 -0.5370  0.2324
 2593TIP3    H229195   6.432   2.265   1.390  0.0230 -0.5109  0.3650
 2594TIP3   OH229196   4.439   0.200  13.970  1.0867  0.3238  0.2532
 2594TIP3    H129197   4.497   0.142  13.920 -0.2925 -0.7425 -0.1654
 2594TIP3    H229198   4.494   0.276  13.992  2.1106  0.2225 -1.7514
 2595TIP3   OH229199   2.514   6.067   2.183  1.0363  0.3107 -0.2607
 2595TIP3    H129200   2.591   6.046   2.130  2.4975 -0.2702  1.9529
 2595TIP3    H229201   2.447   6.004   2.155  1.5451  0.4227 -1.7916
 2596TIP3   OH229202   0.470   4.711  12.616  0.5179  0.4011  0.2482
 2596TIP3    H129203   0.407   4.749  12.555  0.5782  0.1937  0.0562
 2596TIP3    H229204   0.449   4.617  12.616  0.3126  0.4436  0.7841
 2597TIP3   OH229205   0.889   5.777  12.556 -0.0232 -0.0775  0.1914
 2597TIP3    H129206   0.849   5.691  12.572  1.2540 -0.5407  1.1020
 2597TIP3    H229207   0.833   5.838  12.602  0.2164 -0.7067  1.3739
 2598TIP3   OH229208   1.676   6.324  12.688  0.2075 -0.2338  0.1588
 2598TIP3    H129209   1.675   6.252  12.750  2.1210 -1.6736 -1.3173
 2598TIP3    H229210   1.627   6.292  12.612  0.8254  0.0935 -0.4003
 2599TIP3   OH229211   2.517   4.607   1.663  0.2641 -0.5924 -0.9362
 2599TIP3    H129212   2.502   4.628   1.571 -4.8371 -0.4105 -0.3527
 2599TIP3    H229213   2.516   4.511   1.667  0.5988 -0.6031 -1.0272
 2600TIP3   OH229214   6.519   4.272   3.651 -0.1466 -0.1133 -0.1496
 2600TIP3    H129215   6.488   4.182   3.664  0.2295 -0.3118 -0.6042
 2600TIP3    H229216   6.592   4.263   3.589 -0.0663  0.4989 -0.1434
 2601TIP3   OH229217   3.007   3.197  13.770 -0.4516  0.2058  0.4136
 2601TIP3    H129218   2.959   3.250  13.706  2.4366  1.5275 -0.8086
 2601TIP3    H229219   3.098   3.201  13.742  0.4413 -2.2656  2.5509
 2602TIP3   OH229220   0.056   0.075   5.425  0.2113 -0.0586  0.6369
 2602TIP3    H129221   0.075   0.151   5.369 -1.8735  0.0749  0.0228
 2602TIP3    H229222   0.027   0.113   5.508 -2.5995 -0.0600 -0.2643
 2603TIP3   OH229223   6.333   3.667   1.283  0.3168  0.1790  0.0149
 2603TIP3    H129224   6.319   3.650   1.190  0.6079 -0.6226  0.1131
 2603TIP3    H229225   6.428   3.664   1.294  0.3615  1.4321  0.1296
 2604TIP3   OH229226   1.382   3.398   5.626  0.3594  0.6925 -0.1585
 2604TIP3    H129227   1.381   3.489   5.598 -0.8436  0.4965 -0.8576
 2604TIP3    H229228   1.321   3.395   5.700  0.3106  0.4497 -0.2069
 2605TIP3   OH229229   1.440   5.994  15.303  0.1562  0.3799  0.4811
 2605TIP3    H129230   1.533   5.991  15.327  0.2067  1.5167  0.4425
 2605TIP3    H229231   1.398   5.934  15.366  1.1381 -1.6700 -0.7115
 2606TIP3   OH229232   6.010   3.150  12.640 -0.3264 -0.1276 -0.0224
 2606TIP3    H129233   5.945   3.158  12.570 -0.8310 -0.4289  0.4052
 2606TIP3    H229234   6.075   3.089  12.605 -1.5228 -1.7434  0.4512
 2607TIP3   OH229235   3.216   3.766  14.755  0.3204  0.3741  0.1295
 2607TIP3    H129236   3.244   3.735  14.841  0.3850  1.1934  0.4133
 2607TIP3    H229237   3.194   3.858  14.769 -0.7868  0.2202 -0.4795
 2608TIP3   OH229238   3.669   0.756  15.842 -0.0408  0.4213 -0.3999
 2608TIP3    H129239   3.694   0.751  15.750  0.1856  1.0880 -0.3816
 2608TIP3    H229240   3.717   0.685  15.884 -1.9465 -1.4424 -1.1674
 2609TIP3   OH229241   6.119   6.106   0.585  0.4289  0.5281 -0.1644
 2609TIP3    H129242   6.214   6.111   0.578  0.3264  1.1113 -1.5334
 2609TIP3    H229243   6.096   6.025   0.539  0.2676  0.3400  0.2443
 2610TIP3   OH229244   6.365   1.067  12.601 -0.4125  0.1949 -0.5384
 2610TIP3    H129245   6.438   1.074  12.661 -1.9425  1.6404  1.3009
 2610TIP3    H229246   6.399   1.098  12.517  1.2496  0.1477  0.0935
 2611TIP3   OH229247   1.792   4.703   5.929  0.6214  0.1119 -0.0858
 2611TIP3    H129248   1.823   4.658   6.007  0.5037 -1.9629 -1.1526
 2611TIP3    H229249   1.804   4.639   5.858 -1.9644  0.8322 -1.2856
 2612TIP3   OH229250   5.714   4.538  13.641 -0.7516  0.1045 -0.1240
 2612TIP3    H129251   5.688   4.630  13.647 -0.8244  0.1095 -0.4893
 2612TIP3    H229252   5.751   4.518  13.727 -2.4795 -0.0616  0.6125
 2613TIP3   OH229253   0.867   4.347  11.874  0.4849  0.3160 -0.2764
 2613TIP3    H129254   0.941   4.304  11.832 -0.3230 -1.9367  0.4776
 2613TIP3    H229255   0.843   4.417  11.813  1.8165 -0.3282 -1.6181
 2614TIP3   OH229256   0.213   3.423   5.595 -0.2881 -0.4038  0.2510
 2614TIP3    H129257   0.121   3.409   5.574 -0.1209 -0.5961 -0.3821
 2614TIP3    H229258   0.253   3.446   5.511  0.1886 -0.0492  0.5714
 2615TIP3   OH229259   4.695   3.857   1.564 -0.2322  0.4140 -0.0514
 2615TIP3    H129260   4.705   3.947   1.535  0.0032  0.5810  0.5355
 2615TIP3    H229261   4.767   3.843   1.626  0.4089 -0.5200 -0.9714
 2616TIP3   OH229262   5.384   6.432   2.518  0.0371 -0.0964  0.1894
 2616TIP3    H129263   5.442   6.501   2.549  0.2665 -0.2900  0.1913
 2616TIP3    H229264   5.438   6.377   2.462 -0.5846  0.7555 -1.3306
 2617TIP3   OH229265   2.241   6.296  13.304  0.4074  0.4533 -0.3412
 2617TIP3    H129266   2.313   6.298  13.367 -0.4245  0.7784  0.6256
 2617TIP3    H229267   2.181   6.364  13.334 -0.8809 -0.6165 -0.4119
 2618TIP3   OH229268   6.312   4.938   6.722  0.2416  0.6508  0.2084
 2618TIP3    H129269   6.404   4.929   6.698  0.0037  2.6765 -1.8809
 2618TIP3    H229270   6.264   4.908   6.645 -0.7812  1.3937  0.5381
 2619TIP3   OH229271   4.680   4.331   4.437 -0.5161 -0.5788 -0.8491
 2619TIP3    H129272   4.722   4.382   4.506  0.5759 -0.6592 -1.4252
 2619TIP3    H229273   4.588   4.356   4.441 -0.3327  0.0103  0.1046
 2620TIP3   OH229274   0.082   0.460   1.139  0.8259  0.1862  0.2048
 2620TIP3    H129275   0.156   0.409   1.171  2.8538  1.8858 -1.4115
 2620TIP3    H229276   0.106   0.482   1.048 -1.9774  0.3088 -0.5918
 2621TIP3   OH229277   6.315   1.824   1.531 -0.4987 -0.0496  0.2768
 2621TIP3    H129278   6.274   1.741   1.508 -0.7218  0.1653 -0.1079
 2621TIP3    H229279   6.363   1.850   1.452 -1.9264  1.0932 -0.2583
 2622TIP3   OH229280   0.030   5.856   3.312  0.0463 -0.3234  0.1157
 2622TIP3    H129281  -0.011   5.917   3.373 -0.8583 -0.6484 -0.1440
 2622TIP3    H229282   0.121   5.850   3.341 -0.0988  0.3795  0.7461
 2623TIP3   OH229283   4.701   4.090   1.432  0.4117 -0.0154 -0.4728
 2623TIP3    H129284   4.704   4.180   1.463  0.5027  0.1880 -1.0691
 2623TIP3    H229285   4.693   4.097   1.337  2.5676 -0.6098 -0.7607
 2624TIP3   OH229286   5.296   3.052   3.831 -0.5268  0.3100  0.4302
 2624TIP3    H129287   5.346   3.012   3.902  0.5470 -0.1275 -0.5509
 2624TIP3    H229288   5.360   3.068   3.762 -1.4600  1.1779 -0.2697
 2625TIP3   OH229289   4.101   3.308  14.815  0.6273 -0.1018  0.2257
 2625TIP3    H129290   4.170   3.254  14.776 -0.2061  1.8050 -4.6604
 2625TIP3    H229291   4.132   3.397  14.807 -1.5811  0.6887 -0.4750
 2626TIP3   OH229292   0.780   0.404   3.371  0.3787  0.4352 -0.4092
 2626TIP3    H129293   0.870   0.436   3.370  0.3836  0.4514  0.0423
 2626TIP3    H229294   0.750   0.423   3.460 -0.1024  0.5158 -0.5915
 2627TIP3   OH229295   1.983   6.242  17.099 -0.2173 -0.3851  0.2003
 2627TIP3    H129296   1.905   6.218  17.149  0.1673 -0.0102  1.0035
 2627TIP3    H229297   2.056   6.206  17.150  0.3157  1.6501  0.9888
 2628TIP3   OH229298   2.116   1.472  11.852 -0.0496 -0.8911 -0.1089
 2628TIP3    H129299   2.148   1.391  11.813  2.5333 -0.1866  0.3983
 2628TIP3    H229300   2.043   1.444  11.907 -0.0895 -2.6602 -0.9881
 2629TIP3   OH229301   5.957   4.591  12.920 -0.2046 -0.6896 -0.0220
 2629TIP3    H129302   5.908   4.662  12.961  1.4996  0.6474 -0.1744
 2629TIP3    H229303   5.893   4.547  12.864 -1.4569  0.3312  0.5547
 2630TIP3   OH229304   1.739   0.910   5.876  0.4179  0.7714  0.2337
 2630TIP3    H129305   1.744   0.898   5.971 -0.2446  2.8656  0.5646
 2630TIP3    H229306   1.648   0.889   5.853  1.1945 -2.3895 -0.4199
 2631TIP3   OH229307   3.574   3.022  13.745  0.0315 -0.1698  0.2635
 2631TIP3    H129308   3.530   3.098  13.783 -0.2467  0.8233 -1.9040
 2631TIP3    H229309   3.652   3.010  13.800  0.3722  2.0249  0.3707
 2632TIP3   OH229310   5.517   6.284  12.132  0.8180 -0.2502  0.3847
 2632TIP3    H129311   5.515   6.377  12.157 -0.6348  0.3544 -1.7420
 2632TIP3    H229312   5.600   6.274  12.085  0.0347  0.5833 -1.2810
 2633TIP3   OH229313   1.736   2.531  11.633  0.2926  0.0220 -0.1869
 2633TIP3    H129314   1.713   2.438  11.635 -0.8775  0.3128  0.3795
 2633TIP3    H229315   1.794   2.543  11.708  0.4055 -0.2320 -0.2323
 2634TIP3   OH229316   1.124   1.795   3.022  0.2185  0.3302 -0.5339
 2634TIP3    H129317   1.092   1.788   3.112  0.8681 -0.7935 -0.3577
 2634TIP3    H229318   1.049   1.770   2.968 -1.0472  3.6216 -0.5300
 2635TIP3   OH229319   5.411   2.645  10.332 -0.0021  0.1439 -0.3441
 2635TIP3    H129320   5.332   2.634  10.279  0.2151  0.6769 -0.7937
 2635TIP3    H229321   5.404   2.578  10.400 -0.3391 -0.4862 -0.9810
 2636TIP3   OH229322   3.221   4.073   2.896 -0.6627  0.0661  0.0792
 2636TIP3    H129323   3.283   4.132   2.853 -0.9537 -0.8261 -1.6516
 2636TIP3    H229324   3.267   4.043   2.974  1.5328 -1.3042 -1.6344
 2637TIP3   OH229325   3.307   3.145   3.050 -0.1888 -0.0274 -0.1709
 2637TIP3    H129326   3.313   3.164   2.956 -0.1447  0.3687 -0.0881
 2637TIP3    H229327   3.272   3.056   3.053 -0.6801  0.1454 -0.5565
 2638TIP3   OH229328   4.631   2.213  16.805 -0.0686  0.2241 -0.6093
 2638TIP3    H129329   4.663   2.183  16.720 -1.4926  0.0111 -1.0935
 2638TIP3    H229330   4.701   2.270  16.838 -0.3228  2.0023 -2.8525
 2639TIP3   OH229331   1.664   5.181   2.917  0.0663  0.2694  0.0476
 2639TIP3    H129332   1.748   5.152   2.951  0.4034  1.0387 -0.1107
 2639TIP3    H229333   1.686   5.232   2.839 -0.7155 -2.0130 -1.7768
 2640TIP3   OH229334   3.404   3.403  13.201 -0.0746  0.1454 -0.1304
 2640TIP3    H129335   3.357   3.382  13.120  0.7956  2.5968 -1.3772
 2640TIP3    H229336   3.350   3.470  13.244  0.1820 -0.1009  0.5928
 2641TIP3   OH229337   0.649   4.041   4.271  0.3822  0.4311 -0.1623
 2641TIP3    H129338   0.648   4.051   4.366  0.8951  2.0728 -0.2901
 2641TIP3    H229339   0.568   3.995   4.250  0.5407 -0.4760  1.0999
 2642TIP3   OH229340   1.770   2.748   4.112  0.3441  0.0608 -0.0951
 2642TIP3    H129341   1.768   2.663   4.157 -0.2275 -0.0992 -0.4079
 2642TIP3    H229342   1.684   2.786   4.130  0.7674  0.7935  0.4423
 2643TIP3   OH229343   0.012   3.028  11.939 -0.0632 -0.2364  0.2228
 2643TIP3    H129344   0.064   2.951  11.961  0.2359 -0.1572 -0.2050
 2643TIP3    H229345   0.021   3.085  12.016  0.8105 -0.0521 -0.0087
 2644TIP3   OH229346   5.480   2.669   0.313 -0.4055  0.2378 -0.2018
 2644TIP3    H129347   5.480   2.576   0.336 -0.7901 -0.3338 -2.2390
 2644TIP3    H229348   5.488   2.669   0.217 -2.2294  2.2517 -0.4237
 2645TIP3   OH229349   4.650   6.378  12.134 -0.4446  0.3272 -0.0762
 2645TIP3    H129350   4.653   6.386  12.229 -0.4158  2.1953 -0.2136
 2645TIP3    H229351   4.734   6.337  12.111 -0.5770 -0.4208  0.6971
 2646TIP3   OH229352   5.315   6.229  15.050  0.3171 -0.1013 -0.1746
 2646TIP3    H129353   5.406   6.236  15.020  0.5948 -0.0505  0.6645
 2646TIP3    H229354   5.263   6.252  14.973  1.0331  1.2114 -0.2974
 2647TIP3   OH229355   4.125   1.684   1.362  0.2506  0.0884 -0.0892
 2647TIP3    H129356   4.173   1.615   1.407  1.1508  0.3044 -0.6910
 2647TIP3    H229357   4.099   1.645   1.279  0.4322  0.3484 -0.2709
 2648TIP3   OH229358   6.460   2.522  16.708 -0.3300  0.4269 -0.1809
 2648TIP3    H129359   6.527   2.575  16.753 -0.8089 -0.6344  1.8969
 2648TIP3    H229360   6.494   2.433  16.710 -1.5163 -0.0387  0.3894
 2649TIP3   OH229361   1.694   5.191  14.980 -0.8662  0.4570  0.2826
 2649TIP3    H129362   1.726   5.243  14.906 -2.5268  2.2587  0.7471
 2649TIP3    H229363   1.773   5.167  15.029  0.1064  0.7781 -1.0767
 2650TIP3   OH229364   0.529   1.910  12.609 -0.6742 -0.3163 -0.2907
 2650TIP3    H129365   0.497   1.991  12.571 -0.1879 -1.5756 -3.7204
 2650TIP3    H229366   0.603   1.885  12.554  2.6611 -0.5290  3.7709
 2651TIP3   OH229367   2.127   1.138   0.842  0.2646 -0.0245  0.3973
 2651TIP3    H129368   2.220   1.141   0.822  0.5026  2.5748  1.5132
 2651TIP3    H229369   2.113   1.209   0.904 -2.1297 -1.5889  1.8435
 2652TIP3   OH229370   4.768   4.963  14.127 -0.7493 -0.4636  0.0903
 2652TIP3    H129371   4.785   5.043  14.176 -0.0166 -0.2618 -0.4742
 2652TIP3    H229372   4.731   4.993  14.044  1.4536 -0.5276 -0.9901
 2653TIP3   OH229373   1.027   6.256  17.070  0.0773  0.3185 -0.4397
 2653TIP3    H129374   0.984   6.176  17.102  0.1694 -0.2800 -1.7529
 2653TIP3    H229375   1.119   6.243  17.091  0.0374  0.2579 -0.2988
 2654TIP3   OH229376   4.272   2.883  14.028 -0.4068  0.0934  0.1052
 2654TIP3    H129377   4.221   2.841  14.098  0.0612  2.0553  1.7304
 2654TIP3    H229378   4.267   2.976  14.048  1.7648  0.5263 -1.1103
 2655TIP3   OH229379   6.177   0.946   0.976 -0.2017  0.8674 -0.5414
 2655TIP3    H129380   6.148   0.987   1.058  1.9688 -0.9409  1.2823
 2655TIP3    H229381   6.273   0.955   0.979  0.0449 -0.8767 -1.9542
 2656TIP3   OH229382   0.067   1.120   5.697  0.6732 -0.6759  0.0050
 2656TIP3    H129383   0.074   1.042   5.752  0.7608  0.8871  2.3210
 2656TIP3    H229384   0.140   1.175   5.724 -1.0060  1.4361  0.5232
 2657TIP3   OH229385   1.056   1.947   2.655 -0.5893  0.0611  0.1848
 2657TIP3    H129386   1.085   2.013   2.591  1.4477 -1.4474 -0.5646
 2657TIP3    H229387   1.094   1.976   2.738 -1.8387  1.1348  0.4152
 2658TIP3   OH229388   3.246   5.081   1.142 -0.0828 -0.3392  0.2862
 2658TIP3    H129389   3.162   5.097   1.184 -0.0283 -0.1329  0.3187
 2658TIP3    H229390   3.246   5.138   1.065 -1.1519 -2.3749 -1.3304
 2659TIP3   OH229391   1.627   1.680  15.755 -0.1094 -0.3396  0.0936
 2659TIP3    H129392   1.676   1.734  15.817 -1.6066  1.3631 -0.1245
 2659TIP3    H229393   1.693   1.626  15.712  1.3813  0.8946  0.7587
 2660TIP3   OH229394   6.700   2.141   1.765  0.0276  0.1876  0.0540
 2660TIP3    H129395   6.755   2.066   1.788 -3.2554 -1.6383  2.9968
 2660TIP3    H229396   6.642   2.108   1.697 -0.3389  0.5763  0.1742
 2661TIP3   OH229397   0.983   5.304  16.438 -0.0309 -0.1954  0.3228
 2661TIP3    H129398   0.901   5.325  16.393 -0.4949 -2.8614 -0.2327
 2661TIP3    H229399   1.036   5.261  16.371  1.0535 -0.2427  1.1852
 2662TIP3   OH229400   4.925   3.371  14.055  0.5942  0.1791  0.0106
 2662TIP3    H129401   4.992   3.306  14.074  1.1513  0.9546  0.8098
 2662TIP3    H229402   4.963   3.426  13.987  1.0951  1.0532  0.9657
 2663TIP3   OH229403   1.668   5.084   5.484  0.3383 -0.2453 -0.0572
 2663TIP3    H129404   1.742   5.065   5.426 -0.6989  0.0633 -1.5475
 2663TIP3    H229405   1.600   5.119   5.425 -1.3583 -1.4670  1.0826
 2664TIP3   OH229406   1.675   6.530   0.339  0.2819 -0.1574  0.1963
 2664TIP3    H129407   1.580   6.519   0.343  0.2374  0.2363  0.2491
 2664TIP3    H229408   1.688   6.607   0.284  0.5415  0.2347  0.7939
 2665TIP3   OH229409   3.959   4.459   4.481 -0.2904 -0.0800 -0.3162
 2665TIP3    H129410   4.030   4.519   4.506 -0.8749  0.9266 -0.9857
 2665TIP3    H229411   3.895   4.466   4.553  0.9287 -2.1816  1.0821
 2666TIP3   OH229412   3.168   4.585   0.858  0.3088 -0.1795  0.2484
 2666TIP3    H129413   3.090   4.626   0.821  0.6709 -0.0799 -0.4206
 2666TIP3    H229414   3.174   4.621   0.947 -0.1083  0.2154  0.1237
 2667TIP3   OH229415   4.343   1.350   2.190  0.5220  0.1500  0.1892
 2667TIP3    H129416   4.248   1.342   2.190  0.3329  1.8167 -0.4734
 2667TIP3    H229417   4.375   1.260   2.187 -1.0698 -0.4897 -3.8410
 2668TIP3   OH229418   4.681   1.050  16.455 -0.2801  0.4392  0.6786
 2668TIP3    H129419   4.624   1.076  16.527 -1.1644  1.1577 -0.2615
 2668TIP3    H229420   4.625   1.052  16.378  0.6629 -0.2761 -0.0465
 2669TIP3   OH229421   3.297   3.928  17.168  0.3986 -0.1213  0.5461
 2669TIP3    H129422   3.272   3.954  17.079 -0.5387  1.3882  1.2118
 2669TIP3    H229423   3.244   3.851  17.187  1.7998 -1.4710 -0.7647
 2670TIP3   OH229424   0.185   1.981   1.602  0.3594  0.1372  0.5754
 2670TIP3    H129425   0.252   2.032   1.646  0.8517 -0.1029  0.1130
 2670TIP3    H229426   0.132   1.944   1.673  1.6414 -0.9436  1.0127
 2671TIP3   OH229427   0.226   0.695  16.040  0.5081 -0.3331  1.0452
 2671TIP3    H129428   0.159   0.733  15.983  0.0052 -1.0427  1.1440
 2671TIP3    H229429   0.290   0.658  15.979  1.3021  1.1433  0.9467
 2672TIP3   OH229430   3.748   5.264  11.966 -0.8553  0.2372 -0.3798
 2672TIP3    H129431   3.817   5.198  11.960  0.2963  0.8770  3.4243
 2672TIP3    H229432   3.667   5.214  11.956  0.0251 -1.4876  0.6764
 2673TIP3   OH229433   6.582   5.269   3.240  0.6692  0.3184  0.0972
 2673TIP3    H129434   6.531   5.237   3.314  1.3700 -1.9767 -0.3274
 2673TIP3    H229435   6.673   5.253   3.266  0.8999 -2.4812 -1.9595
 2674TIP3   OH229436   1.885   5.040  15.100  0.7367  0.6261 -0.4376
 2674TIP3    H129437   1.862   5.007  15.014  1.6596  1.2328 -0.9310
 2674TIP3    H229438   1.834   4.987  15.161  1.9643 -1.5487 -1.2012
 2675TIP3   OH229439   6.395   2.165  11.618  0.1513 -0.5418  0.1151
 2675TIP3    H129440   6.461   2.204  11.675 -0.5603 -1.2230  1.4468
 2675TIP3    H229441   6.433   2.082  11.591  1.4915  0.7602 -2.3911
 2676TIP3   OH229442   3.126   0.489  16.675  0.2321 -0.3210  0.1141
 2676TIP3    H129443   3.114   0.548  16.749  0.9868  0.0618 -0.0497
 2676TIP3    H229444   3.172   0.542  16.610  1.3916 -1.2152  0.1607
 2677TIP3   OH229445   6.664   2.913   2.909 -0.0968  0.0438  0.0584
 2677TIP3    H129446   6.590   2.906   2.968 -0.1081  0.1120  0.0519
 2677TIP3    H229447   6.730   2.855   2.946 -0.0326  0.2336  0.2452
 2678TIP3   OH229448   3.163   2.525  16.943  0.2268 -0.2660 -0.5939
 2678TIP3    H129449   3.257   2.520  16.930  0.3583 -0.7155  0.3933
 2678TIP3    H229450   3.149   2.487  17.030 -0.9809 -1.3412 -1.2197
 2679TIP3   OH229451   2.468   2.221   3.793 -0.2044  0.5684 -0.0039
 2679TIP3    H129452   2.473   2.165   3.870 -1.0086  1.3114  0.6040
 2679TIP3    H229453   2.447   2.162   3.721  0.1268 -0.0693  0.4183
 2680TIP3   OH229454   1.313   5.773  16.573  0.6552  0.2300  0.5811
 2680TIP3    H129455   1.377   5.777  16.501 -0.9941  1.6099 -0.9217
 2680TIP3    H229456   1.279   5.684  16.570  0.3304  0.3730 -0.6662
 2681TIP3   OH229457   5.659   4.647  12.266 -0.2222 -0.3659  0.3668
 2681TIP3    H129458   5.615   4.571  12.226 -0.5789 -0.1845  0.4133
 2681TIP3    H229459   5.679   4.619  12.355 -0.8404 -0.2211  0.5581
 2682TIP3   OH229460   4.847   1.970   1.369 -0.7216 -0.1838  0.4862
 2682TIP3    H129461   4.904   1.916   1.424  0.2583 -0.0908 -0.4102
 2682TIP3    H229462   4.813   2.037   1.428  0.4606  0.0210  0.9555
 2683TIP3   OH229463   6.579   2.991   0.631 -0.2050  0.1834  0.5317
 2683TIP3    H129464   6.488   3.016   0.645 -0.1384  0.4281  0.5335
 2683TIP3    H229465   6.630   3.066   0.662 -0.0105  0.1688  0.2516
 2684TIP3   OH229466   5.250   1.093   4.711 -0.1833  0.1089 -0.3049
 2684TIP3    H129467   5.269   1.133   4.796  1.2485 -1.0229 -0.0457
 2684TIP3    H229468   5.271   1.161   4.647  0.0808  0.4994  0.1885
 2685TIP3   OH229469   2.184   2.067  16.542 -0.0524 -0.0315 -0.0547
 2685TIP3    H129470   2.254   2.046  16.604  0.2652 -1.9737 -1.0101
 2685TIP3    H229471   2.205   2.016  16.464 -1.7629  0.4679 -0.8928
 2686TIP3   OH229472   5.307   2.247  13.292 -0.0120 -0.1370 -0.5639
 2686TIP3    H129473   5.227   2.291  13.321  0.8619  0.8303  0.4344
 2686TIP3    H229474   5.343   2.208  13.371  1.7995  1.5411 -0.5062
 2687TIP3   OH229475   2.492   5.690   2.421 -0.1401 -0.2605  0.2946
 2687TIP3    H129476   2.441   5.770   2.431 -0.5248 -0.5520  0.7401
 2687TIP3    H229477   2.444   5.625   2.472  0.5238 -0.6151  0.4736
 2688TIP3   OH229478   4.554   1.040  12.723  0.4086 -0.3629  0.3871
 2688TIP3    H129479   4.621   0.993  12.773  0.2046 -0.9981  0.0698
 2688TIP3    H229480   4.557   1.129  12.757  2.4190  0.0092 -0.6149
 2689TIP3   OH229481   5.527   4.303  16.527  0.3213 -0.1240  0.1489
 2689TIP3    H129482   5.488   4.391  16.524 -0.6734 -0.5419  0.2430
 2689TIP3    H229483   5.554   4.292  16.618  1.4240  0.4754 -0.0865
 2690TIP3   OH229484   4.879   2.825   1.500  0.1811  0.3648  0.3826
 2690TIP3    H129485   4.936   2.786   1.435  0.6176  2.4083 -0.5205
 2690TIP3    H229486   4.904   2.917   1.503 -0.3362  0.5153  2.9116
 2691TIP3   OH229487   6.609   3.297   2.563 -0.2145 -0.2679  0.0167
 2691TIP3    H129488   6.600   3.202   2.572 -0.1197 -0.1562  1.5120
 2691TIP3    H229489   6.703   3.311   2.550 -0.3998 -0.4596 -1.9568
 2692TIP3   OH229490   0.542   3.250   4.952  0.1447 -0.1309 -0.0529
 2692TIP3    H129491   0.626   3.292   4.934 -0.8647  1.5628 -1.2007
 2692TIP3    H229492   0.480   3.295   4.893 -1.1639 -2.8608 -0.9331
 2693TIP3   OH229493   4.854   3.868  16.045  0.6152 -0.1685 -0.3497
 2693TIP3    H129494   4.936   3.848  16.000  0.4423 -0.5455 -0.5006
 2693TIP3    H229495   4.875   3.942  16.101  0.9437  0.0382 -0.7356
 2694TIP3   OH229496   6.030   2.282  10.063 -0.1473 -0.2872 -0.0112
 2694TIP3    H129497   6.121   2.265  10.041  0.0228  1.4222 -0.8079
 2694TIP3    H229498   6.034   2.350  10.131 -0.8012  1.5011 -1.6659
 2695TIP3   OH229499   5.768   3.967   3.807  0.4618  0.3198  0.1335
 2695TIP3    H129500   5.683   3.979   3.850  0.9334 -0.1281  1.2260
 2695TIP3    H229501   5.746   3.952   3.715 -1.0306 -4.1446  0.9639
 2696TIP3   OH229502   3.767   4.237  12.153  0.1977 -0.0555 -0.2063
 2696TIP3    H129503   3.770   4.277  12.066  0.7739 -2.4224 -1.3626
 2696TIP3    H229504   3.847   4.184  12.158 -0.1375 -0.4676  1.5324
 2697TIP3   OH229505   1.501   4.120  10.637 -0.1551 -0.2772  0.3892
 2697TIP3    H129506   1.583   4.158  10.604 -1.0136 -0.2393 -1.8714
 2697TIP3    H229507   1.530   4.050  10.696  1.5296 -0.5880 -0.7317
 2698TIP3   OH229508   5.681   4.002  11.228 -0.4225  0.3708  0.7610
 2698TIP3    H129509   5.705   4.059  11.155  0.1386  0.6714  1.1688
 2698TIP3    H229510   5.690   3.913  11.193 -1.0201  0.5150  0.2075
 2699TIP3   OH229511   4.413   5.113  12.751  0.1958  0.2963  0.0184
 2699TIP3    H129512   4.478   5.044  12.764 -0.4771 -0.6331 -1.3424
 2699TIP3    H229513   4.403   5.153  12.838  1.1684 -0.7968  0.6613
 2700TIP3   OH229514   4.474   1.358   3.136 -0.3887 -0.6881  0.3795
 2700TIP3    H129515   4.395   1.341   3.187 -1.4821 -0.1047 -1.0487
 2700TIP3    H229516   4.531   1.283   3.153 -0.6276 -0.4340  2.5483
 2701TIP3   OH229517   1.609   3.184  15.650 -0.5166  0.0482  0.1442
 2701TIP3    H129518   1.529   3.203  15.601 -0.0985 -0.0935 -0.6170
 2701TIP3    H229519   1.656   3.122  15.594  1.0833  1.6788 -0.4065
 2702TIP3   OH229520   6.406   6.677   3.188 -0.0952 -0.1185 -0.3837
 2702TIP3    H129521   6.433   6.728   3.264 -2.0140  1.4654 -0.6662
 2702TIP3    H229522   6.408   6.740   3.116 -0.9915 -0.8734 -1.0877
 2703TIP3   OH229523   4.623   1.237  12.876  0.1608  0.1207  0.3973
 2703TIP3    H129524   4.700   1.288  12.902  0.5779  0.1860 -0.8931
 2703TIP3    H229525   4.550   1.279  12.920  0.5316  1.6960 -0.4296
 2704TIP3   OH229526   5.403   5.618  13.727  0.1929 -0.2333 -0.3105
 2704TIP3    H129527   5.310   5.621  13.749  0.1449 -1.6005 -0.2108
 2704TIP3    H229528   5.446   5.659  13.803 -0.3458  1.1313 -0.7093
 2705TIP3   OH229529   0.022   5.865   5.983 -0.3944  0.0214  0.4690
 2705TIP3    H129530   0.034   5.773   6.009 -0.0106  0.1462  0.7432
 2705TIP3    H229531  -0.063   5.889   6.019  0.3958  0.3800  2.2338
 2706TIP3   OH229532   1.420   6.175   5.400  0.2663  0.7101 -0.3896
 2706TIP3    H129533   1.357   6.238   5.365 -0.5349  0.5463  0.7256
 2706TIP3    H229534   1.385   6.149   5.485  0.4368 -1.4199 -0.8874
 2707TIP3   OH229535   3.415   0.275   4.865  0.3104 -0.0980  0.9417
 2707TIP3    H129536   3.508   0.261   4.883  0.8241  1.5333 -0.1879
 2707TIP3    H229537   3.375   0.279   4.952  1.4688  0.1443  1.4963
 2708TIP3   OH229538   1.249   0.466   4.104  0.0907  0.4517 -0.6227
 2708TIP3    H129539   1.197   0.465   4.184 -1.0401  0.2586 -1.3289
 2708TIP3    H229540   1.194   0.513   4.040  1.0336  0.7468 -1.2423
 2709TIP3   OH229541   5.651   1.682  13.639  0.2883  0.1894 -0.2767
 2709TIP3    H129542   5.678   1.591  13.646  1.8244  0.5815 -0.7400
 2709TIP3    H229543   5.616   1.703  13.726  2.2504 -0.1544  0.6582
 2710TIP3   OH229544   0.401   5.900  17.021 -0.2220 -0.1511 -0.2552
 2710TIP3    H129545   0.387   5.807  17.039  1.8687 -0.3850  0.4899
 2710TIP3    H229546   0.453   5.902  16.941 -0.1865  0.3592 -0.2263
 2711TIP3   OH229547   1.533   1.487   4.490 -0.0828 -0.4011  0.1906
 2711TIP3    H129548   1.621   1.493   4.527  0.8191 -0.5583 -1.7990
 2711TIP3    H229549   1.529   1.558   4.426 -1.4068 -0.4398  0.1923
 2712TIP3   OH229550   5.256   1.834   3.374 -0.6270  0.4705  0.2362
 2712TIP3    H129551   5.334   1.861   3.325  0.5829 -0.4782  1.5464
 2712TIP3    H229552   5.183   1.855   3.316  0.7632 -2.2975 -2.8786
 2713TIP3   OH229553   3.733   3.640   1.235 -0.0302  0.1197  0.1172
 2713TIP3    H129554   3.792   3.647   1.160  0.3700  0.2093  0.4396
 2713TIP3    H229555   3.768   3.567   1.286  2.1350  2.5326  2.3461
 2714TIP3   OH229556   2.006   1.960   5.130  0.8782 -0.8350  0.3922
 2714TIP3    H129557   1.972   1.871   5.137  1.7703 -1.1189  1.5449
 2714TIP3    H229558   1.945   2.014   5.180  0.9903 -1.0091  0.7200
 2715TIP3   OH229559   2.173   4.411  10.803 -0.0251 -0.0617 -0.7250
 2715TIP3    H129560   2.263   4.388  10.782 -0.2674 -1.3172 -0.4964
 2715TIP3    H229561   2.147   4.472  10.735  0.8176 -0.1226 -1.1161
 2716TIP3   OH229562   2.328   2.216   5.784  0.0845  0.5103 -0.3593
 2716TIP3    H129563   2.234   2.198   5.781 -0.0418  0.8543  1.1292
 2716TIP3    H229564   2.364   2.150   5.843  0.6072  1.0476 -0.0636
 2717TIP3   OH229565   6.272   3.485   4.235 -0.1070  0.8163 -0.5024
 2717TIP3    H129566   6.293   3.406   4.284  1.6864  1.0412 -0.8310
 2717TIP3    H229567   6.176   3.491   4.238 -0.2423 -1.0781 -0.0575
 2718TIP3   OH229568   2.616   3.689  11.951 -0.0043  0.3861  0.6355
 2718TIP3    H129569   2.524   3.685  11.926 -0.1202  1.7997  0.7548
 2718TIP3    H229570   2.660   3.729  11.876  1.0362 -2.7207 -0.5888
 2719TIP3   OH229571   2.573   1.629  16.836  0.0919 -0.3325  0.0324
 2719TIP3    H129572   2.635   1.594  16.900 -1.4278 -1.0321  1.1936
 2719TIP3    H229573   2.488   1.626  16.880 -0.8161  0.4464 -1.5476
 2720TIP3   OH229574   6.097   2.040   0.965  0.2402  0.1465 -0.1188
 2720TIP3    H129575   6.064   1.951   0.977 -0.3597  0.1836 -1.3606
 2720TIP3    H229576   6.145   2.038   0.882 -0.1024  1.0579 -0.3613
 2721TIP3   OH229577   4.355   5.382   2.924 -0.0707  0.2760 -0.3122
 2721TIP3    H129578   4.397   5.412   2.843  2.0017 -0.6347  0.3511
 2721TIP3    H229579   4.332   5.291   2.906  2.1653 -0.5578  0.6703
 2722TIP3   OH229580   5.147   4.622   2.782 -0.3158  0.0826 -0.0800
 2722TIP3    H129581   5.189   4.696   2.825 -2.3126  1.5248 -0.5099
 2722TIP3    H229582   5.214   4.588   2.722  1.3305  0.1673  1.6180
 2723TIP3   OH229583   0.394   3.883  16.399 -0.3672 -0.0406  0.5085
 2723TIP3    H129584   0.380   3.911  16.309  0.1966 -0.4359  0.2971
 2723TIP3    H229585   0.488   3.896  16.414  0.9001 -5.4502 -0.8816
 2724TIP3   OH229586   2.180   4.894  16.672 -0.3030  0.3540 -0.1647
 2724TIP3    H129587   2.194   4.822  16.610 -0.7194  0.9000 -0.9171
 2724TIP3    H229588   2.243   4.961  16.644  0.1368  0.2614  0.5781
 2725TIP3   OH229589   2.248   0.314   5.688  0.0639 -0.3226 -0.0477
 2725TIP3    H129590   2.229   0.221   5.673  2.5270 -0.7968 -0.7459
 2725TIP3    H229591   2.217   0.331   5.777  0.5756 -2.1353  0.5232
 2726TIP3   OH229592   6.017   4.512   5.087  0.5398  0.1339 -0.3045
 2726TIP3    H129593   6.045   4.459   5.012  1.4622  0.0764  0.0614
 2726TIP3    H229594   6.069   4.592   5.080  0.9626 -0.0524  0.4997
 2727TIP3   OH229595   5.411   0.017   5.654 -0.0557 -0.2484 -0.0168
 2727TIP3    H129596   5.379   0.107   5.644  0.8602  0.5015  2.9229
 2727TIP3    H229597   5.346  -0.036   5.609 -3.3647  1.5103  2.2826
 2728TIP3   OH229598   6.572   5.921  10.740  1.0027  0.1515 -0.0934
 2728TIP3    H129599   6.590   5.844  10.686  1.8938 -0.0550  0.4785
 2728TIP3    H229600   6.656   5.966  10.747  0.8644  0.2649  0.9886
 2729TIP3   OH229601   5.732   1.737  15.628 -0.0159 -0.1192 -0.0448
 2729TIP3    H129602   5.750   1.677  15.700  0.4888  0.2168  0.1155
 2729TIP3    H229603   5.818   1.773  15.605  0.2132 -1.9163 -2.3462
 2730TIP3   OH229604   1.718   5.283   5.676 -0.0870  0.2788  0.4618
 2730TIP3    H129605   1.658   5.357   5.663 -0.8923 -0.2383  1.0939
 2730TIP3    H229606   1.671   5.208   5.639  0.1773 -0.1312  0.9511
 2731TIP3   OH229607   6.357   5.074  14.809  0.0376  0.3175  0.6191
 2731TIP3    H129608   6.430   5.065  14.870 -0.3229  1.0899  1.1765
 2731TIP3    H229609   6.292   5.011  14.839  0.0582  0.3517  0.7332
 2732TIP3   OH229610   0.401   0.502   4.862  0.2814  0.3508  0.5454
 2732TIP3    H129611   0.448   0.423   4.891  0.1640 -0.1144 -0.4813
 2732TIP3    H229612   0.385   0.487   4.769 -0.4805  1.2268  0.5230
 2733TIP3   OH229613   4.837   5.308   3.931 -0.0812  0.1813  0.1235
 2733TIP3    H129614   4.835   5.386   3.987  2.6555  1.4756 -1.3363
 2733TIP3    H229615   4.898   5.249   3.974  0.6170  0.4153 -0.5076
 2734TIP3   OH229616   3.792   6.322   3.087 -0.2044  0.3694 -0.6680
 2734TIP3    H129617   3.749   6.329   3.002 -0.1555 -0.8258 -0.7971
 2734TIP3    H229618   3.878   6.284   3.067 -0.5647 -0.8457  0.0088
 2735TIP3   OH229619   1.061   5.728   1.313  0.0292 -0.0964  0.4293
 2735TIP3    H129620   0.983   5.746   1.366 -0.7085  0.3160 -0.7499
 2735TIP3    H229621   1.092   5.814   1.285  0.9426 -0.2546  0.9200
 2736TIP3   OH229622   4.615   0.703  14.156 -0.5452 -0.0844 -0.1369
 2736TIP3    H129623   4.543   0.763  14.141  0.8715  1.9967  0.8905
 2736TIP3    H229624   4.694   0.757  14.147  0.8658 -2.0650 -0.3560
 2737TIP3   OH229625   0.252   3.866   2.579  0.7718 -0.2718  0.1186
 2737TIP3    H129626   0.201   3.797   2.537  1.7922 -0.9125 -0.0947
 2737TIP3    H229627   0.312   3.896   2.512  1.6656 -0.5408  0.7772
 2738TIP3   OH229628   6.035   2.581   0.212  0.6066 -0.5029 -0.1586
 2738TIP3    H129629   6.069   2.589   0.302  1.3728  0.0537 -0.4954
 2738TIP3    H229630   6.019   2.670   0.184  2.5106 -0.4946 -1.3789
 2739TIP3   OH229631   3.952   4.779  16.053  0.4135  0.2524  0.0379
 2739TIP3    H129632   3.940   4.862  16.100 -0.2188 -1.0231  2.2932
 2739TIP3    H229633   4.046   4.775  16.036  0.3434  1.8269 -0.9824
 2740TIP3   OH229634   5.408   1.684   5.339 -0.0785  0.0095  0.1136
 2740TIP3    H129635   5.386   1.647   5.424  0.4162 -1.7476 -0.4838
 2740TIP3    H229636   5.491   1.643   5.316 -0.2960  0.3262 -1.3014
 2741TIP3   OH229637   0.317   1.341   0.707  0.2129  0.7073 -0.3802
 2741TIP3    H129638   0.396   1.340   0.761 -0.3921  0.1789  0.5127
 2741TIP3    H229639   0.349   1.323   0.619  0.8765 -1.8153  0.2953
 2742TIP3   OH229640   0.238   0.912   6.181  0.2450 -0.5472  0.1875
 2742TIP3    H129641   0.287   0.970   6.239 -1.2346  0.1601  0.7834
 2742TIP3    H229642   0.284   0.828   6.188  0.2034 -0.4632  2.3025
 2743TIP3   OH229643   2.099   1.914  13.922 -0.0201  0.3536  0.9221
 2743TIP3    H129644   2.183   1.929  13.964  0.1586  0.8330  0.3989
 2743TIP3    H229645   2.095   1.978  13.852 -0.4498 -0.2259  0.4045
 2744TIP3   OH229646   3.920   3.814  11.624 -0.1446  0.0811  0.0510
 2744TIP3    H129647   3.853   3.754  11.591 -1.2550  1.5979 -0.5820
 2744TIP3    H229648   3.936   3.784  11.714 -2.8205  0.5313  0.7932
 2745TIP3   OH229649   0.984   4.982   0.057  0.1781  0.3667  0.6114
 2745TIP3    H129650   0.900   4.958   0.019  0.1401 -0.4376  1.1684
 2745TIP3    H229651   1.024   5.040  -0.007 -1.0469  1.2475  0.5955
 2746TIP3   OH229652   3.687   1.062  15.711 -0.3501  0.9603 -0.0632
 2746TIP3    H129653   3.598   1.028  15.704 -0.2112  0.5899 -0.0422
 2746TIP3    H229654   3.712   1.042  15.802  0.7694 -1.4728 -0.8159
 2747TIP3   OH229655   0.246   1.046   3.181 -0.0653 -0.1927  0.4436
 2747TIP3    H129656   0.188   1.027   3.107  1.3480 -1.2114 -0.4294
 2747TIP3    H229657   0.186   1.067   3.252 -1.5542 -1.6666 -0.2953
 2748TIP3   OH229658   4.924   3.501   5.176  0.1384 -0.1451  0.2263
 2748TIP3    H129659   4.951   3.413   5.201 -0.4172 -0.4101 -0.0891
 2748TIP3    H229660   4.878   3.490   5.093  0.8161  0.5599 -0.2542
 2749TIP3   OH229661   1.186   1.780   4.873 -0.5864 -0.5683  0.0731
 2749TIP3    H129662   1.128   1.783   4.797 -1.1253  1.2266  0.4914
 2749TIP3    H229663   1.265   1.825   4.843  0.2533 -2.1622 -0.1967
 2750TIP3   OH229664   4.983   1.028   3.655 -0.3275  0.3843 -0.1365
 2750TIP3    H129665   5.027   0.987   3.580  1.3647  1.1355  0.4030
 2750TIP3    H229666   4.894   0.993   3.652  0.5925 -2.1601 -0.5885
 2751TIP3   OH229667   4.578   5.142  11.443  0.2009  0.1025 -1.2273
 2751TIP3    H129668   4.589   5.199  11.367  0.7263  0.8769 -0.5885
 2751TIP3    H229669   4.582   5.201  11.518 -1.6370 -0.4686 -0.6244
 2752TIP3   OH229670   2.617   6.563  11.903 -0.2176 -0.1441  0.0491
 2752TIP3    H129671   2.588   6.574  11.994 -0.6504 -2.5117  0.2766
 2752TIP3    H229672   2.536   6.562  11.853 -0.0348  0.3621 -0.2528
 2753TIP3   OH229673   4.072   6.396   2.584 -0.1170 -0.5432  0.0074
 2753TIP3    H129674   4.151   6.415   2.634 -0.6954 -1.8440  1.5355
 2753TIP3    H229675   4.094   6.418   2.494  1.2257  1.2069  0.7149
 2754TIP3   OH229676   3.177   0.235   0.218 -0.0630 -0.2852 -0.3085
 2754TIP3    H129677   3.183   0.227   0.313 -0.2187  1.1467 -0.1622
 2754TIP3    H229678   3.133   0.155   0.190 -0.0097 -0.7260  0.8171
 2755TIP3   OH229679   4.173   6.422  12.848 -0.3244 -0.2099 -0.0814
 2755TIP3    H129680   4.116   6.349  12.872  0.3971 -1.0594 -0.8815
 2755TIP3    H229681   4.217   6.446  12.930 -1.0861 -0.2004  0.3306
 2756TIP3   OH229682   5.188   4.628   5.604  0.3408 -0.4948  0.3032
 2756TIP3    H129683   5.177   4.699   5.668  0.6572  0.7636 -0.9686
 2756TIP3    H229684   5.254   4.571   5.642  2.0876  1.3464  0.2423
 2757TIP3   OH229685   4.841   5.834  17.200 -0.1948  0.0322  0.1916
 2757TIP3    H129686   4.784   5.906  17.227 -0.6470 -0.4823  0.6344
 2757TIP3    H229687   4.930   5.870  17.205 -0.1271 -0.3403  3.5191
 2758TIP3   OH229688   0.497   1.878   5.401 -0.3411  0.1813 -0.2597
 2758TIP3    H129689   0.501   1.820   5.325  1.2591  0.2891 -0.2954
 2758TIP3    H229690   0.510   1.819   5.476 -0.5873  0.2497 -0.1631
 2759TIP3   OH229691   4.216   1.346  15.102 -0.0145  0.0253  0.2769
 2759TIP3    H129692   4.216   1.302  15.018 -1.0288 -0.4802  0.5281
 2759TIP3    H229693   4.222   1.276  15.167 -2.5471  0.1331  0.7080
 2760TIP3   OH229694   0.494   1.831  10.729 -0.4545 -0.4661  0.6129
 2760TIP3    H129695   0.413   1.880  10.740 -0.5468 -0.3327 -0.5698
 2760TIP3    H229696   0.539   1.875  10.656  1.0624 -0.0307  1.7400
 2761TIP3   OH229697   0.844   0.851   3.551  0.7767 -0.2180 -0.3995
 2761TIP3    H129698   0.862   0.944   3.537 -1.3207  0.2843 -0.1482
 2761TIP3    H229699   0.897   0.828   3.627  0.9508  0.9156 -0.1556
 2762TIP3   OH229700   3.793   6.460   1.155  0.2231 -0.1503 -0.5791
 2762TIP3    H129701   3.707   6.484   1.121  0.3753 -0.0148 -0.8712
 2762TIP3    H229702   3.775   6.423   1.242 -0.1461 -0.3237 -0.7302
 2763TIP3   OH229703   6.422   1.330   2.763 -0.0562 -0.4207 -0.1921
 2763TIP3    H129704   6.473   1.411   2.755  0.0707 -0.3145  1.2946
 2763TIP3    H229705   6.392   1.311   2.675  1.3917  0.2900 -0.8732
 2764TIP3   OH229706   0.076   2.562   1.387  0.2257  0.2498  0.3388
 2764TIP3    H129707   0.086   2.488   1.328 -0.6257 -0.8116  1.4760
 2764TIP3    H229708   0.033   2.526   1.464  1.8399  1.4663  1.8927
 2765TIP3   OH229709   4.330   1.728   3.457  0.5084 -0.3587 -0.0785
 2765TIP3    H129710   4.289   1.813   3.441 -0.7024 -0.9284 -0.0890
 2765TIP3    H229711   4.262   1.676   3.500  1.0879 -1.4628 -0.4540
 2766TIP3   OH229712   4.773   3.575  15.179 -0.1859  0.3863 -0.1221
 2766TIP3    H129713   4.720   3.513  15.129 -0.8571  0.5915  0.3069
 2766TIP3    H229714   4.855   3.529  15.197  0.5736  0.7212 -2.3958
 2767TIP3   OH229715   3.567   1.851  15.985 -0.1245 -0.2429  0.3460
 2767TIP3    H129716   3.609   1.934  16.008  1.1761 -0.7378 -0.1798
 2767TIP3    H229717   3.482   1.877  15.949 -0.3836  0.7681  1.5828
 2768TIP3   OH229718   0.938   5.505  15.872  0.5159 -0.2371  0.1628
 2768TIP3    H129719   0.874   5.472  15.809  0.7746 -1.5535  0.5571
 2768TIP3    H229720   1.002   5.551  15.818  0.4751 -0.9301 -0.5064
 2769TIP3   OH229721   1.259   0.062   3.027 -0.4414 -0.6905  0.1242
 2769TIP3    H129722   1.249  -0.028   3.057  0.5794 -1.0769 -0.6271
 2769TIP3    H229723   1.261   0.114   3.107  0.4589 -1.5062  0.6488
 2770TIP3   OH229724   4.309   3.890   1.950  0.0147 -0.3206 -0.0230
 2770TIP3    H129725   4.400   3.868   1.970 -0.2808 -2.7122 -0.9593
 2770TIP3    H229726   4.315   3.951   1.877  0.8844 -1.1516 -0.6770
 2771TIP3   OH229727   2.769   1.259  10.784 -0.1334 -0.0717  0.8650
 2771TIP3    H129728   2.817   1.200  10.727  0.3935  0.2292  0.9926
 2771TIP3    H229729   2.722   1.201  10.844 -1.2195 -0.4167 -0.2628
 2772TIP3   OH229730   4.511   1.620  16.114 -0.2576  0.5741  0.3226
 2772TIP3    H129731   4.456   1.666  16.177 -0.3307  0.8673  0.0525
 2772TIP3    H229732   4.507   1.528  16.140 -0.6926  0.6265  0.4444
 2773TIP3   OH229733   1.669   5.878   0.292  0.3471 -0.4065  0.0388
 2773TIP3    H129734   1.679   5.970   0.319 -2.0293 -0.3861  1.1639
 2773TIP3    H229735   1.627   5.836   0.367  0.3785 -2.1711 -0.8841
 2774TIP3   OH229736   2.658   2.940  12.982 -0.3344 -0.1884 -0.5600
 2774TIP3    H129737   2.705   2.982  13.053 -0.2189  0.0676 -0.7865
 2774TIP3    H229738   2.683   2.989  12.904 -2.3297  1.1337 -0.4637
 2775TIP3   OH229739   0.030   0.682   6.493 -0.3304  0.4738 -0.0805
 2775TIP3    H129740  -0.013   0.597   6.480 -0.3251  0.9485 -5.5424
 2775TIP3    H229741   0.123   0.664   6.485 -0.3765  0.9525 -2.7140
 2776TIP3   OH229742   4.325   4.574   2.229  0.3402 -0.5253  0.0602
 2776TIP3    H129743   4.306   4.665   2.204  1.0522 -0.2552  0.4816
 2776TIP3    H229744   4.357   4.580   2.319  0.8951 -1.1350 -0.0909
 2777TIP3   OH229745   1.390   0.654  12.459  0.1920  0.2784  0.1532
 2777TIP3    H129746   1.307   0.686  12.494 -0.6733  0.0258 -1.5823
 2777TIP3    H229747   1.368   0.616  12.374  1.7354 -1.7407  0.5585
 2778TIP3   OH229748   5.031   0.319   9.785 -0.1628 -0.0140  0.3876
 2778TIP3    H129749   5.035   0.225   9.770 -0.6974  0.0971 -0.5269
 2778TIP3    H229750   4.999   0.328   9.875  2.7319 -0.7124  1.6177
 2779TIP3   OH229751   0.496   4.955  15.892 -0.4860 -0.0420 -0.2548
 2779TIP3    H129752   0.496   4.878  15.835  2.3035 -0.0423 -0.4019
 2779TIP3    H229753   0.557   5.016  15.850  1.7442 -0.0529  2.5911
 2780TIP3   OH229754   5.949   5.179  12.145 -0.1408  0.1120  0.1124
 2780TIP3    H129755   5.989   5.115  12.086 -0.4359  2.3623 -2.7504
 2780TIP3    H229756   6.021   5.238  12.168 -0.3776  0.1415  0.8041
 2781TIP3   OH229757   0.700   6.587  14.068  0.0525  0.2362 -0.2339
 2781TIP3    H129758   0.620   6.554  14.027  0.5082 -0.5191 -0.5311
 2781TIP3    H229759   0.683   6.581  14.162 -0.1405 -0.1761 -0.2940
 2782TIP3   OH229760   3.796   0.851   0.547  0.4011  0.2750  0.0148
 2782TIP3    H129761   3.801   0.940   0.582  0.0531  0.0117  0.7528
 2782TIP3    H229762   3.788   0.795   0.625 -1.6069 -0.2336 -0.5176
 2783TIP3   OH229763   4.325   3.422  13.754  0.2889 -0.4896 -0.0749
 2783TIP3    H129764   4.405   3.403  13.804  0.9261 -1.1277 -1.2870
 2783TIP3    H229765   4.331   3.515  13.734  0.0812 -0.2490  0.9057
 2784TIP3   OH229766   2.675   6.137   4.988  0.7730  0.1950  0.0026
 2784TIP3    H129767   2.693   6.136   5.082 -0.1756  1.2761  0.2246
 2784TIP3    H229768   2.624   6.217   4.975 -1.0959 -1.1042 -1.0555
 2785TIP3   OH229769   3.168   1.894   2.392  0.5430  0.5091 -0.1530
 2785TIP3    H129770   3.167   1.986   2.363 -0.6234  1.4013  2.3598
 2785TIP3    H229771   3.077   1.877   2.419  1.1894 -0.6229  1.5038
 2786TIP3   OH229772   5.757   2.903  17.044  0.0760 -0.1535 -0.6211
 2786TIP3    H129773   5.714   2.944  17.118  1.4033 -1.1417  0.7575
 2786TIP3    H229774   5.723   2.814  17.042  1.1731 -0.6022 -0.2077
 2787TIP3   OH229775   4.173   2.146  12.762  0.6506  0.5516  0.3908
 2787TIP3    H129776   4.177   2.141  12.858 -0.5501  2.2353  0.5714
 2787TIP3    H229777   4.265   2.147  12.734  1.0779  1.9256  1.6900
 2788TIP3   OH229778   6.381   4.367  11.260  0.4047 -0.1277 -0.7927
 2788TIP3    H129779   6.405   4.364  11.167 -1.5139  1.4689 -1.4092
 2788TIP3    H229780   6.359   4.459  11.276  0.4641 -0.4174  1.2032
 2789TIP3   OH229781   4.359   6.581   4.323  0.0574  0.2367  0.0390
 2789TIP3    H129782   4.422   6.515   4.295 -0.9380 -0.6810 -0.1029
 2789TIP3    H229783   4.342   6.632   4.243 -0.4075 -0.3931 -0.2768
 2790TIP3   OH229784   2.790   5.208   4.833  0.4335 -0.8678  0.4016
 2790TIP3    H129785   2.749   5.176   4.752  2.6442 -0.9230 -0.7816
 2790TIP3    H229786   2.881   5.179   4.826  1.2316  1.1144  1.8591
 2791TIP3   OH229787   1.970   5.508  15.187  0.4472  0.4698 -0.5601
 2791TIP3    H129788   2.050   5.471  15.150  0.5857 -0.4526  0.6105
 2791TIP3    H229789   1.985   5.603  15.187  1.2357  0.3514 -1.0295
 2792TIP3   OH229790   6.237   3.068  13.535  0.3319  0.3247 -0.1144
 2792TIP3    H129791   6.165   3.005  13.536  1.5895 -1.1649  0.4920
 2792TIP3    H229792   6.213   3.131  13.466 -0.2345 -1.7074 -1.8966
 2793TIP3   OH229793   1.724   1.944  12.953 -0.0049 -0.2251  0.0437
 2793TIP3    H129794   1.790   1.943  12.883  0.2450  0.7380  0.2484
 2793TIP3    H229795   1.641   1.957  12.907  0.1128  0.0150 -0.1025
 2794TIP3   OH229796   4.564   2.256   0.278 -0.3564 -0.7048 -0.2776
 2794TIP3    H129797   4.636   2.255   0.342 -0.5677 -0.6877 -0.0339
 2794TIP3    H229798   4.542   2.164   0.265 -1.9054 -0.6529  1.5207
 2795TIP3   OH229799   0.075   4.553   3.599 -0.4728 -0.0760  0.0356
 2795TIP3    H129800   0.153   4.580   3.647 -0.8122 -1.4408  1.4519
 2795TIP3    H229801   0.066   4.460   3.620 -2.1522 -0.0773 -0.5635
 2796TIP3   OH229802   2.390   4.644   3.123  0.6201  0.1177  0.7495
 2796TIP3    H129803   2.301   4.629   3.156  0.3607  0.3028  0.1490
 2796TIP3    H229804   2.445   4.586   3.176  0.1758  0.1812  1.2920
 2797TIP3   OH229805   6.391   5.805   3.338 -0.0468  0.1216  0.1509
 2797TIP3    H129806   6.411   5.884   3.288 -0.1667 -0.8084 -1.4277
 2797TIP3    H229807   6.447   5.738   3.300  1.8818 -0.0722  3.0966
 2798TIP3   OH229808   5.234   2.491   0.905 -0.8585  0.7235  0.1886
 2798TIP3    H129809   5.260   2.487   0.997 -0.0342 -1.0888 -0.0792
 2798TIP3    H229810   5.153   2.440   0.900 -0.9867  0.9490 -0.0584
 2799TIP3   OH229811   2.746   1.947   5.153  0.4360  0.7482  0.1366
 2799TIP3    H129812   2.838   1.943   5.176  0.3740  0.2156  0.3097
 2799TIP3    H229813   2.730   1.866   5.104  0.0041  0.7078  0.3389
 2800TIP3   OH229814   4.442   6.071  16.218 -0.7514  0.4235  0.2756
 2800TIP3    H129815   4.536   6.081  16.225 -0.5849 -0.9068  0.3194
 2800TIP3    H229816   4.422   6.089  16.126 -0.1077 -1.4424 -0.2863
 2801TIP3   OH229817   3.410   1.222  13.970 -0.9241 -0.2508 -0.2598
 2801TIP3    H129818   3.396   1.198  13.878  1.0896 -0.7557 -0.4846
 2801TIP3    H229819   3.485   1.169  13.998  1.0936  2.6887  0.4615
 2802TIP3   OH229820   0.944   2.825  16.960  0.1269 -0.3017 -0.3280
 2802TIP3    H129821   0.986   2.881  16.895  0.0321  1.5235  1.0940
 2802TIP3    H229822   0.856   2.810  16.925 -0.6467  2.3781  0.2343
 2803TIP3   OH229823   6.260   3.497  11.830 -0.1775  0.7317  0.0950
 2803TIP3    H129824   6.281   3.589  11.847 -0.4447  0.9107 -0.5011
 2803TIP3    H229825   6.195   3.474  11.897 -0.6627  1.1988 -0.2047
 2804TIP3   OH229826   6.234   2.319  11.465  0.0034  0.1226 -0.5540
 2804TIP3    H129827   6.324   2.350  11.467  0.5275 -1.1362 -2.4438
 2804TIP3    H229828   6.238   2.231  11.504 -1.1779  1.4974  3.1612
 2805TIP3   OH229829   4.865   3.288   0.049 -0.2103  0.1289  0.3420
 2805TIP3    H129830   4.871   3.193   0.039 -1.3473  0.0643  0.1475
 2805TIP3    H229831   4.781   3.312   0.010  0.5426  1.3731 -0.6174
 2806TIP3   OH229832   1.236   1.999  14.006 -0.3321  0.1657  0.1091
 2806TIP3    H129833   1.320   1.997  13.959 -0.2158 -0.1358  0.3271
 2806TIP3    H229834   1.222   2.091  14.025 -0.8569  0.4079 -1.3675
 2807TIP3   OH229835   5.880   0.279  15.910  0.0123  0.2799 -0.9768
 2807TIP3    H129836   5.836   0.306  15.990  0.8256  1.0646 -0.7737
 2807TIP3    H229837   5.970   0.312  15.920  0.5811 -1.0703 -1.4740
 2808TIP3   OH229838   4.202   1.429   5.198 -0.3033  0.2564  0.1383
 2808TIP3    H129839   4.123   1.381   5.219  0.7944 -1.7280 -0.0359
 2808TIP3    H229840   4.248   1.374   5.134  1.1741  1.3771  0.1618
 2809TIP3   OH229841   5.809   5.793  13.680  0.8094  0.1946  0.1149
 2809TIP3    H129842   5.891   5.831  13.710  0.8747  0.1466 -0.0008
 2809TIP3    H229843   5.823   5.698  13.685  0.2834  0.1656  1.4134
 2810TIP3   OH229844   2.071   5.933  12.750 -0.1334  0.2754 -0.1388
 2810TIP3    H129845   1.980   5.908  12.738 -0.3909  0.1545  1.7643
 2810TIP3    H229846   2.097   5.890  12.832  1.0434  1.8502  0.3669
 2811TIP3   OH229847   2.832   1.503  16.600 -0.6020 -0.6462 -0.1482
 2811TIP3    H129848   2.840   1.517  16.694  0.3494  0.4643 -0.3676
 2811TIP3    H229849   2.922   1.497  16.569 -0.9070 -1.0817 -0.9835
 2812TIP3   OH229850   5.099   0.180  11.493  0.0574 -0.0806  0.3060
 2812TIP3    H129851   5.016   0.187  11.540 -0.1020 -0.3686  0.0698
 2812TIP3    H229852   5.092   0.098  11.444  0.8106 -0.5333  0.9293
 2813TIP3   OH229853   4.961   0.588   5.257 -0.6770 -0.4781 -0.2198
 2813TIP3    H129854   4.902   0.641   5.203 -0.2432  0.2406  0.0045
 2813TIP3    H229855   5.049   0.612   5.228 -0.3018  1.8438  2.4761
 2814TIP3   OH229856   0.202   2.278   2.438  0.2224  0.3707 -0.4903
 2814TIP3    H129857   0.142   2.352   2.428  0.0226  0.4947  1.2651
 2814TIP3    H229858   0.287   2.311   2.407 -0.4253  0.4324 -2.2937
 2815TIP3   OH229859   1.492   4.993  16.667  0.5094 -0.3219 -0.3750
 2815TIP3    H129860   1.544   4.994  16.747  1.2273 -1.3852 -0.8012
 2815TIP3    H229861   1.485   5.085  16.642  2.4667 -0.1428 -0.4515
 2816TIP3   OH229862   2.541   6.715  16.145  0.1314  0.0520 -0.0089
 2816TIP3    H129863   2.505   6.754  16.066 -0.5764  0.2613  0.4099
 2816TIP3    H229864   2.630   6.749  16.150  0.5598 -0.8219 -1.2825
 2817TIP3   OH229865   5.402   5.683   0.470  0.3544  0.1160  0.0462
 2817TIP3    H129866   5.477   5.739   0.493  0.4895 -0.3420  0.7423
 2817TIP3    H229867   5.441   5.606   0.430  0.2433 -0.0123  0.1835
 2818TIP3   OH229868   6.038   2.433   3.314  0.2105  0.2082  0.0423
 2818TIP3    H129869   6.104   2.502   3.312  1.2768 -0.8046 -0.3586
 2818TIP3    H229870   6.064   2.372   3.246 -0.1081 -1.1543  1.0917
 2819TIP3   OH229871   4.273   0.371  13.748  0.3858 -0.0170  0.1984
 2819TIP3    H129872   4.319   0.373  13.832 -0.2794 -0.3762  0.5741
 2819TIP3    H229873   4.203   0.307  13.760  0.5758 -0.4291 -0.7883
 2820TIP3   OH229874   5.003   5.137  12.509  0.2568 -0.3732  0.1698
 2820TIP3    H129875   5.047   5.105  12.431  0.2261 -0.0015  0.0015
 2820TIP3    H229876   4.990   5.230  12.494  1.0934 -0.0982  1.0178
 2821TIP3   OH229877   5.746   0.354  15.693 -0.4542 -0.3726  0.4689
 2821TIP3    H129878   5.789   0.326  15.774 -0.2618  0.8084  0.7949
 2821TIP3    H229879   5.653   0.337  15.709 -0.6245  1.3412  1.6239
 2822TIP3   OH229880   6.070   1.683  11.176 -0.3620  0.0507  0.6342
 2822TIP3    H129881   6.154   1.704  11.216  0.1344  1.5477 -1.0543
 2822TIP3    H229882   6.092   1.633  11.098 -1.0864 -0.1551  0.5520
 2823TIP3   OH229883   4.646   1.867  11.890 -0.9276 -0.6185  0.3155
 2823TIP3    H129884   4.658   1.959  11.912 -0.3201 -1.1301  2.4373
 2823TIP3    H229885   4.552   1.857  11.878 -1.1027  0.1193  0.9955
 2824TIP3   OH229886   2.421   4.063  15.361 -0.1314 -0.3535  0.2082
 2824TIP3    H129887   2.458   3.998  15.422 -0.9734 -0.9037  0.1545
 2824TIP3    H229888   2.494   4.090  15.307  0.7413  0.4632  1.7352
 2825TIP3   OH229889   1.260   2.482  15.928 -0.0870 -0.0557  0.4264
 2825TIP3    H129890   1.296   2.423  15.994 -2.0125 -2.3396 -0.4112
 2825TIP3    H229891   1.246   2.564  15.974  2.2206 -0.3569  1.7973
 2826TIP3   OH229892   1.054   6.491  14.476  0.3424 -0.1950 -0.1237
 2826TIP3    H129893   1.093   6.407  14.452  0.8239 -0.0842  0.2502
 2826TIP3    H229894   0.981   6.467  14.535  1.1138 -0.3124  0.8144
 2827TIP3   OH229895   6.769   0.429   3.080  0.2590 -0.0167 -0.1637
 2827TIP3    H129896   6.851   0.448   3.127  1.9162 -0.8104 -2.5184
 2827TIP3    H229897   6.786   0.458   2.990 -1.0396 -2.5587 -1.3397
 2828TIP3   OH229898   5.940   6.632  16.865  0.0868  0.1275 -0.3799
 2828TIP3    H129899   5.978   6.564  16.811 -1.3050 -1.2869  0.3392
 2828TIP3    H229900   5.852   6.600  16.886 -0.1808  1.5999  0.9550
 2829TIP3   OH229901   3.533   3.929   4.188  0.5748  0.7649 -0.4154
 2829TIP3    H129902   3.507   3.890   4.272 -0.1212  1.1359 -0.4449
 2829TIP3    H229903   3.553   3.854   4.132  0.4401  0.4893 -0.1005
 2830TIP3   OH229904   2.714   4.402   1.853  0.2322  0.1668  0.5624
 2830TIP3    H129905   2.800   4.366   1.874  1.0160  1.7582  0.2479
 2830TIP3    H229906   2.672   4.335   1.799  1.9041 -0.0065 -0.5948
 2831TIP3   OH229907   0.911   5.211  11.132  0.2668 -0.1936  0.2543
 2831TIP3    H129908   0.922   5.117  11.141 -1.1208 -0.2747  1.5048
 2831TIP3    H229909   0.896   5.224  11.038 -0.3431 -1.3316  0.1716
 2832TIP3   OH229910   2.474   5.151  14.041  0.1462  0.4369 -0.5980
 2832TIP3    H129911   2.469   5.144  13.946  3.0938  0.6232 -0.8467
 2832TIP3    H229912   2.542   5.217  14.057  1.3351 -1.1809  1.5955
 2833TIP3   OH229913   5.033   4.781   1.229  0.0384  0.0850 -0.0962
 2833TIP3    H129914   5.061   4.800   1.318 -0.9735  0.6324  0.1202
 2833TIP3    H229915   5.061   4.691   1.213 -1.1332 -0.5759  1.3389
 2834TIP3   OH229916   4.920   2.340  13.822 -0.4740  0.1489  0.0661
 2834TIP3    H129917   4.913   2.420  13.770 -3.0321  0.5300  0.8722
 2834TIP3    H229918   4.925   2.270  13.757 -1.1883  0.7735 -0.6871
 2835TIP3   OH229919   2.527   3.138  14.453  0.5481 -0.6569 -0.4776
 2835TIP3    H129920   2.514   3.226  14.417  0.2531 -0.1579  0.8093
 2835TIP3    H229921   2.503   3.079  14.381 -1.2165  0.3017 -0.7152
 2836TIP3   OH229922   0.626   4.879  15.098  0.3063 -0.1843  0.0180
 2836TIP3    H129923   0.641   4.813  15.166  1.4573 -0.2501 -0.2871
 2836TIP3    H229924   0.635   4.831  15.016  0.0271  0.1255 -0.1952
 2837TIP3   OH229925   3.345   2.372   1.019  0.0829  0.3495 -0.2168
 2837TIP3    H129926   3.380   2.435   1.081 -2.6451  0.7692  1.0575
 2837TIP3    H229927   3.324   2.295   1.072 -1.8912  0.5517 -0.6323
 2838TIP3   OH229928   3.961   6.665   2.674  0.1003 -0.3293 -0.1566
 2838TIP3    H129929   4.004   6.607   2.737 -0.4300  0.2818  0.7754
 2838TIP3    H229930   3.931   6.739   2.726  1.3208  1.1186 -1.4176
 2839TIP3   OH229931   1.480   4.312   2.545  0.0582 -0.6451  0.2200
 2839TIP3    H129932   1.568   4.324   2.509  1.0805 -0.2294  2.6294
 2839TIP3    H229933   1.485   4.228   2.590 -0.4407 -0.1386  1.2403
 2840TIP3   OH229934   2.019   2.989   0.829 -0.1926 -0.0458 -0.1755
 2840TIP3    H129935   2.071   3.011   0.906  0.7451 -1.5996 -0.3197
 2840TIP3    H229936   1.946   3.050   0.831 -0.2749 -0.1427  2.0381
 2841TIP3   OH229937   5.167   0.185   1.958  0.3359 -0.1985 -0.4371
 2841TIP3    H129938   5.169   0.134   2.039  1.0032 -1.9612 -1.5179
 2841TIP3    H229939   5.177   0.276   1.987 -2.1821 -0.4429  1.6602
 2842TIP3   OH229940   4.544   4.137   5.401 -0.5300  0.7662  0.8327
 2842TIP3    H129941   4.629   4.118   5.441  0.7190 -1.8635 -2.5581
 2842TIP3    H229942   4.543   4.085   5.321 -3.6242  3.9224 -1.4982
 2843TIP3   OH229943   6.680   5.438  15.153  0.1357  0.1885  0.0356
 2843TIP3    H129944   6.683   5.494  15.230 -1.6813  0.6790 -0.2029
 2843TIP3    H229945   6.769   5.403  15.145  0.4257  0.2913  2.2046
 2844TIP3   OH229946   1.530   0.617   4.791  0.2278 -0.2630 -0.1102
 2844TIP3    H129947   1.621   0.591   4.808 -0.0372 -1.6076 -0.6678
 2844TIP3    H229948   1.486   0.607   4.876  0.3537 -0.6621 -0.0928
 2845TIP3   OH229949   6.311   6.322  14.453  0.3406 -0.6467 -0.4065
 2845TIP3    H129950   6.322   6.417  14.463  1.1787 -0.7353 -0.3585
 2845TIP3    H229951   6.217   6.307  14.462  0.1840  0.1958 -0.5461
 2846TIP3   OH229952   6.227   5.631   5.481 -0.2007 -0.0653 -0.3634
 2846TIP3    H129953   6.225   5.676   5.565 -1.6214  1.3606 -1.1068
 2846TIP3    H229954   6.298   5.567   5.489  2.2417  2.5768  0.6233
 2847TIP3   OH229955   6.665   3.983   4.231 -0.1153  0.6782 -0.5017
 2847TIP3    H129956   6.635   3.943   4.149  1.0432  1.7561 -1.4831
 2847TIP3    H229957   6.664   4.077   4.213  0.5879  0.9037  0.5738
 2848TIP3   OH229958   2.633   5.545  10.625 -0.3708 -0.1050 -0.8590
 2848TIP3    H129959   2.700   5.488  10.587  1.8470  0.5943  1.6733
 2848TIP3    H229960   2.651   5.632  10.589  1.7583  0.5664  1.5007
 2849TIP3   OH229961   2.178   3.810  14.912 -0.2175  0.7048  0.3626
 2849TIP3    H129962   2.217   3.851  14.989 -0.7926 -0.2768  1.1955
 2849TIP3    H229963   2.146   3.726  14.943  1.5158 -0.7340 -1.4222
 2850TIP3   OH229964   1.155   5.180   5.812  0.3001 -0.4720 -0.0479
 2850TIP3    H129965   1.185   5.160   5.900 -0.2872 -0.7548  0.0914
 2850TIP3    H229966   1.115   5.099   5.781 -1.7110  0.3034  0.3646
 2851TIP3   OH229967   1.055   5.774  11.051  0.2144  0.1744 -0.5963
 2851TIP3    H129968   1.052   5.802  10.960  1.4712 -1.5792 -1.2058
 2851TIP3    H229969   1.081   5.682  11.049  0.4595  0.1252  1.5380
 2852TIP3   OH229970   6.281   4.439   3.101 -0.6451  0.5255 -0.4568
 2852TIP3    H129971   6.362   4.395   3.075 -0.9163  0.8896 -1.9997
 2852TIP3    H229972   6.217   4.415   3.034 -2.3451 -1.1381  1.6246
 2853TIP3   OH229973   5.250   6.563  12.145  0.6152 -0.0704  0.1850
 2853TIP3    H129974   5.222   6.565  12.237 -1.1357  1.7455 -0.3025
 2853TIP3    H229975   5.170   6.543  12.097  1.4722 -0.7853 -0.9693
 2854TIP3   OH229976   1.619   3.411  11.270 -0.7377  0.0166 -0.1370
 2854TIP3    H129977   1.538   3.448  11.233  0.5354  3.8967  0.4308
 2854TIP3    H229978   1.599   3.401  11.363 -0.8747 -0.0253 -0.1700
 2855TIP3   OH229979   3.615   5.998   2.735 -0.2010  0.0762  0.0955
 2855TIP3    H129980   3.554   6.001   2.661  2.4777  0.4752 -2.2858
 2855TIP3    H229981   3.695   6.039   2.701  1.5349 -0.7421  2.9015
 2856TIP3   OH229982   4.172   1.527  15.303  0.3098 -0.2121 -0.3056
 2856TIP3    H129983   4.185   1.480  15.220  1.8354 -0.4896  0.0460
 2856TIP3    H229984   4.177   1.459  15.370  3.4431  0.4255  0.2802
 2857TIP3   OH229985   2.228   1.612   0.080 -0.0401  0.2652 -0.7842
 2857TIP3    H129986   2.249   1.705   0.092 -0.2088  0.0537  1.6423
 2857TIP3    H229987   2.143   1.612   0.036 -0.4949  1.2962  0.0427
 2858TIP3   OH229988   3.822   2.324  14.239 -0.0851 -0.1113 -0.6699
 2858TIP3    H129989   3.841   2.254  14.301  0.4665  0.5908 -0.0386
 2858TIP3    H229990   3.896   2.384  14.245  0.0348 -0.0633 -2.0796
 2859TIP3   OH229991   4.662   1.071   3.704 -0.6404 -0.5088  0.6157
 2859TIP3    H129992   4.696   1.110   3.624  0.4332 -1.2940  0.6616
 2859TIP3    H229993   4.597   1.133   3.736  0.0054  0.5469 -0.0625
 2860TIP3   OH229994   6.526   1.724   3.969  0.0242 -0.5786 -0.2936
 2860TIP3    H129995   6.536   1.693   4.060 -1.6115 -1.0782 -0.2504
 2860TIP3    H229996   6.551   1.816   3.972  1.8227 -1.0377  0.2551
 2861TIP3   OH229997   6.157   6.458  12.123 -0.3790  0.0470 -0.2204
 2861TIP3    H129998   6.081   6.425  12.170  0.8975 -3.2980 -0.2549
 2861TIP3    H229999   6.124   6.479  12.036 -1.1937 -2.0315 -0.4568
 2862TIP3   OH230000   3.773   2.876  13.586  0.6009  0.0418  0.3234
 2862TIP3    H130001   3.858   2.842  13.558  0.6457 -0.2163  0.7657
 2862TIP3    H230002   3.795   2.942  13.652  0.4324 -0.5268  0.9532
 2863TIP3   OH230003   4.984   6.212   2.359  0.0197 -0.5290  0.5592
 2863TIP3    H130004   5.036   6.292   2.363  2.0408 -1.6214 -1.4356
 2863TIP3    H230005   4.939   6.208   2.444  0.7728  2.0642  1.1628
 2864TIP3   OH230006   3.701   2.146  15.229 -0.1002 -0.5604  0.2533
 2864TIP3    H130007   3.607   2.162  15.241 -0.1413 -1.3347  1.0683
 2864TIP3    H230008   3.709   2.051  15.231  0.6294 -0.5160 -0.4425
 2865TIP3   OH230009   1.063   2.733  15.811 -0.3106 -0.3567  0.0789
 2865TIP3    H130010   1.007   2.731  15.733  1.6558 -0.4094 -1.4114
 2865TIP3    H230011   1.037   2.656  15.861 -1.1844 -0.6874 -0.8488
 2866TIP3   OH230012   2.686   2.011   0.572  0.2331 -0.0317 -0.4073
 2866TIP3    H130013   2.718   2.071   0.505 -0.5324  1.8362  0.8330
 2866TIP3    H230014   2.763   1.991   0.625 -0.0413  2.4002  1.0274
 2867TIP3   OH230015   6.338   2.529  13.625 -1.1160 -0.0345 -0.0435
 2867TIP3    H130016   6.356   2.618  13.595 -1.3859  0.4106  1.0443
 2867TIP3    H230017   6.328   2.478  13.545 -1.0293  0.9255 -0.6857
 2868TIP3   OH230018   6.270   0.460   3.048 -0.5065  0.0282  0.1698
 2868TIP3    H130019   6.249   0.486   3.137 -0.7084 -0.5826  0.3062
 2868TIP3    H230020   6.359   0.494   3.034 -0.4041 -0.0232  0.6639
 2869TIP3   OH230021   1.972   4.749  12.158  0.5309 -0.0459  0.0178
 2869TIP3    H130022   1.962   4.694  12.235  0.8287 -0.3670 -0.1671
 2869TIP3    H230023   2.066   4.770  12.156  0.2188  1.5210  0.7920
 2870TIP3   OH230024   6.493   4.596   5.747  0.0727 -0.4112  0.5733
 2870TIP3    H130025   6.472   4.615   5.838  0.0425  0.6475  0.3519
 2870TIP3    H230026   6.557   4.663   5.722 -0.4159 -0.2750 -0.3736
 2871TIP3   OH230027   2.886   5.664   5.801 -0.5770  0.5152  0.1726
 2871TIP3    H130028   2.859   5.681   5.711 -1.0368  0.8120  0.3632
 2871TIP3    H230029   2.912   5.750   5.835  1.5515  0.1242 -0.2909
 2872TIP3   OH230030   1.327   5.128  12.289  0.2303  0.6171  0.0630
 2872TIP3    H130031   1.409   5.117  12.337 -0.6910 -1.0043  1.3782
 2872TIP3    H230032   1.336   5.073  12.212  1.0244  1.8284 -0.7418
 2873TIP3   OH230033   2.161   0.097   6.139  0.4005 -0.2922  0.5042
 2873TIP3    H130034   2.238   0.073   6.191  0.4757 -0.3167  0.3809
 2873TIP3    H230035   2.148   0.190   6.157 -0.2295 -0.5398  1.4344
 2874TIP3   OH230036   0.667   4.815   6.108  0.3012  0.3071 -0.3042
 2874TIP3    H130037   0.762   4.825   6.094  0.2190 -0.9187 -2.0297
 2874TIP3    H230038   0.660   4.774   6.194  1.1278  3.3108  1.3414
 2875TIP3   OH230039   1.439   6.251   5.758 -0.3315 -0.5367 -0.1877
 2875TIP3    H130040   1.481   6.169   5.729 -0.8735 -0.7621 -0.3419
 2875TIP3    H230041   1.409   6.232   5.847  0.5087 -0.1454  0.1911
 2876TIP3   OH230042   1.588   5.061   1.954 -0.3552 -0.0374 -0.0388
 2876TIP3    H130043   1.511   5.009   1.931 -0.3498 -0.2611  0.4250
 2876TIP3    H230044   1.661   5.001   1.944 -0.1295  0.4230 -1.3359
 2877TIP3   OH230045   0.578   2.490  16.065 -0.4004 -1.2141 -0.8337
 2877TIP3    H130046   0.551   2.581  16.052  1.0400 -0.5597  0.3416
 2877TIP3    H230047   0.508   2.451  16.117 -0.7585 -0.6065 -0.8528
 2878TIP3   OH230048   4.097   3.498  16.431 -0.0466  0.4235 -0.3755
 2878TIP3    H130049   4.043   3.570  16.399 -0.4163 -0.0237 -0.7753
 2878TIP3    H230050   4.056   3.419  16.395  0.7765  0.0662 -0.5710
 2879TIP3   OH230051   5.568   1.257  15.348 -0.0500  0.2788 -0.2076
 2879TIP3    H130052   5.510   1.218  15.282 -0.0116  2.5737 -1.7049
 2879TIP3    H230053   5.534   1.346  15.360  1.9058  0.9917  0.4466
 2880TIP3   OH230054   4.250   6.602   2.211 -0.5119  0.6218 -0.3267
 2880TIP3    H130055   4.305   6.604   2.133 -3.4805 -0.4546 -2.6739
 2880TIP3    H230056   4.170   6.648   2.185 -1.6275  0.2361  2.1047
 2881TIP3   OH230057   4.429   6.043   5.403 -0.2351 -0.4928  0.4691
 2881TIP3    H130058   4.361   5.976   5.394  0.2256 -0.8025 -1.0457
 2881TIP3    H230059   4.396   6.117   5.352 -0.3796  0.1644  1.4881
 2882TIP3   OH230060   5.705   6.401  13.015 -0.2739 -0.8732 -0.2094
 2882TIP3    H130061   5.791   6.372  12.984 -0.4049 -0.4900 -0.9325
 2882TIP3    H230062   5.679   6.470  12.954 -1.2516 -1.2241 -0.2030
 2883TIP3   OH230063   2.934   3.635  13.497 -0.1231  0.6229 -0.8336
 2883TIP3    H130064   2.989   3.680  13.562 -0.9370  2.1187 -1.1220
 2883TIP3    H230065   2.845   3.646  13.530 -0.4496  0.4199 -1.6306
 2884TIP3   OH230066   4.176   6.064   5.582 -0.0190  0.2008 -0.3803
 2884TIP3    H130067   4.092   6.075   5.628  0.7798 -2.9731  2.1857
 2884TIP3    H230068   4.151   6.045   5.491 -1.9318  1.4659 -0.1780
 2885TIP3   OH230069   2.757   3.779   3.095  0.5462  0.2911 -0.3344
 2885TIP3    H130070   2.836   3.830   3.076  1.3996 -0.8651 -0.0119
 2885TIP3    H230071   2.700   3.840   3.142  1.3287  1.0923 -0.3957
 2886TIP3   OH230072   0.961   6.593  11.690 -0.4324 -0.0285  0.2729
 2886TIP3    H130073   0.960   6.555  11.777  1.5930 -0.4939  0.1332
 2886TIP3    H230074   0.888   6.655  11.690 -1.7124 -1.4600  1.6097
 2887TIP3   OH230075   1.845   0.655  11.957 -0.1364 -0.4976 -0.0467
 2887TIP3    H130076   1.841   0.648  11.862 -0.8317 -1.0992  0.0217
 2887TIP3    H230077   1.922   0.709  11.974 -1.2329  1.4949 -1.0299
 2888TIP3   OH230078   5.179   3.194   1.027 -0.1283  0.1378 -0.5117
 2888TIP3    H130079   5.189   3.119   1.085  0.1738  0.6120  0.0493
 2888TIP3    H230080   5.264   3.204   0.985 -0.1407  0.2229 -0.5175
 2889TIP3   OH230081   0.452   4.081  13.022 -0.3841 -0.0348 -0.3560
 2889TIP3    H130082   0.533   4.039  13.052 -0.1632  0.4526 -0.2577
 2889TIP3    H230083   0.473   4.113  12.934 -0.4373  0.1830 -0.2884
 2890TIP3   OH230084   6.719   2.771   1.817 -0.1295 -0.5339 -0.1257
 2890TIP3    H130085   6.766   2.688   1.821 -0.3238 -0.6913 -0.8787
 2890TIP3    H230086   6.780   2.830   1.772  0.0401 -0.2419  0.4807
 2891TIP3   OH230087   5.040   6.506   0.723 -0.2955  0.0321 -0.5273
 2891TIP3    H130088   5.027   6.583   0.667  0.6034  1.0054  0.5649
 2891TIP3    H230089   5.019   6.536   0.811  4.2149  0.3588  0.6342
 2892TIP3   OH230090   2.628   2.286  11.591  0.8258 -0.6989 -0.0352
 2892TIP3    H130091   2.648   2.216  11.529  1.2604 -1.2488  0.7081
 2892TIP3    H230092   2.713   2.318  11.620  0.6280 -0.0217 -0.1874
 2893TIP3   OH230093   1.205   4.060   4.495 -0.0090 -0.1025 -0.4098
 2893TIP3    H130094   1.272   4.071   4.561  0.0227 -0.2093 -0.4239
 2893TIP3    H230095   1.175   3.970   4.505  0.0947 -0.1632 -0.6343
 2894TIP3   OH230096   1.894   1.934   1.560 -0.8362 -0.0784 -0.0131
 2894TIP3    H130097   1.906   1.860   1.620  0.4809  0.6102  0.6022
 2894TIP3    H230098   1.839   1.996   1.608  0.2783  0.5052  0.5442
 2895TIP3   OH230099   4.169   4.646   2.889 -0.1816  0.3199  0.4692
 2895TIP3    H130100   4.226   4.584   2.933 -0.9596  1.0602  2.6471
 2895TIP3    H230101   4.119   4.688   2.959  0.3983  3.5413 -0.8485
 2896TIP3   OH230102   2.370   2.369  15.119 -0.3197  0.3024 -0.3695
 2896TIP3    H130103   2.330   2.435  15.062 -2.5318  0.2299  0.9794
 2896TIP3    H230104   2.448   2.412  15.153 -0.7150  1.5343 -0.9379
 2897TIP3   OH230105   0.647   0.080   2.160  0.2836  0.4443  0.5701
 2897TIP3    H130106   0.678   0.004   2.110 -2.0870  1.0264 -2.0087
 2897TIP3    H230107   0.554   0.086   2.140 -0.0357  2.8813  2.3315
 2898TIP3   OH230108   4.545   2.304  13.752 -0.0321 -0.4373 -0.0708
 2898TIP3    H130109   4.575   2.218  13.782  0.0009 -0.0022  1.2187
 2898TIP3    H230110   4.588   2.367  13.811  0.4254  0.5194 -1.3785
 2899TIP3   OH230111   0.354   1.453  15.685 -0.5382  0.0950  0.3518
 2899TIP3    H130112   0.410   1.470  15.610 -3.6044  0.2101 -2.0809
 2899TIP3    H230113   0.272   1.500  15.666 -1.5815 -0.1291  3.6358
 2900TIP3   OH230114   4.325   3.481   3.731  0.3718 -0.2849 -0.2060
 2900TIP3    H130115   4.420   3.478   3.721  0.3080  0.5235 -1.1967
 2900TIP3    H230116   4.300   3.567   3.698 -0.7385 -0.5890 -0.1962
 2901TIP3   OH230117   6.408   4.469   2.859  0.6521 -0.0614 -0.2444
 2901TIP3    H130118   6.462   4.486   2.936  0.9093 -0.9475 -0.2116
 2901TIP3    H230119   6.442   4.386   2.824 -1.2438 -1.1007  0.2774
 2902TIP3   OH230120   5.983   5.793   1.230 -1.2814  0.0512 -0.3265
 2902TIP3    H130121   5.974   5.718   1.170  2.6828 -2.6942  2.0403
 2902TIP3    H230122   6.021   5.862   1.177  2.8461 -2.5344 -1.1570
 2903TIP3   OH230123   3.847   3.915  16.800 -0.1044  0.0569  0.1165
 2903TIP3    H130124   3.873   3.861  16.725  0.8751  1.1171 -0.3300
 2903TIP3    H230125   3.869   3.862  16.876 -0.5150 -0.7683 -0.3228
 2904TIP3   OH230126   2.889   4.153   1.535 -0.2900 -0.0597 -0.2636
 2904TIP3    H130127   2.822   4.144   1.603 -1.6065 -0.1923 -1.5451
 2904TIP3    H230128   2.887   4.246   1.511 -1.2505 -0.3728 -1.4935
 2905TIP3   OH230129   2.792   4.687   4.261 -0.6955  0.4065  0.2204
 2905TIP3    H130130   2.782   4.599   4.298 -0.7233 -0.3897 -1.5920
 2905TIP3    H230131   2.707   4.728   4.275 -0.8606 -0.0464  0.5953
 2906TIP3   OH230132   5.578   2.148  16.911 -0.9747  0.1549  0.1370
 2906TIP3    H130133   5.503   2.113  16.960 -0.0944 -2.5788 -0.3076
 2906TIP3    H230134   5.653   2.133  16.968 -0.0342 -2.3834 -1.6160
 2907TIP3   OH230135   6.279   0.964  12.312 -0.2556  0.1008 -0.4419
 2907TIP3    H130136   6.203   0.995  12.263  0.9183 -0.1774 -2.5413
 2907TIP3    H230137   6.327   1.044  12.335 -0.9617  0.2513  0.5730
 2908TIP3   OH230138   4.064   5.934  12.331 -0.0888 -0.3965 -0.1316
 2908TIP3    H130139   4.095   5.897  12.414 -2.2814  0.4757  1.1386
 2908TIP3    H230140   4.115   6.015  12.321  1.1029 -1.1372 -0.3522
 2909TIP3   OH230141   1.991   0.356   6.898 -0.0387  0.5486 -0.0529
 2909TIP3    H130142   2.019   0.380   6.986  1.5023 -0.3791 -0.2484
 2909TIP3    H230143   1.988   0.439   6.850  1.3384  0.8186  0.2950
 2910TIP3   OH230144   5.665   2.354   3.329  0.2527 -0.1449 -0.2963
 2910TIP3    H130145   5.729   2.283   3.327  0.9116  0.4481 -0.6749
 2910TIP3    H230146   5.606   2.331   3.401  1.7200  0.0067  1.0137
 2911TIP3   OH230147   1.762   5.315  11.999  0.2923 -0.0896  0.0636
 2911TIP3    H130148   1.843   5.367  11.994 -0.3682  0.9502 -0.0749
 2911TIP3    H230149   1.779   5.240  11.943  0.5193  1.0181 -1.4132
 2912TIP3   OH230150   2.724   0.758   2.241  0.4510 -0.2132  0.1083
 2912TIP3    H130151   2.673   0.821   2.191 -1.3776 -1.1033  0.7930
 2912TIP3    H230152   2.672   0.678   2.241  1.1291 -0.7236  2.0933
 2913TIP3   OH230153   1.743   4.795   6.915  0.5950 -0.3655  0.1825
 2913TIP3    H130154   1.804   4.806   6.842 -2.4301 -1.6046 -2.7939
 2913TIP3    H230155   1.711   4.883   6.934  1.4176 -0.0316  0.0327
 2914TIP3   OH230156   2.930   0.524  13.254 -0.1428 -0.1959 -0.0289
 2914TIP3    H130157   2.909   0.593  13.317  2.4893  1.4871 -0.8571
 2914TIP3    H230158   2.975   0.457  13.306 -1.3285 -0.6113  0.4961
 2915TIP3   OH230159   3.856   6.479  12.378  0.8471 -0.3058  0.2166
 2915TIP3    H130160   3.864   6.410  12.312 -2.3516 -1.0221  0.4317
 2915TIP3    H230161   3.875   6.434  12.461 -0.4603 -0.7947  0.2758
 2916TIP3   OH230162   1.758   3.516  12.770  0.3486 -0.1539 -0.2383
 2916TIP3    H130163   1.825   3.469  12.721 -0.1150 -2.4066  1.1454
 2916TIP3    H230164   1.726   3.582  12.709  0.1433 -2.4805 -2.8648
 2917TIP3   OH230165   3.230   0.528   2.659  0.3107 -0.6100 -0.2786
 2917TIP3    H130166   3.195   0.507   2.572  0.6399  0.6875 -0.7485
 2917TIP3    H230167   3.275   0.449   2.687 -0.7731 -1.4312 -0.7914
 2918TIP3   OH230168   4.574   1.384  11.403 -0.6409 -0.2703 -0.2759
 2918TIP3    H130169   4.642   1.415  11.343 -1.6411 -0.1026 -1.3865
 2918TIP3    H230170   4.523   1.321  11.351 -1.8105  0.2104  0.2370
 2919TIP3   OH230171   6.393   3.071   4.844 -0.1385 -0.3020 -0.1748
 2919TIP3    H130172   6.393   3.153   4.893  1.7314 -0.0928 -0.4680
 2919TIP3    H230173   6.379   3.098   4.753 -1.2970 -0.4858 -0.0628
 2920TIP3   OH230174   4.918   4.414   3.030 -0.2366 -0.4075 -0.0995
 2920TIP3    H130175   4.957   4.482   3.084 -0.3157 -1.1245  0.8903
 2920TIP3    H230176   4.935   4.333   3.078 -1.4206 -0.9226 -0.5102
 2921TIP3   OH230177   1.948   3.607  13.325 -0.1313 -0.2650  0.0760
 2921TIP3    H130178   1.968   3.553  13.249  0.2065  0.7738 -0.6030
 2921TIP3    H230179   1.993   3.565  13.398 -1.0850 -1.7067 -0.1285
 2922TIP3   OH230180   1.246   3.429   5.856  0.2605 -0.0051 -0.0243
 2922TIP3    H130181   1.267   3.518   5.885  0.7749 -0.8700  2.5185
 2922TIP3    H230182   1.150   3.424   5.864  0.2615  0.2218  0.1481
 2923TIP3   OH230183   3.697   4.967  11.025 -0.0090  0.6537 -0.3467
 2923TIP3    H130184   3.650   4.918  11.092 -0.5622 -0.5500 -1.5814
 2923TIP3    H230185   3.788   4.969  11.056 -0.4566  1.1998  1.0191
 2924TIP3   OH230186   5.013   5.136  15.019 -0.4013  0.5357 -0.0697
 2924TIP3    H130187   4.998   5.205  15.084 -0.0112 -0.4412  1.0892
 2924TIP3    H230188   5.108   5.124  15.018 -0.3345  1.0121 -1.3520
 2925TIP3   OH230189   2.992   5.694   1.844 -0.4138 -0.5087  0.3453
 2925TIP3    H130190   3.028   5.762   1.787 -0.2389 -1.0368 -0.1884
 2925TIP3    H230191   3.014   5.723   1.932 -0.2808  0.0911  0.1222
 2926TIP3   OH230192   2.303   3.189   5.275  0.7785  0.4184  0.4394
 2926TIP3    H130193   2.266   3.217   5.191  0.1829  0.0030  0.5587
 2926TIP3    H230194   2.346   3.106   5.255  0.8577  0.4447  0.4974
 2927TIP3   OH230195   5.549   0.365   5.153  0.0982  0.5107  0.2199
 2927TIP3    H130196   5.496   0.302   5.202  0.9599 -0.7404 -0.3930
 2927TIP3    H230197   5.596   0.415   5.220  1.7525 -1.5990  0.7691
 2928TIP3   OH230198   2.171   2.691   1.426  0.5419  0.0262 -0.2629
 2928TIP3    H130199   2.199   2.771   1.471 -0.5241 -1.4163  3.3405
 2928TIP3    H230200   2.243   2.629   1.440  0.8387 -0.0723 -1.9851
 2929TIP3   OH230201   0.414   2.890  15.318  0.5950 -0.0793 -0.6604
 2929TIP3    H130202   0.334   2.843  15.340 -0.7193  2.1422 -0.4004
 2929TIP3    H230203   0.395   2.933  15.234  1.8036 -0.1353 -0.9864
 2930TIP3   OH230204   1.384   1.526   5.478  0.0622 -0.1411  0.4280
 2930TIP3    H130205   1.421   1.570   5.554  1.3572 -2.3003  1.1319
 2930TIP3    H230206   1.445   1.544   5.407 -0.4045  0.7049  0.2271
 2931TIP3   OH230207   1.982   1.340   1.712 -0.2647  0.0481 -0.5077
 2931TIP3    H130208   1.998   1.246   1.701  3.0077  0.5441 -0.8463
 2931TIP3    H230209   1.990   1.376   1.623  0.5483  0.8649 -0.1239
 2932TIP3   OH230210   0.700   0.875  13.273 -0.2682  0.5935  0.3417
 2932TIP3    H130211   0.701   0.794  13.325 -1.1436  0.4966  0.2126
 2932TIP3    H230212   0.764   0.931  13.317  2.2583 -1.0243 -1.0003
 2933TIP3   OH230213   0.002   2.854  16.393  0.3066  0.3643  0.4262
 2933TIP3    H130214   0.076   2.916  16.387 -0.1762  0.9422  0.3348
 2933TIP3    H230215   0.006   2.823  16.483  1.4183 -0.5788  0.0760
 2934TIP3   OH230216   2.068   5.912  16.741 -0.2721  0.2214  0.5952
 2934TIP3    H130217   2.066   5.929  16.835  0.0274 -0.0940  0.6607
 2934TIP3    H230218   2.098   5.994  16.702 -0.0772  0.2461  0.8013
 2935TIP3   OH230219   4.655   5.537  14.014 -0.2521  0.0185  0.0179
 2935TIP3    H130220   4.703   5.593  14.074  0.9527  1.4682 -2.1604
 2935TIP3    H230221   4.710   5.458  14.006 -0.6800 -0.4111  1.1594
 2936TIP3   OH230222   5.168   6.513  17.210 -0.3033 -0.1993  0.5533
 2936TIP3    H130223   5.166   6.471  17.125 -3.0834  1.1704 -0.1467
 2936TIP3    H230224   5.254   6.490  17.246 -0.0257 -2.8201 -1.5404
 2937TIP3   OH230225   0.166   5.973  11.437 -0.1677 -0.2273  0.2737
 2937TIP3    H130226   0.090   5.915  11.443  0.6661 -1.4630 -0.6713
 2937TIP3    H230227   0.186   5.978  11.344 -0.0878  1.4485  0.3538
 2938TIP3   OH230228   0.853   1.960  16.966 -0.5883  0.0410  0.2300
 2938TIP3    H130229   0.793   1.927  16.899 -0.4921  0.7255 -0.2017
 2938TIP3    H230230   0.930   1.990  16.918  0.0951 -0.7772  0.7758
 2939TIP3   OH230231   5.854   6.059  17.036  0.2271  0.2907  0.3233
 2939TIP3    H130232   5.891   6.092  16.955  0.4219 -1.4929 -0.3686
 2939TIP3    H230233   5.926   6.065  17.099  0.3333  0.9087  0.1453
 2940TIP3   OH230234   2.810   4.378   3.435 -0.2703  0.2209 -0.2251
 2940TIP3    H130235   2.895   4.422   3.430 -0.2293  0.4601  1.7711
 2940TIP3    H230236   2.765   4.420   3.509 -2.1589  0.1295 -1.2525
 2941TIP3   OH230237   5.676   1.804  15.375  0.0380 -0.1213  0.0096
 2941TIP3    H130238   5.761   1.826  15.338 -0.4368  0.6819 -0.6555
 2941TIP3    H230239   5.696   1.755  15.455  1.1224  0.8021  0.3232
 2942TIP3   OH230240   3.878   5.334  15.380 -0.1040 -0.2297 -0.0060
 2942TIP3    H130241   3.906   5.300  15.295 -1.1038 -0.4550 -0.2575
 2942TIP3    H230242   3.808   5.396  15.360 -0.1670 -0.0813  0.6328
 2943TIP3   OH230243   3.452   5.663   3.075 -0.2197 -0.1416 -0.3315
 2943TIP3    H130244   3.358   5.677   3.082 -0.3641  0.2628 -2.3506
 2943TIP3    H230245   3.483   5.734   3.019  1.4347  0.1634  0.8901
 2944TIP3   OH230246   0.268   3.613   5.791  0.8569  0.3427  0.0337
 2944TIP3    H130247   0.266   3.553   5.716 -0.0256  2.9994 -2.2581
 2944TIP3    H230248   0.360   3.618   5.816  1.1204 -0.8583 -0.6564
 2945TIP3   OH230249   1.965   1.201  15.323 -0.8479  0.6529  0.1183
 2945TIP3    H130250   1.893   1.247  15.365 -0.2911  1.7279 -0.0590
 2945TIP3    H230251   2.044   1.243  15.358 -0.2605 -1.0182  0.9118
 2946TIP3   OH230252   0.243   2.107  14.222  0.0085 -0.2714 -0.0240
 2946TIP3    H130253   0.248   2.194  14.263 -1.5741  0.1610 -0.6828
 2946TIP3    H230254   0.295   2.051  14.280 -0.7802  0.6559  1.6834
 2947TIP3   OH230255   1.681   0.053  11.916 -0.5701  0.4305  0.3533
 2947TIP3    H130256   1.704   0.118  11.983 -0.3677 -0.3821  1.0834
 2947TIP3    H230257   1.595   0.082  11.885 -0.2638  1.3317  0.3007
 2948TIP3   OH230258   2.443   5.289   5.649  0.1243  0.5338 -0.1379
 2948TIP3    H130259   2.513   5.305   5.586  0.9420 -1.2329  0.2572
 2948TIP3    H230260   2.450   5.361   5.712  1.5808  0.4030 -0.1272
 2949TIP3   OH230261   2.641   3.577   3.267  0.3524  0.2804  0.0736
 2949TIP3    H130262   2.580   3.513   3.230 -1.3661  2.4420 -1.0179
 2949TIP3    H230263   2.690   3.610   3.191  0.5020  0.9984  0.4777
 2950TIP3   OH230264   0.991   6.495   0.051  0.4448  0.6463  0.4189
 2950TIP3    H130265   1.083   6.520   0.055  0.9139 -0.2730 -2.5567
 2950TIP3    H230266   0.990   6.405   0.085  0.8293  0.3280 -0.3811
 2951TIP3   OH230267   6.614   4.181   4.547 -0.4279 -0.0148  0.1471
 2951TIP3    H130268   6.680   4.216   4.607 -0.9353 -1.6883  1.7743
 2951TIP3    H230269   6.597   4.252   4.485  0.6635  1.5231  1.5412
 2952TIP3   OH230270   5.174   1.607  12.424  0.5022  0.1377  0.1460
 2952TIP3    H130271   5.120   1.666  12.371  1.1587  1.4118  0.8395
 2952TIP3    H230272   5.261   1.615  12.386  0.1963 -2.1766 -1.1896
 2953TIP3   OH230273   5.482   2.205  14.140 -0.0777 -1.0927 -0.1858
 2953TIP3    H130274   5.418   2.241  14.079  0.3353  1.4447  0.7785
 2953TIP3    H230275   5.546   2.274  14.153  1.3730 -2.5664  1.0012
 2954TIP3   OH230276   5.408   4.311  16.075  0.2870 -0.0720 -0.3386
 2954TIP3    H130277   5.388   4.337  15.985 -0.8067  2.0316  0.4487
 2954TIP3    H230278   5.348   4.363  16.129  1.7437 -0.3681  1.6777
 2955TIP3   OH230279   0.639   4.932   2.632  0.0619 -0.4822 -0.2994
 2955TIP3    H130280   0.686   4.854   2.602  1.9293  0.5905 -0.3413
 2955TIP3    H230281   0.627   4.985   2.553  0.2185 -0.0392 -0.0312
 2956TIP3   OH230282   6.629   2.570   2.028 -0.4562  0.5571 -0.1547
 2956TIP3    H130283   6.539   2.537   2.021 -0.1019 -1.0217  1.9082
 2956TIP3    H230284   6.624   2.640   2.093 -0.0246 -0.3815  0.9181
 2957TIP3   OH230285   1.756   3.235  12.516  0.2905  0.3412 -0.2561
 2957TIP3    H130286   1.761   3.150  12.472 -2.2556 -0.2043  0.3386
 2957TIP3    H230287   1.768   3.214  12.609 -0.7047  0.5320 -0.0693
 2958TIP3   OH230288   4.531   2.019  14.663 -0.2737 -0.0823  0.2094
 2958TIP3    H130289   4.478   2.090  14.699 -0.7936 -1.4406  2.2928
 2958TIP3    H230290   4.621   2.050  14.672 -0.5363  0.8926 -0.2935
 2959TIP3   OH230291   3.736   5.604  12.311  0.2678 -0.2635  0.4918
 2959TIP3    H130292   3.761   5.696  12.309 -0.9215  0.2140  3.0212
 2959TIP3    H230293   3.775   5.566  12.232  0.2634  2.5136 -0.9650
 2960TIP3   OH230294   1.869   0.510  13.646 -0.0330 -0.0713 -0.6431
 2960TIP3    H130295   1.942   0.568  13.625 -1.8384  2.0830 -1.3989
 2960TIP3    H230296   1.795   0.546  13.597 -1.7886 -1.6913  0.6739
 2961TIP3   OH230297   0.161   3.670  11.761 -0.1210 -0.0774 -0.0098
 2961TIP3    H130298   0.129   3.592  11.715  2.2027 -0.2603 -1.4893
 2961TIP3    H230299   0.254   3.675  11.737  0.2093  2.1589  1.4810
 2962TIP3   OH230300   5.740   3.675  13.725 -0.0203 -0.2295  0.3607
 2962TIP3    H130301   5.792   3.633  13.656 -0.0164  0.9147 -0.3645
 2962TIP3    H230302   5.664   3.709  13.679  0.8794  2.2025  0.5255
 2963TIP3   OH230303   6.430   2.038   2.873 -0.6675  0.9295 -0.1992
 2963TIP3    H130304   6.370   1.969   2.844 -1.5918  1.2552  0.8154
 2963TIP3    H230305   6.510   2.024   2.823 -1.0671 -0.4684 -0.4918
 2964TIP3   OH230306   5.447   4.620   5.434  0.1184 -0.0620 -0.1331
 2964TIP3    H130307   5.404   4.681   5.374  0.0971 -0.5542 -0.6265
 2964TIP3    H230308   5.467   4.672   5.512  0.9938  0.8341 -0.9274
 2965TIP3   OH230309   4.190   2.160   0.629 -0.2617 -0.3805 -0.0157
 2965TIP3    H130310   4.118   2.211   0.594  0.1537 -0.2859 -0.7778
 2965TIP3    H230311   4.267   2.216   0.618 -0.3225  0.3103  2.5855
 2966TIP3   OH230312   4.404   4.648  13.403 -0.1992  0.1048  0.3791
 2966TIP3    H130313   4.367   4.718  13.456 -2.4086 -0.3128 -0.4862
 2966TIP3    H230314   4.418   4.576  13.465 -0.3973  0.4399  0.8215
 2967TIP3   OH230315   6.591   5.162   0.188  0.0256 -0.2968  0.7871
 2967TIP3    H130316   6.613   5.069   0.191  1.9983  0.1352  1.7335
 2967TIP3    H230317   6.501   5.166   0.219 -0.3079 -1.9296  0.1503
 2968TIP3   OH230318   0.110   1.468  13.508 -0.6816  0.5241  0.6587
 2968TIP3    H130319   0.104   1.484  13.414 -0.5352 -1.1242  0.3413
 2968TIP3    H230320   0.036   1.515  13.545  0.5225  3.1204  0.0353
 2969TIP3   OH230321   6.274   0.050   4.177 -0.2936 -0.4602  0.3238
 2969TIP3    H130322   6.313   0.112   4.115 -0.4812 -0.3907  0.2753
 2969TIP3    H230323   6.308   0.078   4.262  1.3021 -1.5597  0.1064
 2970TIP3   OH230324   0.872   3.005   5.510 -0.3084  0.2774 -0.1365
 2970TIP3    H130325   0.900   2.916   5.530 -1.3837  0.4132  2.2555
 2970TIP3    H230326   0.952   3.051   5.485  0.2771 -1.2846 -1.2944
 2971TIP3   OH230327   0.173   3.659   3.948  0.1062  0.3534  0.0632
 2971TIP3    H130328   0.208   3.692   3.865 -0.9358 -0.2450 -0.6319
 2971TIP3    H230329   0.247   3.616   3.990  0.6236  0.5787 -0.5996
 2972TIP3   OH230330   4.129   0.094   1.838 -0.1017 -0.0553 -0.3125
 2972TIP3    H130331   4.037   0.069   1.848  0.2315 -1.4636 -0.5725
 2972TIP3    H230332   4.130   0.188   1.856 -1.7519  0.1915 -1.3200
 2973TIP3   OH230333   5.769   6.140   1.241  0.0175  0.7211  0.1155
 2973TIP3    H130334   5.726   6.142   1.156 -0.9343  0.1033  0.5692
 2973TIP3    H230335   5.782   6.232   1.264 -0.6736  0.9101 -0.2300
 2974TIP3   OH230336   2.835   2.793   4.738  0.5268 -0.0000 -0.3309
 2974TIP3    H130337   2.909   2.823   4.790 -0.8865  1.4163  1.0071
 2974TIP3    H230338   2.854   2.824   4.650  1.7995 -0.2268 -0.1591
 2975TIP3   OH230339   1.046   4.337  14.472 -0.0669  0.1686 -0.7044
 2975TIP3    H130340   1.016   4.249  14.453  0.5282 -0.3660  0.6914
 2975TIP3    H230341   1.131   4.326  14.514  0.2545  1.4385 -0.9624
 2976TIP3   OH230342   5.572   2.771   5.174  0.8307  0.5071  0.1753
 2976TIP3    H130343   5.476   2.781   5.177  0.9548  3.0500 -1.4587
 2976TIP3    H230344   5.597   2.759   5.266 -1.0844 -1.3025  0.5505
 2977TIP3   OH230345   1.210   4.693  14.841 -0.1601  0.0816 -0.7060
 2977TIP3    H130346   1.264   4.728  14.771 -1.0209  0.3748 -1.2332
 2977TIP3    H230347   1.190   4.769  14.896  0.6645 -0.1783 -0.0274
 2978TIP3   OH230348   2.003   5.108   5.458 -0.1078 -0.1497  0.3829
 2978TIP3    H130349   2.047   5.176   5.508  1.0463 -0.1644 -0.5792
 2978TIP3    H230350   2.040   5.026   5.491  0.3918 -0.1759 -0.2394
 2979TIP3   OH230351   1.409   6.620   2.709  0.3680  0.0012 -0.8109
 2979TIP3    H130352   1.320   6.656   2.704 -0.8184 -2.5650 -0.1525
 2979TIP3    H230353   1.463   6.693   2.737 -2.1288  0.9526  2.0901
 2980TIP3   OH230354   1.818   1.228  15.733  0.0053 -0.6316 -0.4968
 2980TIP3    H130355   1.768   1.293  15.782  1.1012  1.1649 -1.6422
 2980TIP3    H230356   1.751   1.175  15.689 -0.9779 -1.8844  2.2940
 2981TIP3   OH230357   6.409   6.748  16.624  0.8948  0.7303 -0.2278
 2981TIP3    H130358   6.347   6.815  16.651 -0.5119 -0.5171 -0.2253
 2981TIP3    H230359   6.477   6.750  16.692 -1.1549 -0.4638  2.0306
 2982TIP3   OH230360   4.305   6.734  12.369  0.0356 -0.2624 -0.2945
 2982TIP3    H130361   4.305   6.806  12.432 -1.4218  0.5050 -1.1238
 2982TIP3    H230362   4.213   6.723  12.346  0.3823 -1.5626 -1.1314
 2983TIP3   OH230363   6.245   6.035   2.522  0.6031  0.1577 -0.5139
 2983TIP3    H130364   6.264   5.942   2.515  0.0708 -0.3513  2.8305
 2983TIP3    H230365   6.169   6.049   2.466  1.7349 -0.9855 -2.4159
 2984TIP3   OH230366   5.347   5.293  16.267  0.4196  1.0427  0.1871
 2984TIP3    H130367   5.439   5.309  16.243  1.1716 -1.0951  1.3794
 2984TIP3    H230368   5.337   5.336  16.352  0.9096 -0.2640  0.9365
 2985TIP3   OH230369   5.992   2.406  12.151  0.4199 -0.6727 -0.3373
 2985TIP3    H130370   6.006   2.469  12.081 -1.7263 -1.7436 -1.8385
 2985TIP3    H230371   6.017   2.322  12.113 -1.1427 -1.3233  0.0033
 2986TIP3   OH230372   5.477   2.295   2.645  0.0315 -0.3857 -0.4909
 2986TIP3    H130373   5.537   2.234   2.687  0.2108  0.4173  0.4530
 2986TIP3    H230374   5.506   2.381   2.674  0.1011  0.1979 -2.2110
 2987TIP3   OH230375   5.776   6.246   1.512  0.3546 -0.6199 -0.0600
 2987TIP3    H130376   5.752   6.318   1.453 -0.3710  0.5314  1.5593
 2987TIP3    H230377   5.869   6.258   1.528  0.8334 -1.6718 -1.8900
 2988TIP3   OH230378   6.578   0.913   0.387  0.6212 -0.2355  0.1096
 2988TIP3    H130379   6.534   0.840   0.343 -0.8242  0.6768 -0.0240
 2988TIP3    H230380   6.514   0.984   0.386  2.8773  1.9986 -2.1889
 2989TIP3   OH230381   2.057   3.932   1.779  0.2756 -0.1294 -0.2911
 2989TIP3    H130382   2.093   3.992   1.844  0.5941  0.5573 -1.0824
 2989TIP3    H230383   1.964   3.927   1.800 -0.0972  1.9695 -1.1924
 2990TIP3   OH230384   3.979   5.323   4.837  0.2802  0.7312  0.1578
 2990TIP3    H130385   3.994   5.228   4.844  0.9339  0.8503  0.4753
 2990TIP3    H230386   3.887   5.335   4.863  0.7273  0.3888  2.0338
 2991TIP3   OH230387   3.212   4.357  14.589  0.3847  0.2339  0.2736
 2991TIP3    H130388   3.180   4.349  14.679 -0.0266  1.5920  0.2656
 2991TIP3    H230389   3.285   4.295  14.584 -0.1042 -0.4487  1.2961
 2992TIP3   OH230390   4.778   3.187  16.753 -0.5852 -0.5919 -0.2993
 2992TIP3    H130391   4.757   3.108  16.802  1.1779 -1.4478 -0.8372
 2992TIP3    H230392   4.779   3.159  16.661  2.3891 -0.5997 -0.3503
 2993TIP3   OH230393   5.066   5.330  14.430 -0.0976 -0.0259 -0.1333
 2993TIP3    H130394   5.102   5.267  14.368  1.3574 -0.3187  0.9563
 2993TIP3    H230395   5.098   5.301  14.515 -0.5681  1.3818  0.5583
 2994TIP3   OH230396   5.592   4.177  14.249 -0.3276  0.0294 -1.2116
 2994TIP3    H130397   5.594   4.143  14.338 -2.5240 -1.7604 -1.7625
 2994TIP3    H230398   5.684   4.176  14.221  0.3279  0.0300  0.7677
 2995TIP3   OH230399   3.056   4.684  15.586  0.4930  0.7355  0.2718
 2995TIP3    H130400   3.124   4.667  15.650  0.8613 -0.5879 -0.4369
 2995TIP3    H230401   2.980   4.634  15.617  0.2345  1.1991  0.3964
 2996TIP3   OH230402   0.331   4.531   1.960  0.2579  0.3971 -0.0480
 2996TIP3    H130403   0.369   4.456   1.915 -0.4768 -0.0376  0.0444
 2996TIP3    H230404   0.237   4.512   1.964  0.3122  0.2598  1.9180
 2997TIP3   OH230405   5.724   5.095   2.090  0.2114 -0.1971 -0.6971
 2997TIP3    H130406   5.673   5.086   2.170 -1.4656  0.7686 -1.6076
 2997TIP3    H230407   5.807   5.134   2.119 -0.2140 -0.2103  0.6014
 2998TIP3   OH230408   4.142   4.711   1.742 -0.5566  0.7308  0.2716
 2998TIP3    H130409   4.134   4.750   1.655 -0.4377  0.3243  0.0735
 2998TIP3    H230410   4.054   4.681   1.763 -0.5205  0.5176  0.1348
 2999TIP3   OH230411   3.139   5.149   2.415 -0.3655 -0.5953 -0.7205
 2999TIP3    H130412   3.156   5.055   2.409 -1.7752 -0.7775 -3.0222
 2999TIP3    H230413   3.046   5.157   2.397 -0.7738  1.1191  1.6564
 3000TIP3   OH230414   2.422   3.757   5.067  0.4433  0.1337  0.0459
 3000TIP3    H130415   2.428   3.851   5.048 -0.2939  0.1372 -0.2059
 3000TIP3    H230416   2.454   3.748   5.157  2.6667  0.3124 -0.6677
 3001TIP3   OH230417   1.815   1.930   6.239  0.2463 -0.6297  0.1155
 3001TIP3    H130418   1.806   2.011   6.189 -1.3619 -0.8996 -0.0729
 3001TIP3    H230419   1.868   1.955   6.315  1.4411  0.1241 -0.9288
 3002TIP3   OH230420   4.950   6.534   5.417  0.2540  0.3201  0.0566
 3002TIP3    H130421   4.926   6.518   5.508  3.0592  1.8953  1.1719
 3002TIP3    H230422   5.000   6.615   5.419  0.1588  0.5716 -2.9725
 3003TIP3   OH230423   4.114   2.873  12.608  0.0192  0.2254  0.3281
 3003TIP3    H130424   4.162   2.890  12.527  1.6886 -0.5048  1.0943
 3003TIP3    H230425   4.034   2.828  12.581  0.8044 -0.4967 -0.8765
 3004TIP3   OH230426   1.994   1.073  16.647  0.7758  0.0473  0.7071
 3004TIP3    H130427   2.023   0.985  16.621  0.9723 -0.4623  2.5162
 3004TIP3    H230428   2.035   1.087  16.732  0.0069  1.5460  0.8540
 3005TIP3   OH230429   4.033   1.019  11.923  0.0495  0.0622 -0.3752
 3005TIP3    H130430   3.984   0.950  11.878  1.3780 -1.1383 -0.0689
 3005TIP3    H230431   4.002   1.015  12.013 -0.6589  0.6235 -0.5865
 3006TIP3   OH230432   6.084   2.815   2.054 -0.3351 -0.0220  0.5143
 3006TIP3    H130433   6.042   2.783   2.134 -0.9632 -0.7853 -0.1159
 3006TIP3    H230434   6.142   2.885   2.085  0.0449 -0.8378  1.7520
 3007TIP3   OH230435   4.399   5.444   2.358  0.2123 -0.4164 -0.3620
 3007TIP3    H130436   4.334   5.379   2.332 -0.8158  0.0413  0.9294
 3007TIP3    H230437   4.483   5.405   2.334 -0.3819 -2.1656  0.2445
 3008TIP3   OH230438   3.669   2.281   0.390 -0.1059  0.0503  0.2973
 3008TIP3    H130439   3.591   2.230   0.414 -0.7798  0.3763 -1.0946
 3008TIP3    H230440   3.739   2.216   0.385 -1.4200 -1.3524 -3.8512
 3009TIP3   OH230441   1.976   6.441  11.926 -0.1894  0.4648 -0.5899
 3009TIP3    H130442   1.942   6.354  11.948  0.1726 -0.1122 -2.1529
 3009TIP3    H230443   1.897   6.495  11.920 -0.7106 -0.3680 -2.0585
 3010TIP3   OH230444   3.488   0.121  11.361 -0.5205  0.0527  0.2410
 3010TIP3    H130445   3.467   0.153  11.273  0.0743 -1.1749 -0.3685
 3010TIP3    H230446   3.471   0.196  11.418 -0.1859  1.1200 -1.0059
 3011TIP3   OH230447   2.555   5.744  16.053  0.0468  0.2735  0.2237
 3011TIP3    H130448   2.650   5.734  16.045  0.2267  2.1328 -0.4670
 3011TIP3    H230449   2.536   5.826  16.009 -2.1644 -1.0247 -1.4296
 3012TIP3   OH230450   1.048   6.595   5.521  0.4598 -0.0960 -0.5872
 3012TIP3    H130451   0.965   6.604   5.474  0.0607  0.1497  0.1444
 3012TIP3    H230452   1.113   6.582   5.453 -0.1899 -0.3318 -1.1697
 3013TIP3   OH230453   1.125   1.331   3.243  0.5927  0.0329 -0.1714
 3013TIP3    H130454   1.153   1.275   3.171 -0.2554 -0.5792 -0.0391
 3013TIP3    H230455   1.100   1.413   3.202 -0.8012 -0.6306 -0.7083
 3014TIP3   OH230456   1.443   2.216   1.693 -0.0282 -0.3515  0.1031
 3014TIP3    H130457   1.358   2.248   1.723 -1.4374 -2.5287 -1.2614
 3014TIP3    H230458   1.480   2.288   1.642 -2.4461 -0.3125 -1.7684
 3015TIP3   OH230459   1.080   2.608   1.903 -0.4659  0.5005  0.1721
 3015TIP3    H130460   1.062   2.568   1.987  0.7013 -0.3942  0.0284
 3015TIP3    H230461   1.053   2.699   1.913 -3.9488 -0.4237  0.2459
 3016TIP3   OH230462   3.237   3.361   0.519  0.0741 -0.0392 -0.4011
 3016TIP3    H130463   3.190   3.437   0.483 -0.6976 -0.6515 -0.7154
 3016TIP3    H230464   3.194   3.344   0.602 -1.8691 -2.0109 -1.7048
 3017TIP3   OH230465   1.056   0.632  11.963 -0.5729  0.2460  0.5470
 3017TIP3    H130466   1.105   0.615  11.883 -0.3692  1.7971  0.3171
 3017TIP3    H230467   0.991   0.698  11.939  0.0107  1.3405  1.7986
 3018TIP3   OH230468   3.443   4.448  15.685 -0.0056 -0.8014 -0.5674
 3018TIP3    H130469   3.359   4.444  15.640 -0.0550 -1.8554 -0.4198
 3018TIP3    H230470   3.424   4.422  15.775  0.0980  1.2615  0.1016
 3019TIP3   OH230471   0.699   1.623   1.771 -0.4923 -0.5823  0.3445
 3019TIP3    H130472   0.738   1.657   1.851  1.5917 -1.6178 -0.1359
 3019TIP3    H230473   0.741   1.538   1.759 -1.1080 -0.6627 -1.5808
 3020TIP3   OH230474   3.534   0.758   0.445  0.1055  0.3413  0.0512
 3020TIP3    H130475   3.594   0.685   0.433  1.9854  1.7768  0.1969
 3020TIP3    H230476   3.564   0.801   0.525 -2.0089  0.3555  0.9091
 3021TIP3   OH230477   6.146   0.339   5.546  0.0427  0.7586  0.1375
 3021TIP3    H130478   6.083   0.392   5.595  0.9517  3.1219 -1.1321
 3021TIP3    H230479   6.123   0.352   5.454 -0.5811 -2.2770 -0.2657
 3022TIP3   OH230480   2.997   3.410  13.958  0.0583  0.4407 -0.1653
 3022TIP3    H130481   2.942   3.461  13.898  1.4680  1.1981 -0.8548
 3022TIP3    H230482   3.019   3.331  13.909 -1.8333 -0.7329  0.7735
 3023TIP3   OH230483   6.529   3.916   0.854 -0.6091  0.0216 -0.8817
 3023TIP3    H130484   6.606   3.872   0.890 -0.7031  1.8042  1.8095
 3023TIP3    H230485   6.562   4.003   0.828 -1.2669 -0.0391 -1.9681
 3024TIP3   OH230486   6.601   6.261  14.772 -0.4090  0.0712 -0.6400
 3024TIP3    H130487   6.591   6.352  14.745 -1.4467  0.2695  0.3195
 3024TIP3    H230488   6.539   6.213  14.718 -1.7982  0.3351  0.6578
 3025TIP3   OH230489   0.916   2.137   4.045  0.0904  0.2118 -0.3011
 3025TIP3    H130490   0.961   2.220   4.031  1.2420 -0.2932  0.2443
 3025TIP3    H230491   0.924   2.121   4.139 -1.4953  0.2309 -0.1295
 3026TIP3   OH230492   1.848   1.152  12.701  0.1783  0.1614  0.0094
 3026TIP3    H130493   1.773   1.111  12.745 -1.6372  0.1023 -2.8644
 3026TIP3    H230494   1.860   1.100  12.621  1.1132  2.1951 -1.2528
 3027TIP3   OH230495   4.534   4.044   4.355  0.2230  0.2578 -0.2445
 3027TIP3    H130496   4.627   4.062   4.340  0.5043  0.9227  2.0368
 3027TIP3    H230497   4.529   4.016   4.446 -1.6126 -1.5452 -0.8260
 3028TIP3   OH230498   5.770   3.889  13.864  0.1109  0.0635  0.0535
 3028TIP3    H130499   5.828   3.871  13.938  1.0700 -1.3830 -1.0212
 3028TIP3    H230500   5.775   3.811  13.809 -0.9456  0.9166 -1.3210
 3029TIP3   OH230501   4.691   0.175  16.780 -0.2563  0.1063 -0.0511
 3029TIP3    H130502   4.599   0.148  16.777  0.3370 -2.0663 -0.4834
 3029TIP3    H230503   4.737   0.097  16.811  1.6913  0.3914 -2.0196
 3030TIP3   OH230504   5.657   2.790  14.195 -0.2150 -0.4652 -0.0517
 3030TIP3    H130505   5.671   2.785  14.290 -0.0683 -1.3685 -0.1094
 3030TIP3    H230506   5.661   2.883  14.175 -0.3565 -0.2542  0.8479
 3031TIP3   OH230507   0.752   2.941  12.007 -0.0071  0.0461 -0.0945
 3031TIP3    H130508   0.759   2.999  11.931 -1.1410 -0.0077 -0.2591
 3031TIP3    H230509   0.733   2.855  11.969  2.7273 -0.7530  0.0633
 3032TIP3   OH230510   0.394   4.741  13.747  0.0068 -0.2563 -0.3687
 3032TIP3    H130511   0.390   4.699  13.662  0.5713  1.7264 -1.4360
 3032TIP3    H230512   0.329   4.694  13.800 -2.2132  0.0618 -2.6193
 3033TIP3   OH230513   2.348   5.534   2.058 -0.0073  0.1674  0.1964
 3033TIP3    H130514   2.311   5.450   2.082  0.8251 -0.6492 -1.2381
 3033TIP3    H230515   2.442   5.519   2.051  0.0419  0.8873 -1.2274
 3034TIP3   OH230516   1.947   6.729   6.704 -0.1004  0.3085 -0.0538
 3034TIP3    H130517   1.945   6.687   6.790 -0.3669  1.6598  0.6288
 3034TIP3    H230518   1.974   6.659   6.644  2.7065 -0.0910  1.4847
 3035TIP3   OH230519   1.877   2.794   1.287  0.7179  0.2639  0.2543
 3035TIP3    H130520   1.885   2.790   1.191  0.3318 -0.2327  0.2348
 3035TIP3    H230521   1.922   2.716   1.318  0.1124 -0.0264  0.4214
 3036TIP3   OH230522   5.789   3.768  10.631 -0.0738  0.6419 -0.2613
 3036TIP3    H130523   5.699   3.802  10.632 -0.1249  0.5086 -0.3787
 3036TIP3    H230524   5.786   3.694  10.570 -0.0386  0.2035  0.2673
 3037TIP3   OH230525   4.665   4.380  11.667 -0.2861  0.2161  0.3089
 3037TIP3    H130526   4.710   4.464  11.663 -3.8056  2.3358  0.5814
 3037TIP3    H230527   4.635   4.363  11.578  1.1513 -1.3110  0.0615
 3038TIP3   OH230528   2.625   6.089   5.282  0.8107  0.5412  0.0623
 3038TIP3    H130529   2.720   6.090   5.272  0.7539  0.7996 -0.5161
 3038TIP3    H230530   2.604   6.174   5.320  0.9886 -0.2939  2.1396
 3039TIP3   OH230531   1.219   5.790   2.673  0.3220 -0.0154 -0.0119
 3039TIP3    H130532   1.188   5.871   2.632  3.0891  0.5455 -1.2630
 3039TIP3    H230533   1.255   5.817   2.757 -1.0174 -0.3917  0.7010
 3040TIP3   OH230534   3.655   3.172  11.332  0.2345 -0.0285 -0.4191
 3040TIP3    H130535   3.592   3.110  11.294 -0.5364  0.9754 -0.8130
 3040TIP3    H230536   3.738   3.149  11.291  0.0722 -1.1399 -0.1613
 3041TIP3   OH230537   3.088   5.137  14.305  0.4604 -0.1702 -0.0978
 3041TIP3    H130538   3.010   5.191  14.289 -0.4646 -1.6965 -0.8985
 3041TIP3    H230539   3.113   5.159  14.395 -0.6852  0.6118  0.0537
 3042TIP3   OH230540   4.136   4.908  16.494  0.6974  0.0263 -0.0794
 3042TIP3    H130541   4.208   4.848  16.515  0.5865  0.2733  1.1214
 3042TIP3    H230542   4.066   4.851  16.461  1.3242 -0.2509 -0.9499
 3043TIP3   OH230543   2.476   5.084  11.280  0.0268  0.4813 -0.3173
 3043TIP3    H130544   2.565   5.057  11.258  0.4133  0.1194  1.4920
 3043TIP3    H230545   2.421   5.012  11.250  0.5925 -0.2793  0.3987
 3044TIP3   OH230546   1.281   6.388  13.244  0.6589 -0.0320 -0.5197
 3044TIP3    H130547   1.250   6.304  13.278 -0.9061  0.6946 -0.0427
 3044TIP3    H230548   1.225   6.404  13.168  1.5441  0.1819 -1.1408
 3045TIP3   OH230549   0.163   0.463  11.192 -0.2883 -0.0594 -0.1843
 3045TIP3    H130550   0.245   0.414  11.192 -0.9247 -1.2650  2.1955
 3045TIP3    H230551   0.164   0.511  11.275 -1.6730  0.4756 -0.4518
 3046TIP3   OH230552   5.785   3.587   5.384 -0.4964 -0.3280 -0.0301
 3046TIP3    H130553   5.826   3.587   5.470 -0.3027  0.0351 -0.1237
 3046TIP3    H230554   5.852   3.618   5.324 -1.2496  1.4834 -0.0070
 3047TIP3   OH230555   4.674   1.472   5.718  0.5689  0.2503 -0.6890
 3047TIP3    H130556   4.731   1.549   5.717  0.2504  0.5317  0.7006
 3047TIP3    H230557   4.690   1.432   5.803 -0.6022 -0.2021 -0.6722
 3048TIP3   OH230558   3.642   2.890   2.512  0.2499 -0.3110  0.1367
 3048TIP3    H130559   3.618   2.848   2.595  0.9442  1.5464  1.3297
 3048TIP3    H230560   3.688   2.821   2.463  0.5729 -1.2146  1.6357
 3049TIP3   OH230561   0.382   4.243   4.785 -0.0737 -1.2141  0.4441
 3049TIP3    H130562   0.328   4.317   4.758  0.1664 -0.1453  2.6584
 3049TIP3    H230563   0.465   4.256   4.741 -0.3347 -0.6815  0.1046
 3050TIP3   OH230564   5.657   5.219   0.180  0.0599  0.1915  0.4212
 3050TIP3    H130565   5.680   5.141   0.130  0.7053  0.1449  0.7811
 3050TIP3    H230566   5.734   5.276   0.173 -0.3803  0.7852  0.2047
 3051TIP3   OH230567   1.165   1.094   3.789  0.2020 -0.1590  0.3372
 3051TIP3    H130568   1.178   1.161   3.856 -0.1214  0.4483 -0.1981
 3051TIP3    H230569   1.253   1.062   3.769  0.4749  0.8499 -0.1487
 3052TIP3   OH230570   0.717   1.221  16.048  0.2709  0.0769  0.3808
 3052TIP3    H130571   0.790   1.249  15.993 -0.4551 -0.4192 -0.9034
 3052TIP3    H230572   0.642   1.273  16.017 -0.5383 -1.4420 -0.3414
 3053TIP3   OH230573   0.163   3.796  14.060 -0.0592 -0.8602 -0.4841
 3053TIP3    H130574   0.138   3.712  14.021  1.0402 -1.3095 -0.2434
 3053TIP3    H230575   0.159   3.858  13.987 -0.9348 -1.0884 -0.6528
 3054TIP3   OH230576   1.686   5.949  12.154 -0.0555  0.0017  0.1951
 3054TIP3    H130577   1.619   5.880  12.157 -1.0300  0.9257  0.3544
 3054TIP3    H230578   1.724   5.950  12.242  0.7521 -1.0645 -0.1228
 3055TIP3   OH230579   4.520   0.838   5.838  0.6449 -0.0830  0.0912
 3055TIP3    H130580   4.517   0.902   5.909 -1.5955  1.3976 -1.1944
 3055TIP3    H230581   4.453   0.773   5.862  0.5268 -0.0728 -0.1998
 3056TIP3   OH230582   2.600   4.641  14.993 -0.5132 -0.4169  0.1443
 3056TIP3    H130583   2.508   4.615  14.992 -0.8074  0.4194  2.2839
 3056TIP3    H230584   2.610   4.692  15.073  1.7226 -0.1134 -0.2778
 3057TIP3   OH230585   1.802   4.949   0.928 -0.0323 -0.0928 -0.0434
 3057TIP3    H130586   1.766   4.926   1.014 -1.8621  2.0042 -0.1540
 3057TIP3    H230587   1.793   5.044   0.923  0.7618 -0.0688 -2.2696
 3058TIP3   OH230588   4.241   4.195  10.977  0.4496 -0.2087 -0.4324
 3058TIP3    H130589   4.296   4.120  10.999  0.6976 -0.4798 -1.8700
 3058TIP3    H230590   4.301   4.259  10.939  0.3474  1.0194  1.3384
 3059TIP3   OH230591   1.514   1.050  11.415 -0.6407  0.5575 -0.0457
 3059TIP3    H130592   1.430   1.087  11.388 -0.9268 -0.1387 -0.1455
 3059TIP3    H230593   1.491   0.967  11.457  0.0740 -0.2922 -1.2600
 3060TIP3   OH230594   2.423   5.460   5.865  1.0356 -0.4611  0.8771
 3060TIP3    H130595   2.396   5.443   5.956  1.8006 -0.1818  1.1601
 3060TIP3    H230596   2.421   5.555   5.857  2.3728 -0.4016  1.0508
 3061TIP3   OH230597   1.859   2.022  15.185  0.0727 -0.4764  0.4351
 3061TIP3    H130598   1.859   2.083  15.111 -1.9519  0.0966  0.8443
 3061TIP3    H230599   1.931   2.053  15.241  1.1073 -0.4314 -0.8696
 3062TIP3   OH230600   3.448   6.095  15.646 -0.1749 -1.5432  0.6258
 3062TIP3    H130601   3.508   6.166  15.669 -0.5110  0.0635 -2.8328
 3062TIP3    H230602   3.462   6.029  15.714  2.0632  0.6998  2.5617
 3063TIP3   OH230603   1.503   3.889   4.789 -0.3305 -0.7292  0.0314
 3063TIP3    H130604   1.550   3.923   4.713  0.8004 -0.3596  0.8707
 3063TIP3    H230605   1.448   3.962   4.817 -0.0127 -0.5359  0.1536
 3064TIP3   OH230606   5.492   4.046  15.931  0.2486  0.6411 -0.2815
 3064TIP3    H130607   5.544   3.965  15.928  0.7192  0.9376 -0.3390
 3064TIP3    H230608   5.554   4.112  15.963 -0.7258  0.5322  1.9956
 3065TIP3   OH230609   6.216   5.807  15.802 -0.3523  0.5428 -0.3292
 3065TIP3    H130610   6.306   5.840  15.812 -0.3467  1.2782 -2.2988
 3065TIP3    H230611   6.226   5.726  15.752 -0.8481  1.8870 -2.8025
 3066TIP3   OH230612   5.084   4.795  12.045  0.1664  0.1371 -0.0969
 3066TIP3    H130613   5.164   4.750  12.072  0.3764 -0.0613 -1.0325
 3066TIP3    H230614   5.034   4.728  11.998 -0.0539  0.5527 -0.4622
 3067TIP3   OH230615   6.200   1.668   1.170 -0.3963  0.5636  0.3138
 3067TIP3    H130616   6.290   1.644   1.192  0.0901  1.2871 -0.8271
 3067TIP3    H230617   6.171   1.722   1.244  0.6149  1.5341  0.0217
 3068TIP3   OH230618   6.165   6.486   2.058  0.5176 -0.0174 -0.1278
 3068TIP3    H130619   6.108   6.535   1.999 -1.7622 -1.5763  0.6811
 3068TIP3    H230620   6.215   6.428   2.000 -0.0449  0.0612 -0.7014
 3069TIP3   OH230621   1.285   5.956  14.215  0.1986 -0.1407  0.1641
 3069TIP3    H130622   1.301   5.890  14.148 -0.8206 -0.7947  0.5427
 3069TIP3    H230623   1.280   6.039  14.166  1.0304 -0.3788 -0.3617
 3070TIP3   OH230624   4.382   6.248  12.062  0.5469 -0.2216 -0.3191
 3070TIP3    H130625   4.468   6.238  12.021  1.0408  1.3380  0.2857
 3070TIP3    H230626   4.384   6.334  12.102 -1.2781 -0.2009 -0.1951
 3071TIP3   OH230627   4.270   0.301   0.707 -0.5884 -0.1804  0.1354
 3071TIP3    H130628   4.181   0.314   0.674 -0.6722 -0.8362  0.0887
 3071TIP3    H230629   4.275   0.207   0.729  0.4826 -0.4512 -1.0959
 3072TIP3   OH230630   0.647   6.649   2.776 -0.3878  0.2068 -0.5293
 3072TIP3    H130631   0.700   6.659   2.855  1.4018 -0.0743 -1.6411
 3072TIP3    H230632   0.563   6.617   2.807  0.0260  0.8248  1.3256
 3073TIP3   OH230633   5.077   4.533   0.402 -0.1328  0.3083 -0.0120
 3073TIP3    H130634   5.111   4.472   0.467  0.7531  1.3094  0.4915
 3073TIP3    H230635   5.120   4.616   0.422 -0.9045  0.9742 -1.0130
 3074TIP3   OH230636   1.187   1.034   3.396  0.3064  1.1715 -0.5677
 3074TIP3    H130637   1.275   1.056   3.364  0.3300 -0.9151 -2.1911
 3074TIP3    H230638   1.132   1.036   3.317 -0.3467 -0.8984 -0.2226
 3075TIP3   OH230639   2.812   6.302   5.906 -0.1452 -1.1437  0.4137
 3075TIP3    H130640   2.782   6.378   5.955 -0.0829 -0.0790 -1.1183
 3075TIP3    H230641   2.907   6.300   5.921 -0.1865 -1.0736  0.6782
 3076TIP3   OH230642   0.101   6.349  16.051 -0.0923 -0.0473 -0.3304
 3076TIP3    H130643   0.022   6.381  16.009  0.9958 -0.1178 -2.5603
 3076TIP3    H230644   0.119   6.265  16.009 -0.1239 -1.2171  1.8592
 3077TIP3   OH230645   0.594   5.196  15.751  0.3092  0.2495 -0.4560
 3077TIP3    H130646   0.603   5.174  15.658  0.5127  3.5190 -1.3318
 3077TIP3    H230647   0.499   5.194  15.766  0.2966 -0.6672 -0.6177
 3078TIP3   OH230648   2.857   4.554   3.115  0.3604  0.3117 -0.8886
 3078TIP3    H130649   2.784   4.496   3.091 -0.6032  1.8632 -1.8423
 3078TIP3    H230650   2.935   4.504   3.092 -0.4037 -1.0685 -0.5999
 3079TIP3   OH230651   3.495   4.644   5.747  0.3551 -0.1840 -0.0621
 3079TIP3    H130652   3.450   4.566   5.716 -4.1867  1.1075  2.3161
 3079TIP3    H230653   3.546   4.614   5.822 -0.0620 -1.1214 -0.1420
 3080TIP3   OH230654   6.581   2.166  10.120  0.0204  0.1282  0.3279
 3080TIP3    H130655   6.660   2.132  10.161  1.1659 -1.0540 -2.6162
 3080TIP3    H230656   6.588   2.261  10.129  3.1508  0.2754 -1.9419
 3081TIP3   OH230657   3.387   5.244  15.521  0.2595 -0.7092 -0.1327
 3081TIP3    H130658   3.421   5.307  15.585  1.0662 -0.4491 -0.7887
 3081TIP3    H230659   3.372   5.164  15.571 -0.7560 -0.0163  0.7100
 3082TIP3   OH230660   0.993   1.343   0.035 -0.4725  0.2856 -0.2759
 3082TIP3    H130661   0.950   1.292  -0.034  2.7437  0.6614 -2.8021
 3082TIP3    H230662   0.963   1.433   0.021  1.5279  0.7111 -2.6254
 3083TIP3   OH230663   2.166   2.619   0.764 -0.2719  0.2408 -0.3888
 3083TIP3    H130664   2.219   2.649   0.690  0.5289 -0.0682  0.0450
 3083TIP3    H230665   2.078   2.653   0.746  0.1325  1.0208 -0.9741
 3084TIP3   OH230666   1.027   2.893   0.183 -0.1726  0.8024  0.4902
 3084TIP3    H130667   0.971   2.929   0.114  1.3844  0.2200 -1.1696
 3084TIP3    H230668   1.107   2.946   0.180  0.2596  0.2238  1.2526
 3085TIP3   OH230669   1.800   0.287  16.133 -0.0547  0.4039  0.3883
 3085TIP3    H130670   1.796   0.300  16.038 -0.0322  2.3050  0.6163
 3085TIP3    H230671   1.853   0.360  16.165  0.9343 -0.8643  1.7680
 3086TIP3   OH230672   3.219   2.407   1.397  0.6461  0.5444 -0.0033
 3086TIP3    H130673   3.282   2.436   1.331  0.6653  1.4233  0.3942
 3086TIP3    H230674   3.135   2.403   1.351  0.9108 -0.2518 -0.4351
 3087TIP3   OH230675   0.472   3.802   1.530  0.7752 -1.1100  0.2792
 3087TIP3    H130676   0.481   3.731   1.594 -0.9563 -1.8393 -0.2121
 3087TIP3    H230677   0.383   3.792   1.496  0.2627  1.6522  0.5850
 3088TIP3   OH230678   0.055   4.976   1.456  0.1405 -0.0531 -0.6608
 3088TIP3    H130679   0.132   5.016   1.497 -0.4881  1.2218 -0.6739
 3088TIP3    H230680   0.014   4.927   1.527  0.4524  0.0381 -0.4126
 3089TIP3   OH230681   4.219   2.536   5.300  0.3466 -0.6067  0.1855
 3089TIP3    H130682   4.263   2.612   5.336  0.5904 -0.9072  0.5315
 3089TIP3    H230683   4.173   2.497   5.375 -0.5124 -0.2908 -0.1741
 3090TIP3   OH230684   3.220   0.197   4.463 -0.2141 -0.1664  0.0402
 3090TIP3    H130685   3.150   0.200   4.529 -1.4175 -1.6748 -1.1080
 3090TIP3    H230686   3.291   0.149   4.506 -0.6927 -0.4627  0.5118
 3091TIP3   OH230687   5.676   0.492   1.558 -0.1804  0.7013 -0.3902
 3091TIP3    H130688   5.660   0.419   1.498 -1.7408  1.1216 -0.5310
 3091TIP3    H230689   5.734   0.551   1.509  3.1871 -1.5205  0.6352
 3092TIP3   OH230690   5.217   4.194   5.079 -0.5706 -0.1106 -0.2330
 3092TIP3    H130691   5.286   4.188   5.145 -0.1514  2.1196 -0.3821
 3092TIP3    H230692   5.158   4.122   5.100  0.4305 -0.4922  1.5307
 3093TIP3   OH230693   4.956   3.905  15.696  0.1377  0.2800  0.5536
 3093TIP3    H130694   4.989   3.860  15.773  0.1750 -1.4273 -0.4240
 3093TIP3    H230695   4.870   3.868  15.680 -0.3943  1.4964  0.4579
 3094TIP3   OH230696   3.925   3.851   2.447 -0.3289  0.3896 -0.4905
 3094TIP3    H130697   3.978   3.788   2.398 -0.4833  0.9063 -1.3465
 3094TIP3    H230698   3.924   3.817   2.536  2.5912  1.0794 -0.1067
 3095TIP3   OH230699   3.923   0.778   0.801  0.4494  0.3381  0.5101
 3095TIP3    H130700   3.905   0.833   0.877  1.1404  0.4844  0.5750
 3095TIP3    H230701   3.962   0.837   0.737 -0.7811  0.3693 -0.2471
 3096TIP3   OH230702   5.701   6.422   0.216  0.0196 -0.9069  0.4932
 3096TIP3    H130703   5.722   6.329   0.217  1.3137 -0.6412  0.1503
 3096TIP3    H230704   5.626   6.430   0.157 -0.0570 -1.7164  0.4786
 3097TIP3   OH230705   2.067   1.061   3.947  0.3236 -0.0565 -0.0291
 3097TIP3    H130706   2.038   1.081   4.036 -0.2499 -1.5608  0.1393
 3097TIP3    H230707   1.997   1.096   3.891  0.9649  1.4273  0.0383
 3098TIP3   OH230708   0.551   3.699  16.049  0.6760 -0.1368 -0.0481
 3098TIP3    H130709   0.497   3.684  15.972  1.8846 -0.9877 -0.7735
 3098TIP3    H230710   0.522   3.783  16.084 -1.5439 -0.8653 -0.0203
 3099TIP3   OH230711   3.065   4.119  16.219  0.3688  0.4714 -0.3478
 3099TIP3    H130712   2.987   4.170  16.242 -0.4627 -1.0058  0.2355
 3099TIP3    H230713   3.138   4.170  16.252 -0.1990  2.5598 -2.0422
 3100TIP3   OH230714   0.808   3.128   0.334 -0.7663 -0.3268  0.3018
 3100TIP3    H130715   0.721   3.088   0.343 -1.0623  0.1871 -0.1667
 3100TIP3    H230716   0.868   3.063   0.369 -1.0851 -1.7312 -1.5757
 3101TIP3   OH230717   2.830   2.239   1.978  0.2602 -0.1044 -0.2290
 3101TIP3    H130718   2.894   2.171   2.001  0.1673 -0.8010 -1.9158
 3101TIP3    H230719   2.878   2.298   1.920  0.3906  1.4256  1.3381
 3102TIP3   OH230720   4.619   5.108   2.035 -0.2230 -0.0147  0.1087
 3102TIP3    H130721   4.695   5.058   2.006 -0.7002 -0.3456 -0.5917
 3102TIP3    H230722   4.606   5.173   1.966  0.4291  1.1454  1.0340
 3103TIP3   OH230723   4.159   3.183   4.003  0.6841 -0.5745 -0.7219
 3103TIP3    H130724   4.066   3.186   4.027  0.7357 -1.0578 -0.4654
 3103TIP3    H230725   4.158   3.165   3.909  0.5216 -0.6973 -0.6966
 3104TIP3   OH230726   0.417   3.527   3.956 -0.0036  0.1617 -0.3534
 3104TIP3    H130727   0.501   3.570   3.967  0.1018 -0.3080  0.9584
 3104TIP3    H230728   0.428   3.442   3.999 -1.0422 -0.0352 -0.4432
 3105TIP3   OH230729   0.476   4.608   3.386  0.3449  0.0214 -0.5014
 3105TIP3    H130730   0.571   4.617   3.388  0.1917  1.8910  0.8613
 3105TIP3    H230731   0.450   4.648   3.303  0.6950  0.0092 -0.6184
 3106TIP3   OH230732   4.368   2.958  12.722 -0.6740 -0.2466 -0.6381
 3106TIP3    H130733   4.340   3.037  12.769  0.8852  0.2037 -0.4149
 3106TIP3    H230734   4.291   2.931  12.672 -1.5869  0.7432  0.1877
 3107TIP3   OH230735   3.486   5.926   3.772 -0.0876 -0.3489  0.4233
 3107TIP3    H130736   3.579   5.924   3.793  0.0142 -0.6124 -0.0390
 3107TIP3    H230737   3.472   5.848   3.718 -0.4768 -0.0528  0.0900
 3108TIP3   OH230738   4.624   2.637   5.293  0.3217 -0.3172  0.1683
 3108TIP3    H130739   4.638   2.678   5.379  0.6961  2.4563 -1.1157
 3108TIP3    H230740   4.538   2.668   5.265  0.8163 -0.0268 -1.0655
 3109TIP3   OH230741   2.168   0.308  11.053  0.5483  0.2291 -0.2821
 3109TIP3    H130742   2.232   0.244  11.023  1.1330 -0.1689  1.6662
 3109TIP3    H230743   2.089   0.257  11.071  0.4687  0.3281 -0.3478
 3110TIP3   OH230744   0.979   6.368   4.958 -0.1180  0.0350 -0.3623
 3110TIP3    H130745   1.024   6.307   5.016 -0.0587 -0.7205 -1.1789
 3110TIP3    H230746   1.012   6.455   4.983 -0.1440 -0.2591  0.7587
 3111TIP3   OH230747   4.559   3.903   3.434  0.0976 -0.2514 -0.4131
 3111TIP3    H130748   4.609   3.929   3.512 -0.3543  0.2976 -0.3007
 3111TIP3    H230749   4.547   3.984   3.385 -0.7861 -0.3506 -0.3811
 3112TIP3   OH230750   2.169   1.345   1.004 -0.0321 -0.4030  0.4725
 3112TIP3    H130751   2.214   1.430   0.998 -0.2434 -0.3112  0.1587
 3112TIP3    H230752   2.152   1.334   1.098  1.9923 -1.1570  0.8050
 3113TIP3   OH230753   4.461   2.480  14.901  0.0184  0.1850 -0.0937
 3113TIP3    H130754   4.520   2.551  14.927  1.1526 -0.5559 -0.5235
 3113TIP3    H230755   4.477   2.469  14.808 -1.3387  0.4182 -0.3722
 3114TIP3   OH230756   2.309   5.259  12.697  0.3375 -0.0431  0.0574
 3114TIP3    H130757   2.229   5.274  12.648 -0.4787 -1.3749  0.9109
 3114TIP3    H230758   2.351   5.185  12.653  1.3163  0.8707 -0.6053
 3115TIP3   OH230759   6.218   6.559   5.790 -0.4169  0.3546 -0.0215
 3115TIP3    H130760   6.194   6.515   5.871 -0.1740 -0.0828 -0.1863
 3115TIP3    H230761   6.244   6.647   5.818  0.8611 -0.1707  0.5417
 3116TIP3   OH230762   1.867   3.645  11.264 -0.2428  0.0907  0.2390
 3116TIP3    H130763   1.941   3.587  11.286  0.3993  0.7243 -0.2318
 3116TIP3    H230764   1.906   3.716  11.215 -1.5482 -1.0077 -2.6012
 3117TIP3   OH230765   1.601   6.300  16.704 -0.1772  0.1319  0.2594
 3117TIP3    H130766   1.589   6.207  16.719  1.5310 -0.6359 -2.4451
 3117TIP3    H230767   1.665   6.327  16.770 -0.5246 -0.6269  0.9210
 3118TIP3   OH230768   0.479   5.483   3.840 -0.3402  0.3339  0.1043
 3118TIP3    H130769   0.394   5.467   3.881  0.8488 -1.5379  2.0887
 3118TIP3    H230770   0.518   5.552   3.893  0.0077  0.0169  0.2701
 3119TIP3   OH230771   4.054   6.203  13.168 -0.2661  0.0616  0.0184
 3119TIP3    H130772   3.985   6.203  13.235  0.8721  1.1581  1.2442
 3119TIP3    H230773   4.077   6.295  13.158  0.7920 -0.2609 -0.6154
 3120TIP3   OH230774   5.467   2.926   3.200 -0.5704  0.3210 -0.1318
 3120TIP3    H130775   5.423   2.988   3.258 -0.3067  0.9627 -0.6086
 3120TIP3    H230776   5.546   2.901   3.248 -0.2626  0.9871 -0.2879
 3121TIP3   OH230777   5.670   5.337   1.936  0.6012 -0.3447 -0.0928
 3121TIP3    H130778   5.736   5.289   1.987  0.2056 -1.3942 -0.5450
 3121TIP3    H230779   5.606   5.366   2.002  1.4539  0.6118  0.3362
 3122TIP3   OH230780   1.926   1.544  14.334  0.5570  0.0258  0.2582
 3122TIP3    H130781   1.840   1.533  14.295 -0.5776  0.2757  2.5154
 3122TIP3    H230782   1.964   1.456  14.334 -0.6719 -0.5273  1.2901
 3123TIP3   OH230783   5.117   2.839  12.128 -0.6889  0.3886  0.0464
 3123TIP3    H130784   5.152   2.911  12.181  0.6954  0.8898 -1.4494
 3123TIP3    H230785   5.048   2.880  12.075 -0.0271  0.6130 -0.6695
 3124TIP3   OH230786   2.246   1.325  15.352 -0.3425 -0.2559 -0.0822
 3124TIP3    H130787   2.247   1.232  15.330 -0.1009 -0.2817  0.0432
 3124TIP3    H230788   2.253   1.370  15.268  2.1358 -0.3501  0.0154
 3125TIP3   OH230789   5.503   0.774   2.944  0.7000  0.0601 -0.1445
 3125TIP3    H130790   5.519   0.840   2.876  2.0881 -1.3378 -1.2642
 3125TIP3    H230791   5.466   0.700   2.896  0.7963 -0.6071  0.7975
 3126TIP3   OH230792   5.574   2.037  12.612  0.5711  0.2466 -0.1770
 3126TIP3    H130793   5.510   2.108  12.608  1.9421  1.5551  0.2524
 3126TIP3    H230794   5.580   2.004  12.522 -0.9670 -0.1778 -0.1466
 3127TIP3   OH230795   4.506   0.587   3.359  0.0336 -0.1368  0.0410
 3127TIP3    H130796   4.465   0.517   3.308  0.9416  0.6595 -1.8873
 3127TIP3    H230797   4.437   0.617   3.419 -0.8923 -1.5052 -0.2962
 3128TIP3   OH230798   5.697   4.639  15.266  0.0015  0.3826  0.2739
 3128TIP3    H130799   5.722   4.547  15.269  0.2384  0.4597  0.7497
 3128TIP3    H230800   5.777   4.685  15.239 -0.4205  0.3418 -1.1415
 3129TIP3   OH230801   0.982   4.600  14.508  0.4570 -0.3262  0.0984
 3129TIP3    H130802   1.004   4.512  14.477  0.5230 -0.3291  0.1551
 3129TIP3    H230803   0.994   4.656  14.431 -2.2434 -0.7650 -0.7640
 3130TIP3   OH230804   5.956   4.888   0.855 -0.7193  0.8207 -0.3929
 3130TIP3    H130805   6.030   4.835   0.825  0.9934  2.1063  1.2632
 3130TIP3    H230806   5.993   4.976   0.866 -2.5004  1.5121  0.5300
 3131TIP3   OH230807   5.493   5.652   2.197 -0.0866 -0.0836 -0.4137
 3131TIP3    H130808   5.464   5.561   2.191  1.0688 -0.4608 -0.6406
 3131TIP3    H230809   5.515   5.677   2.107  0.2089  0.2081 -0.2638
 3132TIP3   OH230810   3.624   4.536  17.074 -0.4196 -0.1985 -0.3435
 3132TIP3    H130811   3.640   4.446  17.045  0.8647 -0.1329  0.1118
 3132TIP3    H230812   3.686   4.589  17.024 -0.5963  0.3343 -0.0002
 3133TIP3   OH230813   5.434   5.035  12.123  0.2591 -0.0386 -0.6178
 3133TIP3    H130814   5.363   4.990  12.168 -2.0104  2.6324 -1.2555
 3133TIP3    H230815   5.476   5.087  12.192  2.3942 -2.3939 -0.0293
 3134TIP3   OH230816   1.651   2.325  12.605 -0.1900  0.9747  0.0242
 3134TIP3    H130817   1.678   2.410  12.571  3.4292  0.5450  1.3675
 3134TIP3    H230818   1.700   2.315  12.686  0.0327 -2.6348 -0.3925
 3135TIP3   OH230819   1.633   0.747  11.550 -0.2398  0.4707 -0.2784
 3135TIP3    H130820   1.542   0.773  11.538 -0.1104  0.4177 -1.5616
 3135TIP3    H230821   1.628   0.660  11.590 -0.6846  1.7051  2.5917
 3136TIP3   OH230822   3.865   3.561  15.714  0.0560 -0.5380 -0.0529
 3136TIP3    H130823   3.830   3.645  15.743  0.0721 -0.3246 -0.6384
 3136TIP3    H230824   3.906   3.580  15.629 -1.2699 -1.4384 -0.9215
 3137TIP3   OH230825   3.324   1.299   6.306 -0.2585  0.2125  0.3012
 3137TIP3    H130826   3.409   1.343   6.299 -0.2001  0.0103 -0.3452
 3137TIP3    H230827   3.265   1.352   6.252 -0.2874 -0.2371 -0.1252
 3138TIP3   OH230828   6.744   0.513  15.237  0.1713 -0.4718 -0.0380
 3138TIP3    H130829   6.743   0.557  15.322  0.5426  0.3385 -0.4292
 3138TIP3    H230830   6.771   0.424  15.256 -1.6963 -0.8706  0.9169
 3139TIP3   OH230831   3.633   0.812   3.116 -0.1157  0.5563 -0.1893
 3139TIP3    H130832   3.720   0.833   3.083  0.4341  1.8539  1.8953
 3139TIP3    H230833   3.598   0.896   3.147 -1.6851 -0.1226 -0.0108
 3140TIP3   OH230834   3.865   5.759   1.820  0.2872  0.0307 -0.4716
 3140TIP3    H130835   3.866   5.721   1.908 -3.3644 -2.8519 -1.3763
 3140TIP3    H230836   3.786   5.813   1.818 -1.7040 -2.6262 -2.6722
 3141TIP3   OH230837   3.758   0.500   6.730 -0.1393  0.7501  0.1556
 3141TIP3    H130838   3.793   0.544   6.808 -0.1785  0.5140  0.3089
 3141TIP3    H230839   3.818   0.525   6.660  0.8989 -0.3816  0.5963
 3142TIP3   OH230840   5.191   6.536  15.227 -0.1480 -0.3117 -0.7493
 3142TIP3    H130841   5.173   6.457  15.175 -2.5270  0.6209 -1.5142
 3142TIP3    H230842   5.214   6.602  15.161  2.6240 -0.4934 -0.0536
 3143TIP3   OH230843   1.774   0.315   0.126 -0.1344  0.0796  0.1814
 3143TIP3    H130844   1.860   0.318   0.085  0.2095  1.0844  0.9157
 3143TIP3    H230845   1.793   0.311   0.220 -0.8870  0.4613  0.3563
 3144TIP3   OH230846   0.593   4.330   5.782  0.0577 -0.7232  0.0946
 3144TIP3    H130847   0.688   4.318   5.773  0.2657 -0.5011  1.6340
 3144TIP3    H230848   0.584   4.388   5.858 -1.3505 -1.5652  0.5935
 3145TIP3   OH230849   6.751   4.479  12.487  0.1217  0.4017 -0.3464
 3145TIP3    H130850   6.666   4.512  12.457  0.9519  1.7981 -1.2819
 3145TIP3    H230851   6.783   4.546  12.546  0.8856  0.2338 -0.5663
 3146TIP3   OH230852   2.501   2.736  12.903  0.3817  0.1615  0.7164
 3146TIP3    H130853   2.538   2.824  12.893  0.0663  0.2312  0.0810
 3146TIP3    H230854   2.560   2.691  12.963 -0.6436  1.4965  2.8357
 3147TIP3   OH230855   2.355   6.307  16.898  0.5776 -0.8157  0.2243
 3147TIP3    H130856   2.398   6.387  16.928  1.2287 -1.4885  1.1445
 3147TIP3    H230857   2.420   6.238  16.912  0.4892 -1.3489 -1.7157
 3148TIP3   OH230858   1.066   5.775  12.345  0.1519  0.3118 -0.3823
 3148TIP3    H130859   0.990   5.773  12.402 -0.1162  0.8042 -0.7134
 3148TIP3    H230860   1.030   5.769  12.256  0.5899 -0.9372 -0.4923
 3149TIP3   OH230861   1.257   4.683   2.388 -0.0344  0.4039 -0.2956
 3149TIP3    H130862   1.194   4.618   2.418  0.1640  0.7988  1.0290
 3149TIP3    H230863   1.314   4.635   2.327  0.1150 -0.6764  0.6524
 3150TIP3   OH230864   3.053   1.571  17.148 -0.2750 -0.2767  0.3009
 3150TIP3    H130865   2.973   1.618  17.171  0.0656  0.5376 -0.1535
 3150TIP3    H230866   3.108   1.636  17.104  0.3090 -1.0308 -0.1157
 3151TIP3   OH230867   5.332   1.383   2.461  0.5461 -0.2104 -0.2205
 3151TIP3    H130868   5.345   1.289   2.470  0.7073 -0.1353  0.4165
 3151TIP3    H230869   5.237   1.394   2.464  0.5585 -0.2557  0.9421
 3152TIP3   OH230870   3.198   5.726  16.478 -0.0887 -0.1046 -0.0514
 3152TIP3    H130871   3.153   5.646  16.450  1.9734 -0.5884 -2.4017
 3152TIP3    H230872   3.272   5.694  16.531 -0.3925  0.3958  0.6782
 3153TIP3   OH230873   0.175   1.515  15.288  0.2305 -0.0167  0.3424
 3153TIP3    H130874   0.110   1.578  15.256 -1.6601  0.6686  4.7556
 3153TIP3    H230875   0.257   1.564  15.290 -0.3712  1.0306 -0.0327
 3154TIP3   OH230876   5.509   1.521   1.175  0.1969  0.1909 -0.2830
 3154TIP3    H130877   5.548   1.487   1.255 -0.3325  0.8716  0.2802
 3154TIP3    H230878   5.460   1.447   1.139 -0.2861  0.1220  0.4978
 3155TIP3   OH230879   4.821   3.128  11.416 -0.1232  0.1276 -0.1824
 3155TIP3    H130880   4.734   3.088  11.411 -1.8704  2.6143  4.3258
 3155TIP3    H230881   4.812   3.211  11.369  0.0283  0.1028 -0.2564
 3156TIP3   OH230882   6.166   1.469  16.429  0.5906  0.2484  0.4216
 3156TIP3    H130883   6.158   1.498  16.519 -1.8818  0.0721  0.3079
 3156TIP3    H230884   6.117   1.533  16.378 -0.0394 -0.9293 -0.4939
 3157TIP3   OH230885   2.563   1.751   0.213 -0.1048 -0.0999 -0.3362
 3157TIP3    H130886   2.621   1.827   0.206  0.3424 -0.5470 -1.7166
 3157TIP3    H230887   2.493   1.768   0.151 -1.2193  0.1893  0.9499
 3158TIP3   OH230888   6.269   2.241   2.597 -0.8266  0.0608 -0.8860
 3158TIP3    H130889   6.227   2.180   2.658 -0.1637  0.2833 -0.1863
 3158TIP3    H230890   6.201   2.262   2.533 -1.4140 -0.4998 -0.4543
 3159TIP3   OH230891   3.316   3.166  12.506 -0.1902  0.3390  0.3680
 3159TIP3    H130892   3.348   3.241  12.556  0.0793 -0.6947  1.8119
 3159TIP3    H230893   3.391   3.140  12.452 -0.6681  1.8259 -1.0909
 3160TIP3   OH230894   2.936   2.973  16.816  0.2119  0.1593  0.2508
 3160TIP3    H130895   2.965   2.992  16.727 -1.2681  2.5087  0.1912
 3160TIP3    H230896   3.007   3.003  16.872  0.4118  0.2825 -0.0676
 3161TIP3   OH230897   0.706   1.498  12.634  0.7444  0.0794 -0.2037
 3161TIP3    H130898   0.682   1.460  12.549 -1.1338 -1.4367  0.9164
 3161TIP3    H230899   0.698   1.426  12.696 -0.8218  1.7646  1.7084
 3162TIP3   OH230900   2.445   3.679   4.127 -0.0877 -0.2331  0.0484
 3162TIP3    H130901   2.453   3.677   4.032  0.2775 -0.9200  0.0898
 3162TIP3    H230902   2.367   3.732   4.143 -1.0721 -1.4053 -0.6862
 3163TIP3   OH230903   1.529   1.245   6.726 -0.4682  0.0415  0.0256
 3163TIP3    H130904   1.598   1.184   6.753 -0.4313 -0.1854 -0.5639
 3163TIP3    H230905   1.514   1.225   6.634 -1.3568  0.0642  0.1554
 3164TIP3   OH230906   6.781   3.662   4.167  0.0506 -0.2384  0.1266
 3164TIP3    H130907   6.855   3.699   4.118  0.0305 -1.8852 -1.2271
 3164TIP3    H230908   6.703   3.698   4.123  0.0375 -1.0022 -0.4820
 3165TIP3   OH230909   2.199   6.045  14.008  0.5000 -0.0175  0.0777
 3165TIP3    H130910   2.159   6.062  14.093  2.9993 -2.1452  1.8207
 3165TIP3    H230911   2.258   5.971  14.023  2.0802  0.3983 -3.2028
 3166TIP3   OH230912   4.060   2.679  11.884  0.2201  0.7755  0.4258
 3166TIP3    H130913   4.113   2.664  11.805  1.4231 -1.2696  1.5372
 3166TIP3    H230914   3.995   2.609  11.883 -1.6255  2.3891 -0.1341
 3167TIP3   OH230915   4.266   5.214   2.248  0.6603 -0.7455 -0.0959
 3167TIP3    H130916   4.199   5.167   2.198  1.0097  0.7897 -2.1578
 3167TIP3    H230917   4.345   5.162   2.237  1.1248  0.3824 -2.6363
 3168TIP3   OH230918   5.075   1.381   0.831  0.0289  0.2528  0.4629
 3168TIP3    H130919   5.089   1.474   0.853  3.3929  0.3337 -1.2901
 3168TIP3    H230920   5.114   1.334   0.905  2.0883  0.3945 -0.4506
 3169TIP3   OH230921   3.552   3.643   4.980 -0.3365  0.1076 -0.1396
 3169TIP3    H130922   3.529   3.727   5.020  1.5190 -1.9879  6.6582
 3169TIP3    H230923   3.638   3.659   4.940 -0.7265  1.7319 -0.4072
 3170TIP3   OH230924   1.781   2.978  15.499 -0.2380 -0.2140 -0.0156
 3170TIP3    H130925   1.855   2.954  15.554  0.5669 -2.8832 -2.0359
 3170TIP3    H230926   1.754   2.895  15.459 -2.5013  1.1591 -1.5222
 3171TIP3   OH230927   4.523   5.731   3.094  0.4183 -0.0420 -0.4031
 3171TIP3    H130928   4.544   5.785   3.170  0.4932 -0.3767 -0.1833
 3171TIP3    H230929   4.540   5.787   3.019 -3.3391  1.7157 -0.1619
 3172TIP3   OH230930   2.299   3.517   0.368  0.1515 -0.2462 -0.3752
 3172TIP3    H130931   2.313   3.602   0.326  0.7374 -1.0526 -1.8910
 3172TIP3    H230932   2.367   3.511   0.435  0.7265  0.0772 -0.9262
 3173TIP3   OH230933   3.942   6.117  14.169  0.2740  0.1045  0.1802
 3173TIP3    H130934   3.896   6.039  14.138  1.4217 -0.2391 -0.7368
 3173TIP3    H230935   4.000   6.085  14.238  0.6221  0.1783 -0.0769
 3174TIP3   OH230936   1.107   4.340   4.537 -0.5292 -0.5044  0.3971
 3174TIP3    H130937   1.062   4.370   4.459 -2.1665  0.8962  1.7924
 3174TIP3    H230938   1.141   4.253   4.514 -2.1066 -0.6939 -1.4257
 3175TIP3   OH230939   0.063   5.474   1.560  0.9806  0.0602 -0.1962
 3175TIP3    H130940   0.023   5.516   1.484 -1.5755 -0.4006  0.7891
 3175TIP3    H230941  -0.011   5.450   1.616  2.7095 -0.4420  2.0291
 3176TIP3   OH230942   5.189   0.483  10.483  0.6890 -0.1785  0.3962
 3176TIP3    H130943   5.149   0.423  10.419 -0.2561  0.0657  0.7537
 3176TIP3    H230944   5.225   0.554  10.429 -0.7585  0.4085  0.1676
 3177TIP3   OH230945   5.758   6.600  10.555 -0.2872  0.6183  0.0541
 3177TIP3    H130946   5.788   6.512  10.531 -0.1744 -0.0761  2.4811
 3177TIP3    H230947   5.831   6.657  10.529 -0.1939 -0.0188 -1.1825
 3178TIP3   OH230948   2.481   0.231  12.658  0.6008 -0.3033  0.2156
 3178TIP3    H130949   2.428   0.311  12.664 -0.6542 -1.1220  0.3938
 3178TIP3    H230950   2.518   0.234  12.569  3.0779  1.9475  1.1788
 3179TIP3   OH230951   4.578   5.761  14.250 -0.1797  0.1775 -0.1460
 3179TIP3    H130952   4.588   5.815  14.329 -1.0313 -0.6424  0.5569
 3179TIP3    H230953   4.657   5.778  14.199  2.0238 -1.6488  2.3645
 3180TIP3   OH230954   0.976   4.539  16.311  0.1614 -0.1501  0.0480
 3180TIP3    H130955   1.058   4.588  16.313  0.0085  0.1632 -0.7995
 3180TIP3    H230956   0.909   4.607  16.302 -0.0567 -0.4923 -1.0649
 3181TIP3   OH230957   5.879   0.141  12.847 -0.4476 -0.2917  0.3442
 3181TIP3    H130958   5.853   0.155  12.938 -0.1315 -1.0886  0.5656
 3181TIP3    H230959   5.820   0.073  12.815 -1.0373  0.4937 -0.2821
 3182TIP3   OH230960   4.538   5.845  14.592  0.6108 -0.0676  0.0329
 3182TIP3    H130961   4.581   5.837  14.677  0.1686 -1.0298  0.1674
 3182TIP3    H230962   4.610   5.854  14.530  1.2691 -4.1600 -0.0652
 3183TIP3   OH230963   1.469   3.863  14.834  0.3545  0.4705 -0.0456
 3183TIP3    H130964   1.519   3.868  14.753 -1.0368  2.8637 -0.8731
 3183TIP3    H230965   1.378   3.852  14.805 -0.1739  1.4785  1.1336
 3184TIP3   OH230966   4.315   4.572  12.241 -0.4548  0.1091 -0.3798
 3184TIP3    H130967   4.372   4.521  12.183 -0.8450 -0.6569 -0.0988
 3184TIP3    H230968   4.314   4.659  12.203  0.2473 -0.0867 -0.8538
 3185TIP3   OH230969   5.551   5.166   3.224  0.1244 -0.2260  0.0649
 3185TIP3    H130970   5.472   5.212   3.253 -0.9342 -2.1383  0.3975
 3185TIP3    H230971   5.576   5.211   3.144 -1.5496  0.2042 -0.2705
 3186TIP3   OH230972   3.392   0.239   0.890  0.0820 -0.2801 -0.3836
 3186TIP3    H130973   3.326   0.170   0.899  0.4884 -0.4430  1.7824
 3186TIP3    H230974   3.454   0.203   0.826  0.4951 -2.1543  0.9793
 3187TIP3   OH230975   4.567   0.559   0.092  0.0801  1.1369 -0.3879
 3187TIP3    H130976   4.521   0.522   0.016  0.5516  0.4834 -0.3637
 3187TIP3    H230977   4.660   0.546   0.073  0.2034  0.9794  0.2916
 3188TIP3   OH230978   0.987   4.379   1.401 -0.0633  0.4408  0.0358
 3188TIP3    H130979   0.943   4.415   1.478  0.1038  0.0969  0.2943
 3188TIP3    H230980   1.033   4.302   1.434 -0.9745 -0.4222 -0.6417
 3189TIP3   OH230981   4.935   1.452  11.825 -0.0238 -0.0340 -0.0871
 3189TIP3    H130982   4.965   1.540  11.800  0.8523 -0.2920  0.0009
 3189TIP3    H230983   4.901   1.463  11.914 -0.7140  0.3750 -0.3926
 3190TIP3   OH230984   4.897   6.165   5.490 -0.1279  0.3543 -0.5692
 3190TIP3    H130985   4.858   6.226   5.427 -1.2583 -0.6419 -0.8755
 3190TIP3    H230986   4.987   6.197   5.501 -0.9459  2.6542  0.0748
 3191TIP3   OH230987   1.596   4.570   5.653  0.1475 -0.0764  0.8834
 3191TIP3    H130988   1.527   4.513   5.619  1.2617 -0.5087 -0.8131
 3191TIP3    H230989   1.576   4.580   5.746 -2.1100 -0.2691  0.4699
 3192TIP3   OH230990   6.577   2.553  14.438  0.5885 -0.4479 -0.2500
 3192TIP3    H130991   6.644   2.566  14.371 -0.6773  0.8118 -1.3345
 3192TIP3    H230992   6.498   2.595  14.402 -0.5970 -1.2431  1.2869
 3193TIP3   OH230993   5.837   5.654  14.985  0.5191 -0.8499  0.0808
 3193TIP3    H130994   5.833   5.669  15.080  0.7009 -0.7820  0.0783
 3193TIP3    H230995   5.845   5.560  14.976  1.3407 -0.7936  0.1636
 3194TIP3   OH230996   0.706   0.261  14.497 -0.4114  0.0016 -0.3197
 3194TIP3    H130997   0.629   0.295  14.451  0.5617 -0.3649 -2.3109
 3194TIP3    H230998   0.777   0.320  14.474  0.7698 -1.9129 -1.8920
 3195TIP3   OH230999   2.277   0.705  13.766  0.1079 -0.1275  0.5710
 3195TIP3    H131000   2.315   0.776  13.817 -1.8356  1.1197  0.4217
 3195TIP3    H231001   2.344   0.683  13.702  1.4760  0.2665  1.8209
 3196TIP3   OH231002   6.106   2.208  16.207 -0.3974 -0.5162  0.3805
 3196TIP3    H131003   6.016   2.178  16.214 -0.8298  0.1092 -1.6867
 3196TIP3    H231004   6.154   2.159  16.274 -2.2392 -0.9052  1.4690
 3197TIP3   OH231005   3.910   2.514   5.378 -0.2066 -0.1602 -0.0500
 3197TIP3    H131006   3.910   2.550   5.466 -1.1819  1.2056 -0.5656
 3197TIP3    H231007   3.913   2.591   5.321 -3.6603 -0.7607 -1.2313
 3198TIP3   OH231008   5.302   6.014  11.008 -0.9472 -0.2820  0.0609
 3198TIP3    H131009   5.288   6.000  10.914 -1.0552 -1.6811  0.2598
 3198TIP3    H231010   5.312   6.109  11.017 -1.9070 -0.0258 -1.2298
 3199TIP3   OH231011   6.310   4.211   2.522 -0.0837 -0.0965  0.3729
 3199TIP3    H131012   6.379   4.277   2.514 -1.6049  1.7200  1.3562
 3199TIP3    H231013   6.301   4.198   2.616 -0.6641 -0.7515  0.2312
 3200TIP3   OH231014   1.977   3.647  15.424  0.3529 -0.3650  0.2502
 3200TIP3    H131015   2.023   3.563  15.432 -1.9530 -1.5708  2.2536
 3200TIP3    H231016   1.971   3.679  15.514  1.8676  2.4336 -0.5479
 3201TIP3   OH231017   5.263   0.039   3.282 -0.1870 -0.0687  0.0255
 3201TIP3    H131018   5.320   0.098   3.330  0.1891 -0.5697  0.2033
 3201TIP3    H231019   5.236  -0.027   3.347 -0.4902 -0.1686 -0.1989
 3202TIP3   OH231020   2.096   3.487  11.376  0.2640  0.2960 -0.0687
 3202TIP3    H131021   2.076   3.417  11.437  0.4287 -0.8638 -1.2932
 3202TIP3    H231022   2.178   3.525  11.408  0.9433 -1.0209 -0.1584
 3203TIP3   OH231023   5.390   4.080   2.845  0.0104 -0.1746  0.1786
 3203TIP3    H131024   5.346   4.044   2.922 -3.3642  1.0477 -0.9484
 3203TIP3    H231025   5.454   4.014   2.820 -0.4654 -1.6761  2.6473
 3204TIP3   OH231026   4.607   3.751   3.829 -0.6323 -0.2543 -0.4874
 3204TIP3    H131027   4.630   3.686   3.895 -2.2888 -0.3620  0.0347
 3204TIP3    H231028   4.557   3.817   3.876  2.2704  2.3098 -0.6698
 3205TIP3   OH231029   1.105   0.363   5.375  0.1319  0.6456 -0.2586
 3205TIP3    H131030   1.074   0.419   5.304  1.0885  1.7905  0.2096
 3205TIP3    H231031   1.157   0.295   5.331 -0.2152  0.6859 -0.7386
 3206TIP3   OH231032   2.764   3.184  13.151 -0.2889 -0.2192 -0.2277
 3206TIP3    H131033   2.770   3.129  13.229  0.7134 -0.0378 -0.1616
 3206TIP3    H231034   2.852   3.182  13.113 -0.4738  0.5967 -0.7298
 3207TIP3   OH231035   4.036   1.407   6.112  0.1407  0.3999  0.6082
 3207TIP3    H131036   4.127   1.388   6.091  0.9605  0.9272  3.3586
 3207TIP3    H231037   4.016   1.353   6.189 -1.2917  1.6059  1.1438
 3208TIP3   OH231038   6.361   3.078   0.103  0.3069  0.2734  0.1326
 3208TIP3    H131039   6.267   3.060   0.106  0.4066 -0.5118 -0.7671
 3208TIP3    H231040   6.375   3.147   0.168 -1.0554  1.1220 -0.4294
 3209TIP3   OH231041   0.249   6.394  12.245 -0.1158 -0.1309 -0.6475
 3209TIP3    H131042   0.302   6.467  12.213 -0.7545  0.6411 -0.0019
 3209TIP3    H231043   0.197   6.367  12.170 -0.6188  0.7735 -0.6384
 3210TIP3   OH231044   1.846   6.209  16.110 -0.6562  0.4633  0.2521
 3210TIP3    H131045   1.754   6.197  16.087 -0.5089  0.0914 -0.1446
 3210TIP3    H231046   1.856   6.304  16.116 -1.2674  0.4807  1.1382
 3211TIP3   OH231047   1.595   2.889  11.647 -0.4813  0.0187  0.6396
 3211TIP3    H131048   1.594   2.975  11.605  2.4454  1.3028  2.8545
 3211TIP3    H231049   1.670   2.844  11.610 -0.6128 -0.6635  1.1664
 3212TIP3   OH231050   4.855   1.097   4.454 -0.1318  0.0844 -0.2219
 3212TIP3    H131051   4.772   1.063   4.421  0.2994  0.2079 -1.4921
 3212TIP3    H231052   4.898   1.134   4.377  0.4228  1.4358  0.6976
 3213TIP3   OH231053   2.656   1.219   1.886  0.6060 -0.8865  0.7534
 3213TIP3    H131054   2.712   1.295   1.898  2.0836 -1.9423  0.7633
 3213TIP3    H231055   2.568   1.251   1.908  1.2435  0.6951  1.1570
 3214TIP3   OH231056   5.325   2.233   5.220  0.0179  0.3270  0.3573
 3214TIP3    H131057   5.396   2.193   5.170 -0.1685 -0.8854  1.0226
 3214TIP3    H231058   5.318   2.180   5.299 -0.5838  1.3912  1.0547
 3215TIP3   OH231059   6.112   6.074   5.760 -0.0287 -0.5360  0.3728
 3215TIP3    H131060   6.149   6.129   5.691  1.1677 -2.2288 -0.4001
 3215TIP3    H231061   6.154   6.106   5.840  1.6185 -1.0766 -0.2283
 3216TIP3   OH231062   3.257   3.745   5.651 -0.6470 -0.0683 -0.0362
 3216TIP3    H131063   3.194   3.817   5.652 -0.4055  0.3704 -3.4925
 3216TIP3    H231064   3.342   3.788   5.653 -0.3990 -0.5433  1.8436
 3217TIP3   OH231065   1.928   4.364  13.761 -0.6119 -0.3778  0.0493
 3217TIP3    H131066   1.882   4.412  13.829  1.7601  1.8162  0.2195
 3217TIP3    H231067   2.013   4.341  13.799  0.5235  0.3389 -1.9003
 3218TIP3   OH231068   0.749   4.178   6.139  0.4772 -0.4214  0.4392
 3218TIP3    H131069   0.825   4.162   6.083 -0.5247  3.3024 -2.3876
 3218TIP3    H231070   0.764   4.266   6.175 -1.8608 -0.1499  0.8987
 3219TIP3   OH231071   4.314   1.774  14.905  0.6929  0.4959  0.0339
 3219TIP3    H131072   4.383   1.752  14.842 -1.3563 -1.8151 -1.5672
 3219TIP3    H231073   4.348   1.743  14.989  1.5219 -0.8645 -0.7664
 3220TIP3   OH231074   0.118   2.592  15.927  0.4167  0.6426 -0.0840
 3220TIP3    H131075   0.177   2.623  15.996  0.3063  1.8379 -0.5008
 3220TIP3    H231076   0.113   2.665  15.866  1.9661 -1.0034 -2.3640
 3221TIP3   OH231077   2.337   0.276  15.568  0.0687 -0.4189 -0.3320
 3221TIP3    H131078   2.295   0.326  15.638 -1.3753 -1.7940 -0.1659
 3221TIP3    H231079   2.416   0.327  15.546 -0.1235  0.6982  1.3889
 3222TIP3   OH231080   1.804   3.979   3.924  0.2256  0.3522  0.2672
 3222TIP3    H131081   1.822   4.070   3.945 -0.5259  0.3817  0.8300
 3222TIP3    H231082   1.886   3.934   3.942 -0.0037  0.5837  2.1259
 3223TIP3   OH231083   0.594   5.239   2.840  0.2943  0.2673 -0.5877
 3223TIP3    H131084   0.553   5.320   2.871 -0.4616 -0.9780  1.9022
 3223TIP3    H231085   0.686   5.249   2.864 -0.0846 -0.2185  1.2342
 3224TIP3   OH231086   2.710   3.745   0.867  0.2250  0.3916 -0.0167
 3224TIP3    H131087   2.625   3.784   0.846 -0.1494  0.8362  2.0984
 3224TIP3    H231088   2.766   3.819   0.887 -0.0827 -0.0130  2.5952
 3225TIP3   OH231089   0.525   0.536  16.326  0.3059  0.3585 -0.3144
 3225TIP3    H131090   0.453   0.511  16.384  0.6289 -0.2625 -0.1707
 3225TIP3    H231091   0.490   0.608  16.274  0.0882  1.0901  0.8056
 3226TIP3   OH231092   2.235   1.005   2.320 -0.0683 -0.1990 -0.0014
 3226TIP3    H131093   2.197   1.018   2.407  0.7168  0.8709  0.1990
 3226TIP3    H231094   2.256   0.912   2.317  0.9712 -0.0557  1.4262
 3227TIP3   OH231095   3.802   0.504  14.122  0.3841  0.1693  0.8103
 3227TIP3    H131096   3.779   0.421  14.165  0.8912 -0.3074  0.1789
 3227TIP3    H231097   3.897   0.506  14.123  0.4325 -0.0927 -0.7176
 3228TIP3   OH231098   3.440   4.116   0.104 -0.3355  0.6497 -0.0355
 3228TIP3    H131099   3.445   4.186   0.039 -1.0233  0.3069 -0.4709
 3228TIP3    H231100   3.391   4.046   0.060 -0.2041  0.1443  0.6116
 3229TIP3   OH231101   6.362   6.503  11.498 -0.3078 -0.6641  0.0885
 3229TIP3    H131102   6.321   6.489  11.412 -1.3810  1.2973  0.2177
 3229TIP3    H231103   6.438   6.557  11.479  0.0716 -1.1400  0.2605
 3230TIP3   OH231104   3.884   2.959  16.686  0.5336  0.6872  0.3967
 3230TIP3    H131105   3.920   3.045  16.708 -0.3972  1.1137  0.3136
 3230TIP3    H231106   3.955   2.898  16.704  1.9910  1.6636 -1.6542
 3231TIP3   OH231107   3.907   5.054  13.618  0.5986 -0.0549 -0.6156
 3231TIP3    H131108   3.918   5.025  13.708 -1.1410 -0.1724 -0.3940
 3231TIP3    H231109   3.924   5.148  13.622  1.6763 -0.2466 -0.4113
 3232TIP3   OH231110   0.126   5.267  14.444 -0.4395 -0.6127 -0.2568
 3232TIP3    H131111   0.115   5.293  14.535  1.3825 -1.0378  0.1444
 3232TIP3    H231112   0.056   5.310  14.397  1.2905  3.6265  0.6070
 3233TIP3   OH231113   5.215   5.805  15.391 -0.5619 -0.4447  0.4785
 3233TIP3    H131114   5.183   5.894  15.408  0.1503 -0.3796  1.6878
 3233TIP3    H231115   5.266   5.784  15.470  1.5786 -0.8650 -0.9469
 3234TIP3   OH231116   5.117   1.638   2.386  0.0051  0.4946 -0.4482
 3234TIP3    H131117   5.079   1.707   2.442 -0.7139 -0.2705  0.0248
 3234TIP3    H231118   5.201   1.675   2.357 -0.1121  1.3497  0.2448
 3235TIP3   OH231119   1.355   4.446  13.989 -0.1582 -0.1294  0.0112
 3235TIP3    H131120   1.383   4.491  13.909 -1.3313  1.0749  0.2279
 3235TIP3    H231121   1.424   4.462  14.052 -0.1684  0.6784 -0.1741
 3236TIP3   OH231122   1.922   0.083  15.480 -0.7518 -0.1306 -0.1822
 3236TIP3    H131123   1.923   0.150  15.411 -4.3769  0.5263  0.1771
 3236TIP3    H231124   1.954   0.129  15.558  1.1298 -0.2028 -0.8756
 3237TIP3   OH231125   1.379   4.641  10.928 -0.0665 -0.0593 -0.0752
 3237TIP3    H131126   1.394   4.628  10.834  0.4933 -1.8557  0.2165
 3237TIP3    H231127   1.296   4.687  10.933 -0.4585 -0.5665 -1.4463
 3238TIP3   OH231128   0.867   4.322   3.628  0.0098 -0.4506 -0.0432
 3238TIP3    H131129   0.890   4.280   3.711  0.7485  0.4592  0.2261
 3238TIP3    H231130   0.907   4.266   3.562  1.6193  0.1860  0.3442
 3239TIP3   OH231131   4.683   0.838   3.841  0.0342 -0.1840 -0.2060
 3239TIP3    H131132   4.685   0.931   3.819 -0.6862 -0.5422 -1.8720
 3239TIP3    H231133   4.620   0.800   3.781 -0.1218 -1.6764  0.8415
 3240TIP3   OH231134   1.349   2.033   2.676  0.1991 -0.3364 -0.3901
 3240TIP3    H131135   1.311   2.092   2.741  0.7357 -1.3171  0.8657
 3240TIP3    H231136   1.443   2.043   2.686  0.3307 -1.9842  0.4766
 3241TIP3   OH231137   2.600   3.833   0.268  0.5778 -0.2302  0.2369
 3241TIP3    H131138   2.621   3.798   0.355 -3.0015 -0.5122  1.1697
 3241TIP3    H231139   2.607   3.928   0.279 -0.0602 -0.2532  0.9244
 3242TIP3   OH231140   4.523   1.571  13.179  0.1066  0.3770  0.4752
 3242TIP3    H131141   4.460   1.505  13.208 -0.8530  1.2403  0.4089
 3242TIP3    H231142   4.550   1.614  13.260  0.5393  0.0816  0.4912
 3243TIP3   OH231143   5.386   2.291   0.744 -0.7358 -0.8775 -0.5907
 3243TIP3    H131144   5.326   2.226   0.708 -0.4831 -3.1294  2.5918
 3243TIP3    H231145   5.334   2.340   0.807 -0.5567  1.1844 -1.9450
 3244TIP3   OH231146   1.379   3.667   5.674  0.4278  0.2400  0.0367
 3244TIP3    H131147   1.401   3.755   5.643 -2.7547  0.8373 -0.9165
 3244TIP3    H231148   1.317   3.681   5.746  0.6836 -1.2246  0.5771
 3245TIP3   OH231149   2.329   2.721   2.530  0.2774  0.0097 -0.7624
 3245TIP3    H131150   2.411   2.681   2.502 -0.3941 -1.6212 -0.4753
 3245TIP3    H231151   2.356   2.801   2.575  1.6583 -0.1273 -1.2909
 3246TIP3   OH231152   6.617   3.915   4.491  0.4296 -0.1854 -0.3062
 3246TIP3    H131153   6.631   3.922   4.396  1.1896 -0.9161 -0.2660
 3246TIP3    H231154   6.622   4.005   4.523 -1.9713  0.3384 -1.2053
 3247TIP3   OH231155   4.458   2.466  15.443  0.4068 -0.5086 -0.7326
 3247TIP3    H131156   4.452   2.421  15.527 -1.8510 -1.3631 -1.2598
 3247TIP3    H231157   4.467   2.396  15.379 -0.5852 -0.0768 -1.3771
 3248TIP3   OH231158   5.512   4.758  11.225  0.3397  0.7662  0.0355
 3248TIP3    H131159   5.420   4.733  11.228 -0.3101  2.9832 -0.2329
 3248TIP3    H231160   5.548   4.705  11.153 -1.4686  2.0502 -1.9259
 3249TIP3   OH231161   5.290   3.169   4.924 -0.4075 -0.2910  0.2815
 3249TIP3    H131162   5.308   3.252   4.879  1.0556 -0.6134  0.2296
 3249TIP3    H231163   5.322   3.182   5.013 -0.4393 -0.6983  0.3537
 3250TIP3   OH231164   0.473   5.768  12.208  0.4380  0.0631  0.3627
 3250TIP3    H131165   0.383   5.784  12.180 -0.1973  2.8221  3.3874
 3250TIP3    H231166   0.521   5.845  12.180  1.2002 -0.1150  1.1224
 3251TIP3   OH231167   1.886   3.495  11.832 -0.3844 -0.1318  0.4158
 3251TIP3    H131168   1.887   3.465  11.923 -0.5224  0.5842  0.6564
 3251TIP3    H231169   1.904   3.589  11.837 -0.8410 -0.0016 -0.2623
 3252TIP3   OH231170   2.365   2.050  15.808 -0.8246 -0.6458 -0.1195
 3252TIP3    H131171   2.403   1.973  15.851 -1.2550 -0.3786  0.7514
 3252TIP3    H231172   2.431   2.077  15.745 -0.7622 -1.8728 -0.6099
 3253TIP3   OH231173   6.219   3.279   4.428  0.9931  0.2489  0.6067
 3253TIP3    H131174   6.264   3.268   4.511  0.4083  0.3022  0.9353
 3253TIP3    H231175   6.176   3.195   4.412  0.2065  0.5769  0.9082
 3254TIP3   OH231176   6.278   3.762  15.470  0.2235 -0.7378 -0.0920
 3254TIP3    H131177   6.369   3.788  15.454  0.4080  0.3457  2.2352
 3254TIP3    H231178   6.283   3.669  15.490  1.2060 -0.3027  2.0386
 3255TIP3   OH231179   3.183   2.080   1.457  0.2365  0.0825  0.8202
 3255TIP3    H131180   3.175   2.067   1.552  0.0076  1.9324  1.0823
 3255TIP3    H231181   3.093   2.080   1.425  0.3000 -0.2459  0.6328
 3256TIP3   OH231182   4.285   5.180  12.202 -0.1057  0.3761 -0.1201
 3256TIP3    H131183   4.354   5.246  12.212  0.9226 -0.6280 -0.5002
 3256TIP3    H231184   4.328   5.105  12.161 -1.3214 -0.4418  0.0424
 3257TIP3   OH231185   2.415   3.767  15.775  0.6448  0.0641  0.4486
 3257TIP3    H131186   2.494   3.729  15.813  0.6255 -0.2820  0.1536
 3257TIP3    H231187   2.375   3.694  15.727  1.4393  0.8365 -1.4823
 3258TIP3   OH231188   1.507   2.011  15.400 -0.1659  0.0543  0.2029
 3258TIP3    H131189   1.548   2.080  15.453  0.3334  0.1279 -0.2712
 3258TIP3    H231190   1.486   2.054  15.317 -2.4714  0.3898  0.8904
 3259TIP3   OH231191   0.142   5.476   0.283 -0.2727  0.1829 -0.4646
 3259TIP3    H131192   0.231   5.441   0.292  0.4130  1.5275 -1.6145
 3259TIP3    H231193   0.120   5.463   0.191 -0.1340  2.3765 -0.8543
 3260TIP3   OH231194   1.513   2.686  13.511 -0.0237 -0.1981  0.1295
 3260TIP3    H131195   1.492   2.733  13.430 -0.3599  0.4478  0.5914
 3260TIP3    H231196   1.455   2.610  13.509 -0.7167  0.3225  0.2306
 3261TIP3   OH231197   5.418   0.342   4.713 -0.2043  0.0397  0.1881
 3261TIP3    H131198   5.471   0.399   4.768  0.0730  1.5981 -1.6235
 3261TIP3    H231199   5.427   0.255   4.754  3.8610  0.1359 -0.0966
 3262TIP3   OH231200   6.085   3.017   0.104  0.1414  0.5423  0.4402
 3262TIP3    H131201   6.016   2.965   0.145 -0.2679  0.1148 -0.7461
 3262TIP3    H231202   6.075   3.104   0.142 -0.6106  0.3106  0.7968
 3263TIP3   OH231203   5.819   5.339  15.562 -0.2570  0.6203 -1.0295
 3263TIP3    H131204   5.897   5.389  15.586  0.3702 -0.0843 -1.5453
 3263TIP3    H231205   5.776   5.320  15.645  2.5775 -2.9465 -0.1208
 3264TIP3   OH231206   2.989   2.660  16.280 -0.4176  0.0597  0.1448
 3264TIP3    H131207   2.987   2.736  16.220 -0.8262 -1.5296 -1.9769
 3264TIP3    H231208   3.032   2.591  16.229  1.5590 -0.6951  2.6623
 3265TIP3   OH231209   4.611   3.279  13.862 -0.2631 -0.5136 -0.5757
 3265TIP3    H131210   4.637   3.350  13.803  0.8436 -0.2847  0.1624
 3265TIP3    H231211   4.639   3.308  13.949 -0.3994 -1.5554 -0.1689
 3266TIP3   OH231212   5.308   0.935  15.833  1.0892 -0.5603  0.3381
 3266TIP3    H131213   5.384   0.913  15.779  1.6411 -0.4788  1.0653
 3266TIP3    H231214   5.263   0.852  15.847  0.6301 -0.4994 -0.6984
 3267TIP3   OH231215   0.791   3.157  12.959 -0.5555 -0.0271  0.1470
 3267TIP3    H131216   0.832   3.241  12.980 -0.7092 -0.3945  2.0885
 3267TIP3    H231217   0.699   3.179  12.941 -0.2518  0.3927 -0.9934
 3268TIP3   OH231218   0.199   5.647   1.307  0.4419 -0.5055  0.3435
 3268TIP3    H131219   0.234   5.561   1.282  0.4465 -0.8894  1.5792
 3268TIP3    H231220   0.135   5.667   1.239  1.0155 -1.1074 -0.4060
 3269TIP3   OH231221   4.874   2.357  14.259  0.5265  0.4428  0.8309
 3269TIP3    H131222   4.820   2.432  14.232 -0.9357 -0.4085  1.2372
 3269TIP3    H231223   4.939   2.348  14.190 -0.0971  1.2769  0.1063
 3270TIP3   OH231224   2.601   4.514  16.418  0.4330  0.2740 -0.4153
 3270TIP3    H131225   2.685   4.474  16.395  0.5913 -0.0195  0.6199
 3270TIP3    H231226   2.622   4.605  16.439  0.6469 -0.0251  0.7148
 3271TIP3   OH231227   1.769   6.471  16.194 -0.0881  0.3937  0.7190
 3271TIP3    H131228   1.678   6.497  16.209 -1.2981 -1.6457 -2.2079
 3271TIP3    H231229   1.806   6.541  16.141 -1.0384 -0.2274 -0.8422
 3272TIP3   OH231230   2.331   1.824   3.022  0.7044  0.4986 -0.6736
 3272TIP3    H131231   2.344   1.838   3.116 -1.6049 -1.4293  0.0402
 3272TIP3    H231232   2.306   1.910   2.989 -0.6953  0.8034  0.9844
 3273TIP3   OH231233   4.573   5.995   2.129  0.0317 -0.0159  0.3104
 3273TIP3    H131234   4.519   6.062   2.087 -1.1781 -0.8353  0.4770
 3273TIP3    H231235   4.657   6.037   2.144 -0.0509  0.8306 -1.3820
 3274TIP3   OH231236   0.987   4.688   3.095  0.0206 -0.6630  0.0650
 3274TIP3    H131237   0.907   4.724   3.134  0.7173  1.1585 -0.0738
 3274TIP3    H231238   1.018   4.758   3.037 -0.0452 -2.5945 -2.4700
 3275TIP3   OH231239   1.542   3.825   6.263 -0.2400  0.6332 -0.9942
 3275TIP3    H131240   1.508   3.853   6.348  0.8745 -0.6658 -0.0859
 3275TIP3    H231241   1.619   3.772   6.284 -1.4736 -1.9920 -2.6800
 3276TIP3   OH231242   0.973   2.449  16.660 -0.3191 -0.7670 -0.5445
 3276TIP3    H131243   1.065   2.431  16.679  0.4433  0.6242 -2.5100
 3276TIP3    H231244   0.959   2.538  16.691 -1.9311 -1.9278  2.4361
 3277TIP3   OH231245   6.318   4.905  13.893  0.0257 -0.0199  0.2557
 3277TIP3    H131246   6.395   4.894  13.949 -0.8663 -0.3956  1.4594
 3277TIP3    H231247   6.267   4.826  13.907 -0.5997  0.2311 -0.5194
 3278TIP3   OH231248   6.443   0.300   0.020 -0.0855 -0.1449  0.1467
 3278TIP3    H131249   6.388   0.278  -0.055  0.8626  1.0901 -0.9433
 3278TIP3    H231250   6.410   0.385   0.050  0.0447 -0.2705  0.6582
 3279TIP3   OH231251   4.456   2.153  10.906 -0.0727  0.0746  0.3706
 3279TIP3    H131252   4.428   2.120  10.820 -0.6648 -1.1092  0.9905
 3279TIP3    H231253   4.375   2.184  10.947  0.4176  2.0113 -0.0432
 3280TIP3   OH231254   5.705   5.406  11.368 -0.1246  0.1235 -0.0423
 3280TIP3    H131255   5.800   5.399  11.360 -0.3541 -2.7503 -1.4662
 3280TIP3    H231256   5.691   5.493  11.405  3.0120  0.8386 -0.2242
 3281TIP3   OH231257   2.366   6.628   6.021  0.4403 -0.6355 -0.1679
 3281TIP3    H131258   2.455   6.655   5.999  1.0298 -2.2293  0.1385
 3281TIP3    H231259   2.322   6.619   5.936  0.3211  0.9025 -0.2872
 3282TIP3   OH231260   0.767   5.076  12.848 -0.4068 -0.3156  0.4025
 3282TIP3    H131261   0.768   5.056  12.941 -0.1124  0.5128  0.5879
 3282TIP3    H231262   0.851   5.044  12.815  0.5961  1.5994  0.9358
 3283TIP3   OH231263   5.235   0.367   4.078  0.2946 -0.0437  0.1546
 3283TIP3    H131264   5.308   0.428   4.070 -1.0951  1.5425 -1.8407
 3283TIP3    H231265   5.211   0.370   4.170  2.3068 -0.1251  0.7252
 3284TIP3   OH231266   3.815   6.602   2.454 -0.0330  0.0450 -0.9127
 3284TIP3    H131267   3.863   6.553   2.387  1.5387  0.7190 -0.3292
 3284TIP3    H231268   3.876   6.607   2.528 -1.8959 -1.1851  0.8444
 3285TIP3   OH231269   4.445   3.228  15.341 -0.4486  0.1414  0.0736
 3285TIP3    H131270   4.462   3.245  15.248 -1.2215  2.8276  0.3541
 3285TIP3    H231271   4.351   3.236  15.350 -0.2661  1.1765  1.3028
 3286TIP3   OH231272   1.638   3.132  11.471 -0.0042 -0.3085  0.2568
 3286TIP3    H131273   1.703   3.186  11.518 -2.2537  4.3728 -1.3552
 3286TIP3    H231274   1.676   3.120  11.384 -0.7759  1.6373 -0.3971
 3287TIP3   OH231275   2.808   1.678   5.952 -0.0746 -0.1379  0.3796
 3287TIP3    H131276   2.851   1.624   6.018 -0.3979 -1.3757 -0.3845
 3287TIP3    H231277   2.873   1.687   5.882 -0.3091 -0.2164  0.1499
 3288TIP3   OH231278   3.847   5.489   2.285  0.0678  0.1162  0.6462
 3288TIP3    H131279   3.882   5.528   2.365  0.2089 -0.7861  1.0329
 3288TIP3    H231280   3.776   5.432   2.315 -0.8418  0.8624 -0.0104
 3289TIP3   OH231281   2.932   4.253   5.619  0.1872 -0.4920 -0.1154
 3289TIP3    H131282   2.905   4.206   5.540 -2.7318  0.1255  0.4031
 3289TIP3    H231283   2.861   4.314   5.636  0.9741 -0.2257  2.6969
 3290TIP3   OH231284   1.326   2.469  16.698 -0.6603 -0.8648  0.0519
 3290TIP3    H131285   1.306   2.379  16.722 -0.7762 -1.2806 -1.5045
 3290TIP3    H231286   1.417   2.467  16.669  0.0530 -0.0196  2.0537
 3291TIP3   OH231287   6.050   4.365  16.745  0.2004 -0.0842 -0.2761
 3291TIP3    H131288   6.117   4.368  16.677 -1.3865 -0.1616 -1.9157
 3291TIP3    H231289   5.969   4.340  16.699 -0.8167 -0.7922  1.7452
 3292TIP3   OH231290   5.788   1.160  15.180 -0.2207  0.6118  0.0708
 3292TIP3    H131291   5.730   1.122  15.115 -1.5381  1.7279  0.5523
 3292TIP3    H231292   5.735   1.226  15.225  1.2450  1.2761  0.9168
 3293TIP3   OH231293   0.949   2.195  11.941  0.5547 -0.0057  0.1542
 3293TIP3    H131294   0.943   2.167  12.032 -0.6202 -0.6341 -0.0958
 3293TIP3    H231295   1.021   2.144  11.904  0.5767 -0.2553  0.5432
 3294TIP3   OH231296   4.622   3.567  10.464 -0.1955  0.1575 -0.2070
 3294TIP3    H131297   4.705   3.520  10.468 -1.2299 -1.9508 -1.5856
 3294TIP3    H231298   4.571   3.520  10.398 -1.4821  3.0672 -1.4644
 3295TIP3   OH231299   2.905   4.021   3.113  0.3395  0.4689  0.1477
 3295TIP3    H131300   2.896   4.040   3.206  1.3473 -0.6553  0.5141
 3295TIP3    H231301   2.971   4.083   3.082 -0.6165  1.4139 -0.0261
 3296TIP3   OH231302   1.733   2.154   5.288  0.5211  0.6823  0.1191
 3296TIP3    H131303   1.690   2.068   5.286  0.2445  0.8250 -0.0919
 3296TIP3    H231304   1.761   2.165   5.379  0.4640  0.4137  0.1685
 3297TIP3   OH231305   3.876   0.842   1.483  0.1431  0.2614  0.5940
 3297TIP3    H131306   3.927   0.770   1.521 -1.8902 -1.0856  0.9441
 3297TIP3    H231307   3.786   0.810   1.484 -0.5389  1.9185 -1.4223
 3298TIP3   OH231308   4.895   3.673  13.103  0.0260  0.6034  0.4407
 3298TIP3    H131309   4.967   3.667  13.041 -0.0429  1.6900  0.2466
 3298TIP3    H231310   4.887   3.766  13.123 -0.4344  0.3524  1.5152
 3299TIP3   OH231311   5.505   6.244   0.485  0.4046  0.3797  0.3633
 3299TIP3    H131312   5.489   6.301   0.409 -0.4425  1.8842  1.6075
 3299TIP3    H231313   5.419   6.208   0.506  0.7461 -0.5119  0.2546
 3300TIP3   OH231314   6.218   6.570  11.237 -0.1348 -0.5661 -0.2429
 3300TIP3    H131315   6.207   6.621  11.157 -1.5577  1.5423  1.1797
 3300TIP3    H231316   6.166   6.491  11.224 -0.8336  0.0329 -1.1781
 3301TIP3   OH231317   2.266   2.922  15.798  0.3313  0.5247  0.4048
 3301TIP3    H131318   2.270   2.837  15.841  2.4528  0.0035 -0.6818
 3301TIP3    H231319   2.176   2.951  15.809 -0.5470 -2.0360  0.5012
 3302TIP3   OH231320   3.578   0.568  16.895 -0.8856 -0.3398  0.4121
 3302TIP3    H131321   3.643   0.547  16.961 -0.4985  0.5932  0.3484
 3302TIP3    H231322   3.501   0.518  16.920  0.1743 -2.3468 -0.1416
 3303TIP3   OH231323   5.680   3.068  13.274  0.1499  0.0761 -0.6327
 3303TIP3    H131324   5.719   2.991  13.232  0.2188  0.6378 -1.6245
 3303TIP3    H231325   5.726   3.075  13.358  0.9204 -0.3284 -1.0043
 3304TIP3   OH231326   1.998   3.001   5.976  0.0984  0.1370  0.5016
 3304TIP3    H131327   2.034   3.056   5.906  0.8119 -0.3313  0.4877
 3304TIP3    H231328   1.925   3.052   6.012 -0.9259 -0.0148 -1.2303
 3305TIP3   OH231329   6.259   1.894   4.526  0.0451 -0.1214 -0.5748
 3305TIP3    H131330   6.198   1.964   4.550  0.9459 -0.1774  2.3130
 3305TIP3    H231331   6.209   1.813   4.539  0.0738 -0.1032 -0.3435
 3306TIP3   OH231332   2.033   3.741  10.727 -0.6889  0.1051  0.4418
 3306TIP3    H131333   2.033   3.689  10.646  2.2929 -0.0929  0.4600
 3306TIP3    H231334   1.974   3.694  10.785 -1.0068 -1.1315 -0.8216
 3307TIP3   OH231335   2.413   1.409  13.336 -0.2096 -0.1241  0.2978
 3307TIP3    H131336   2.409   1.332  13.393 -1.4246  0.3281  0.8651
 3307TIP3    H231337   2.380   1.379  13.252  2.3440 -1.0019 -0.4820
 3308TIP3   OH231338   5.466   3.405  15.014 -0.5424 -0.1634 -0.3094
 3308TIP3    H131339   5.395   3.463  14.987 -0.7232  0.3392  1.1541
 3308TIP3    H231340   5.432   3.360  15.092  0.5357 -0.3445  0.0726
 3309TIP3   OH231341   1.692   3.487  13.726  0.0956  0.3131  0.0689
 3309TIP3    H131342   1.605   3.484  13.686  0.7643  2.0842 -1.6280
 3309TIP3    H231343   1.735   3.407  13.696 -0.2456  0.4435 -0.7896
 3310TIP3   OH231344   3.517   6.056  16.840 -0.1550  0.0263  0.5953
 3310TIP3    H131345   3.600   6.010  16.825 -0.7025 -0.5166 -1.0035
 3310TIP3    H231346   3.464   5.993  16.890  0.5863  0.6350  2.2349
 3311TIP3   OH231347   3.747   2.933   5.439  0.3381 -0.0943  0.0240
 3311TIP3    H131348   3.721   2.909   5.350 -0.8524 -1.1920  0.6366
 3311TIP3    H231349   3.688   2.883   5.496  0.7874  0.9019  1.4304
 3312TIP3   OH231350   5.310   1.175  14.076  0.3553 -0.1899  0.1302
 3312TIP3    H131351   5.280   1.160  14.165 -2.4852 -1.4250 -0.9003
 3312TIP3    H231352   5.404   1.157  14.078 -0.0261 -2.3594  2.4022
 3313TIP3   OH231353   4.538   5.748   1.429  0.5257  0.2316  0.2940
 3313TIP3    H131354   4.444   5.762   1.437  0.4682  0.0705 -0.0656
 3313TIP3    H231355   4.573   5.835   1.408  0.5815  0.4858  1.4086
 3314TIP3   OH231356   3.892   6.473   1.882 -0.3677 -0.0425  0.0148
 3314TIP3    H131357   3.828   6.406   1.907  0.1021 -0.3133  0.5125
 3314TIP3    H231358   3.941   6.434   1.810 -0.6776  0.1138 -0.2808
 3315TIP3   OH231359   0.810   5.771  16.360 -0.6210 -0.5330 -0.0952
 3315TIP3    H131360   0.775   5.852  16.324  0.7766 -0.4520 -1.3609
 3315TIP3    H231361   0.763   5.701  16.313 -0.7310 -0.4485 -0.1112
 3316TIP3   OH231362   0.465   5.541   0.624  0.2893  0.4217 -0.0584
 3316TIP3    H131363   0.515   5.552   0.704 -0.4631  1.0131  0.3476
 3316TIP3    H231364   0.378   5.513   0.653  0.5307 -1.2054 -0.7832
 3317TIP3   OH231365   4.979   2.708   4.915 -0.2127  0.0715  0.4482
 3317TIP3    H131366   4.944   2.670   4.996 -0.9625 -0.3094 -0.0426
 3317TIP3    H231367   4.957   2.801   4.921  2.5613  0.7449  2.1557
 3318TIP3   OH231368   1.256   3.486   2.428  0.3385  0.0937  0.0402
 3318TIP3    H131369   1.347   3.467   2.453  0.3171  0.4535  0.3979
 3318TIP3    H231370   1.210   3.498   2.511 -0.4196 -1.7833 -0.0688
 3319TIP3   OH231371   3.350   3.895   3.801  0.2008 -0.1385 -0.1186
 3319TIP3    H131372   3.394   3.979   3.813  1.4743 -0.6541 -0.9990
 3319TIP3    H231373   3.291   3.910   3.727  0.4493 -0.0136 -0.2950
 3320TIP3   OH231374   5.626   2.350  16.748  0.4722 -0.5604 -0.3478
 3320TIP3    H131375   5.556   2.363  16.684  1.5213  0.3903 -1.3527
 3320TIP3    H231376   5.602   2.269  16.794 -2.0886  0.5359  0.4323
 3321TIP3   OH231377   1.623   6.787   4.092  0.3576 -0.3514  0.0336
 3321TIP3    H131378   1.683   6.797   4.165  0.0681  0.7073  0.1519
 3321TIP3    H231379   1.663   6.839   4.022 -1.1866  1.7541  0.6199
 3322TIP3   OH231380   2.769   3.440   4.221 -0.0530  0.0065 -0.6013
 3322TIP3    H131381   2.858   3.475   4.216 -1.0081  2.8466  0.1432
 3322TIP3    H231382   2.739   3.438   4.130  0.8119 -1.2486 -0.8893
 3323TIP3   OH231383   4.431   3.903  12.976 -0.1850 -0.5291  0.2734
 3323TIP3    H131384   4.471   3.894  13.063  0.6025 -0.1787 -0.0418
 3323TIP3    H231385   4.495   3.954  12.926 -0.5292 -0.9299 -0.5832
 3324TIP3   OH231386   4.294   2.991   4.594  0.4656 -0.1346 -0.3155
 3324TIP3    H131387   4.228   2.934   4.556 -0.7899  1.1855 -0.1874
 3324TIP3    H231388   4.313   3.055   4.526  1.1354 -0.1051 -0.1121
 3325TIP3   OH231389   0.139   6.017  13.927  0.1701 -0.4639  0.3430
 3325TIP3    H131390   0.192   5.943  13.898 -1.7876 -2.3417  1.3280
 3325TIP3    H231391   0.190   6.058  13.997  1.8073 -0.0776 -1.0025
 3326TIP3   OH231392   3.957   3.660  12.264  0.1250 -0.1858 -0.0525
 3326TIP3    H131393   3.916   3.598  12.324  1.6293 -1.5783 -0.3762
 3326TIP3    H231394   3.916   3.643  12.179  0.0825 -0.2841 -0.0119
 3327TIP3   OH231395   0.589   1.986   1.650  0.1964 -0.2728  0.2281
 3327TIP3    H131396   0.580   2.005   1.557  0.3104 -0.9966  0.0590
 3327TIP3    H231397   0.576   1.891   1.656 -2.9199  0.1176  1.3425
 3328TIP3   OH231398   6.168   5.292  16.322  0.7318  0.3013 -0.3892
 3328TIP3    H131399   6.179   5.212  16.271  0.0556 -0.0167 -0.0504
 3328TIP3    H231400   6.253   5.336  16.318  0.9949 -0.2509 -0.8869
 3329TIP3   OH231401   1.938   1.992  12.757  0.2162 -0.6626 -0.3417
 3329TIP3    H131402   1.921   2.042  12.677 -0.5009 -1.8628 -0.9641
 3329TIP3    H231403   2.020   2.028  12.791 -0.2042  0.8317 -0.8349
 3330TIP3   OH231404   4.070   0.811   3.206 -0.2876  0.3850 -0.1798
 3330TIP3    H131405   4.106   0.877   3.146 -1.6938  0.7177 -0.7030
 3330TIP3    H231406   4.020   0.752   3.149 -0.5511 -0.0707  0.5103
 3331TIP3   OH231407   1.183   0.304  13.220 -0.1132 -0.1792 -0.1461
 3331TIP3    H131408   1.088   0.291  13.218 -0.1362 -0.1925  0.7025
 3331TIP3    H231409   1.209   0.278  13.308  0.8253 -1.1463 -0.6822
 3332TIP3   OH231410   6.032   1.532  13.679 -0.0722 -0.4666 -0.3564
 3332TIP3    H131411   5.971   1.579  13.623  0.9075  0.8313 -0.3888
 3332TIP3    H231412   6.009   1.440  13.668 -1.0097 -0.1165 -1.5508
 3333TIP3   OH231413   0.989   6.473  11.974  0.3228  0.0868 -0.0164
 3333TIP3    H131414   1.063   6.441  12.026  0.2633  0.3746  0.2510
 3333TIP3    H231415   0.932   6.516  12.038 -0.7139 -1.2414 -0.0006
 3334TIP3   OH231416   3.538   1.140   1.487 -0.1110 -0.4533 -0.0040
 3334TIP3    H131417   3.489   1.071   1.532 -0.8538 -0.2951 -0.5567
 3334TIP3    H231418   3.520   1.219   1.538  0.6097 -0.6281  0.5352
 3335TIP3   OH231419   2.809   2.298   5.855  0.2676 -0.0442  0.0496
 3335TIP3    H131420   2.752   2.329   5.925  1.2439 -1.2538  1.4474
 3335TIP3    H231421   2.817   2.204   5.870  1.9775 -0.0337 -0.5687
 3336TIP3   OH231422   2.914   1.836   2.470  0.0577 -0.7656  0.4209
 3336TIP3    H131423   2.942   1.748   2.490  0.3129 -0.5359  1.0790
 3336TIP3    H231424   2.835   1.849   2.523  0.2394 -0.4656  0.6222
 3337TIP3   OH231425   3.775   6.501  14.443 -0.5338  0.6437  0.5971
 3337TIP3    H131426   3.756   6.437  14.375 -0.8440  0.8588  0.4756
 3337TIP3    H231427   3.870   6.507  14.445 -0.4349 -0.6760  1.4105
 3338TIP3   OH231428   5.318   4.530  13.783  0.0286 -0.1457 -0.2923
 3338TIP3    H131429   5.326   4.534  13.688 -0.2009 -1.6817 -0.4056
 3338TIP3    H231430   5.328   4.437  13.804 -1.6597 -0.0938  0.9936
 3339TIP3   OH231431   1.088   4.376   1.829 -0.7908  0.5984 -0.1916
 3339TIP3    H131432   1.123   4.450   1.878  1.7549 -0.0192 -0.9474
 3339TIP3    H231433   1.117   4.299   1.879  2.1517 -0.0705 -2.6277
 3340TIP3   OH231434   1.813   3.180   0.727 -0.1528 -0.1317 -0.0713
 3340TIP3    H131435   1.861   3.148   0.651 -1.0409  1.8944 -1.5477
 3340TIP3    H231436   1.741   3.231   0.691 -1.0454  0.2784  2.1370
 3341TIP3   OH231437   0.000   0.953   0.218 -0.0893 -0.2031  0.4172
 3341TIP3    H131438  -0.075   0.927   0.271 -1.6686  0.9754 -1.1103
 3341TIP3    H231439   0.020   1.042   0.246 -0.6708  0.2743 -0.6140
 3342TIP3   OH231440   6.063   3.141  15.147 -0.2012  0.6529  0.6737
 3342TIP3    H131441   6.062   3.136  15.051  0.4500  1.2078  0.6241
 3342TIP3    H231442   6.021   3.061  15.176 -2.0595  1.2822 -0.0953
 3343TIP3   OH231443   2.378   6.594   0.564  0.3725 -0.7177 -0.8770
 3343TIP3    H131444   2.455   6.567   0.614 -0.7698 -0.2735  1.2325
 3343TIP3    H231445   2.330   6.513   0.547  0.8924 -0.9001 -1.5427
 3344TIP3   OH231446   4.217   5.069  11.709 -0.6442  0.2803  0.1802
 3344TIP3    H131447   4.207   5.039  11.619  1.7865  0.7972 -0.3439
 3344TIP3    H231448   4.310   5.055  11.729 -0.8273  1.4162  2.1376
 3345TIP3   OH231449   5.454   5.507  14.941  0.1079 -0.1707  0.2995
 3345TIP3    H131450   5.431   5.580  14.883 -1.5559 -2.2184 -1.8034
 3345TIP3    H231451   5.529   5.466  14.898 -1.6730 -2.2267 -1.0388
 3346TIP3   OH231452   1.189   2.185  15.686  0.3293  0.2028  0.4582
 3346TIP3    H131453   1.112   2.132  15.708  1.1357 -0.7592  1.0903
 3346TIP3    H231454   1.154   2.267  15.653 -0.9851 -1.0915 -1.5397
 3347TIP3   OH231455   5.954   5.162  15.108  0.1657 -0.3935  0.4079
 3347TIP3    H131456   5.867   5.150  15.146  0.2314  0.9037  0.9955
 3347TIP3    H231457   5.996   5.076  15.117 -1.1431 -1.1311 -0.1775
 3348TIP3   OH231458   5.376   1.135   6.073  0.4569 -0.2934  0.7100
 3348TIP3    H131459   5.314   1.063   6.067 -2.3451  2.0449 -1.9937
 3348TIP3    H231460   5.388   1.150   6.166 -2.9625 -1.0080  1.3776
 3349TIP3   OH231461   4.143   4.004   4.573  0.0362 -0.0360 -0.4638
 3349TIP3    H131462   4.174   4.006   4.483 -0.3336  1.8181 -0.5854
 3349TIP3    H231463   4.114   4.093   4.591 -1.2397 -0.7044  1.0357
 3350TIP3   OH231464   1.296   5.020  14.060  0.3148 -0.5176 -0.2589
 3350TIP3    H131465   1.279   5.102  14.014  0.6428 -0.5827 -0.4996
 3350TIP3    H231466   1.345   5.046  14.138  0.1200 -0.4504 -0.1580
 3351TIP3   OH231467   1.809   1.480   5.091  0.1035 -0.4667 -0.0126
 3351TIP3    H131468   1.884   1.462   5.034  1.0353  1.6151  0.4644
 3351TIP3    H231469   1.838   1.454   5.178  0.0738 -0.1568  0.0905
 3352TIP3   OH231470   0.294   0.025  12.187 -0.5576  0.1908  0.5512
 3352TIP3    H131471   0.376   0.023  12.136  1.6464  2.8493  3.5528
 3352TIP3    H231472   0.251   0.106  12.158 -1.7152 -0.7175 -0.3427
 3353TIP3   OH231473   3.254   2.149  14.569  0.0936 -0.7266  0.1686
 3353TIP3    H131474   3.273   2.171  14.661 -0.6225 -0.5814  0.2842
 3353TIP3    H231475   3.171   2.102  14.572  0.3337 -1.1886 -0.3547
 3354TIP3   OH231476   6.262   2.621  15.074 -0.4550 -0.3620 -0.1428
 3354TIP3    H131477   6.332   2.685  15.066 -0.7455  0.0195  0.3184
 3354TIP3    H231478   6.307   2.536  15.069  0.2207 -0.1328  1.3860
 3355TIP3   OH231479   2.217   2.146   1.398  0.7803  0.0418  0.6984
 3355TIP3    H131480   2.205   2.231   1.355  0.4112 -0.8479 -1.0286
 3355TIP3    H231481   2.230   2.168   1.491 -1.7035  1.8496  0.7179
 3356TIP3   OH231482   0.752   0.134   3.275  0.6782  0.4597  0.1100
 3356TIP3    H131483   0.774   0.221   3.307  2.6504  0.2415 -0.5414
 3356TIP3    H231484   0.708   0.092   3.348  0.1899  1.7986  0.6197
 3357TIP3   OH231485   6.481   1.913  12.880  0.3579  0.1743 -0.9123
 3357TIP3    H131486   6.440   1.927  12.965  0.5434 -0.4413 -0.7130
 3357TIP3    H231487   6.550   1.980  12.875  0.6031 -0.0364 -0.4062
 3358TIP3   OH231488   4.820   5.761  13.674 -0.4837  0.0041 -0.1738
 3358TIP3    H131489   4.788   5.697  13.611 -0.6457  1.0372 -1.1882
 3358TIP3    H231490   4.756   5.758  13.746 -0.6292 -0.7680 -0.3311
 3359TIP3   OH231491   2.568   1.581  16.582 -0.3809 -0.2822  0.3374
 3359TIP3    H131492   2.584   1.596  16.675 -1.0635  0.3068  0.3637
 3359TIP3    H231493   2.636   1.518  16.557 -0.7839 -1.2103  1.4554
 3360TIP3   OH231494   3.298   0.419   4.127  0.8877 -0.3145 -0.8765
 3360TIP3    H131495   3.228   0.400   4.189 -0.1370 -0.0679 -1.8993
 3360TIP3    H231496   3.370   0.453   4.180 -0.3803  1.0262  0.0746
 3361TIP3   OH231497   3.550   1.841   2.193  0.2648 -0.2603  0.1505
 3361TIP3    H131498   3.569   1.841   2.099  0.5464 -0.1833  0.2055
 3361TIP3    H231499   3.524   1.751   2.212  2.4702 -0.9007  0.4332
 3362TIP3   OH231500   2.969   3.292   5.506  0.2952  0.9249  0.7687
 3362TIP3    H131501   2.925   3.207   5.512 -0.4404  1.2397  0.1440
 3362TIP3    H231502   3.041   3.287   5.568  0.5267 -0.3138  0.4220
 3363TIP3   OH231503   1.821   2.045  13.764 -0.4380  0.0634  0.0352
 3363TIP3    H131504   1.806   1.991  13.687  2.2764 -1.5079  0.4803
 3363TIP3    H231505   1.777   1.997  13.835 -0.5599  0.0310 -0.0614
 3364TIP3   OH231506   2.079   5.885   1.388 -0.4601  0.0900 -0.3867
 3364TIP3    H131507   2.153   5.938   1.359 -0.0316 -0.0598  0.4119
 3364TIP3    H231508   2.051   5.926   1.470 -1.6462  0.4997 -0.9715
 3365TIP3   OH231509   0.424   3.227   5.353 -0.0121  0.0325 -0.2479
 3365TIP3    H131510   0.332   3.253   5.356 -0.0858 -0.2402 -0.2041
 3365TIP3    H231511   0.424   3.135   5.377  0.2795  0.0477 -0.1920
 3366TIP3   OH231512   3.583   4.522   0.229 -0.3533 -0.1087  0.1827
 3366TIP3    H131513   3.639   4.562   0.162 -0.4920 -0.6881 -0.2858
 3366TIP3    H231514   3.593   4.428   0.216 -1.7395 -0.2353 -0.1881
 3367TIP3   OH231515   0.137   5.620  12.845  0.4666  0.3299 -0.4371
 3367TIP3    H131516   0.109   5.577  12.926  0.2063  0.4005 -0.4868
 3367TIP3    H231517   0.210   5.676  12.872  0.1146  0.6704 -0.1663
 3368TIP3   OH231518   0.653   3.570   3.305  0.2079  0.2554  0.0497
 3368TIP3    H131519   0.644   3.594   3.213 -2.0982  1.9283  0.5966
 3368TIP3    H231520   0.743   3.591   3.327  0.4726  0.9497 -1.5468
 3369TIP3   OH231521   4.546   5.026   5.280 -0.4586 -0.2782  0.1199
 3369TIP3    H131522   4.466   5.033   5.332 -1.7508 -0.7298 -1.7013
 3369TIP3    H231523   4.577   5.116   5.270 -0.9543 -0.0621  0.5263
 3370TIP3   OH231524   5.910   2.597   2.567  0.3252 -0.2527 -0.0071
 3370TIP3    H131525   5.850   2.671   2.576 -0.2623 -0.6849 -0.3632
 3370TIP3    H231526   5.978   2.614   2.633 -1.5569 -1.0967  2.2884
 3371TIP3   OH231527   5.595   4.940   4.835 -0.2389 -0.2719  0.1127
 3371TIP3    H131528   5.562   5.018   4.880 -2.5803 -0.7192 -0.6909
 3371TIP3    H231529   5.675   4.917   4.883  0.5102  2.5704  0.3919
 3372TIP3   OH231530   5.970   1.708  13.875 -0.0911  0.3018 -0.3617
 3372TIP3    H131531   5.967   1.638  13.811  0.0731 -0.3528  0.3255
 3372TIP3    H231532   6.045   1.762  13.849 -2.4932  2.5934 -3.2362
 3373TIP3   OH231533   1.327   1.578  12.513 -0.1298  0.7611  0.3149
 3373TIP3    H131534   1.319   1.558  12.420 -2.1214  0.8766  0.4237
 3373TIP3    H231535   1.413   1.542  12.538  0.8873  1.6201 -1.7518
 3374TIP3   OH231536   5.275   3.647   0.692  0.2113 -0.8334  0.1761
 3374TIP3    H131537   5.353   3.592   0.689  1.5631  0.8865  1.8583
 3374TIP3    H231538   5.204   3.587   0.718  0.9383 -2.3744 -1.1975
 3375TIP3   OH231539   4.055   3.632   5.130 -0.0686  1.0077  0.1973
 3375TIP3    H131540   4.053   3.545   5.091  0.6235  0.1761  1.9040
 3375TIP3    H231541   4.123   3.678   5.082  1.5423 -0.3514  1.0774
 3376TIP3   OH231542   6.452   2.874  13.997  0.4017  0.3297 -0.0098
 3376TIP3    H131543   6.400   2.802  13.961 -0.4865 -0.3528  2.4936
 3376TIP3    H231544   6.446   2.943  13.930 -0.4355 -1.1470 -1.5421
 3377TIP3   OH231545   3.427   5.677   3.697 -0.0537  0.3395 -0.0593
 3377TIP3    H131546   3.354   5.620   3.722 -0.4992  0.9016 -0.0851
 3377TIP3    H231547   3.505   5.626   3.721 -0.4608  0.2845  1.2218
 3378TIP3   OH231548   0.579   1.461   6.364  0.1600 -0.0619  0.2708
 3378TIP3    H131549   0.528   1.525   6.415  0.7361 -1.1746  2.3430
 3378TIP3    H231550   0.549   1.376   6.396  0.8338 -0.8031 -1.0065
 3379TIP3   OH231551   0.958   3.697  12.053  0.4836 -0.0574  0.1258
 3379TIP3    H131552   0.928   3.782  12.087  0.4161 -0.0940  0.1584
 3379TIP3    H231553   0.928   3.634  12.118  1.1202 -0.0362  0.4469
 3380TIP3   OH231554   1.781   3.444   2.439 -0.6030 -0.5565 -0.2896
 3380TIP3    H131555   1.769   3.382   2.511 -1.2992  0.4803  0.5159
 3380TIP3    H231556   1.795   3.389   2.362 -1.0301 -1.7039  0.4267
 3381TIP3   OH231557   2.833   6.500   3.988  0.4279  0.0668  0.0269
 3381TIP3    H131558   2.868   6.571   3.934  1.4515 -0.8888 -0.6071
 3381TIP3    H231559   2.738   6.514   3.988  0.3516 -0.0599 -2.2809
 3382TIP3   OH231560   4.192   1.165   1.489  0.4977 -0.8057  0.1151
 3382TIP3    H131561   4.269   1.158   1.545  0.5523  1.4116  0.3982
 3382TIP3    H231562   4.135   1.228   1.533 -0.2065 -0.2779 -1.4704
 3383TIP3   OH231563   4.269   1.789  14.446  0.3966  0.4827 -0.4962
 3383TIP3    H131564   4.285   1.749  14.361  1.7646  0.2315 -0.1395
 3383TIP3    H231565   4.252   1.882  14.427  2.2051  0.7571 -0.9490
 3384TIP3   OH231566   6.248   5.200   2.796 -0.1584  0.7415  0.3634
 3384TIP3    H131567   6.314   5.236   2.737 -0.9404  1.1713 -0.2743
 3384TIP3    H231568   6.288   5.206   2.883  1.0232  0.0621 -0.1076
 3385TIP3   OH231569   6.439   3.397  14.159 -0.5038 -0.3519  0.2560
 3385TIP3    H131570   6.456   3.477  14.209 -0.2696  0.1634 -0.6375
 3385TIP3    H231571   6.498   3.332  14.198  3.3602  1.2314 -2.3763
 3386TIP3   OH231572   6.191   5.817  13.458 -0.1135 -0.4148  0.4970
 3386TIP3    H131573   6.253   5.874  13.504  0.6858  0.0292 -1.0770
 3386TIP3    H231574   6.222   5.728  13.476 -0.2591 -0.2909  1.4097
 3387TIP3   OH231575   0.995   6.299   2.145 -0.1180  0.7142  0.9019
 3387TIP3    H131576   1.022   6.269   2.232  2.2046  0.3244  0.1125
 3387TIP3    H231577   0.949   6.224   2.107 -0.3765  0.5814  1.4593
 3388TIP3   OH231578   6.137   4.183   0.680 -0.2892 -0.7138 -0.0561
 3388TIP3    H131579   6.109   4.104   0.726  1.2828  0.2380  2.8373
 3388TIP3    H231580   6.104   4.255   0.734  0.9578  0.5248 -0.8614
 3389TIP3   OH231581   2.239   3.636   4.495 -0.2908 -0.0791  0.1362
 3389TIP3    H131582   2.252   3.549   4.455  0.2312 -0.4440  1.0715
 3389TIP3    H231583   2.179   3.620   4.568  2.4152 -0.3334  2.4630
 3390TIP3   OH231584   3.801   2.964   0.138  0.1251 -0.0858  0.2072
 3390TIP3    H131585   3.782   2.942   0.229 -1.1581 -0.0771 -0.0436
 3390TIP3    H231586   3.896   2.981   0.136  0.1503 -0.0273  1.5393
 3391TIP3   OH231587   0.144   3.411   4.135 -0.6601 -0.1721  0.0867
 3391TIP3    H131588   0.089   3.342   4.172  1.4202  0.0597  4.1712
 3391TIP3    H231589   0.100   3.493   4.158 -2.3527  0.0953 -3.4524
 3392TIP3   OH231590   3.834   3.058   6.264  0.5060  0.2373 -0.6034
 3392TIP3    H131591   3.915   3.108   6.274  0.6847 -0.0099 -0.7987
 3392TIP3    H231592   3.850   2.978   6.315 -0.1934  0.8571  0.6396
 3393TIP3   OH231593   2.842   4.017  11.934  0.4803  0.1489 -0.1925
 3393TIP3    H131594   2.823   4.091  11.992 -0.6699 -0.1478 -0.1604
 3393TIP3    H231595   2.904   3.964  11.984 -1.1749 -0.5731  1.2165
 3394TIP3   OH231596   2.804   0.667   0.796 -0.0138  0.6490 -0.1291
 3394TIP3    H131597   2.829   0.720   0.720  0.4388  1.1853  0.3835
 3394TIP3    H231598   2.829   0.720   0.871  1.0447 -0.5450  0.4052
 3395TIP3   OH231599   3.124   0.407  15.109 -0.1857 -0.2753  0.0492
 3395TIP3    H131600   3.053   0.471  15.115  0.5618  0.5246  0.5575
 3395TIP3    H231601   3.107   0.360  15.027 -0.2790  1.1591 -0.7925
 3396TIP3   OH231602   2.828   6.026  11.937  0.1675 -0.1088 -0.0691
 3396TIP3    H131603   2.767   6.067  11.999  0.5014 -0.5627  0.5686
 3396TIP3    H231604   2.865   6.099  11.887 -0.4200  0.2241 -0.0225
 3397TIP3   OH231605   3.162   2.405   5.564  0.2171  0.0152 -0.1227
 3397TIP3    H131606   3.160   2.470   5.633  0.0701 -0.9049  0.7692
 3397TIP3    H231607   3.133   2.452   5.485 -1.3299  0.6776  0.7980
 3398TIP3   OH231608   6.284   0.883   1.566  0.0315 -0.6771 -0.0960
 3398TIP3    H131609   6.325   0.815   1.512  0.3996 -0.4994 -0.0405
 3398TIP3    H231610   6.344   0.896   1.639 -0.2865 -0.6517  0.1616
 3399TIP3   OH231611   1.018   1.507   2.393  0.3811 -0.1976 -0.3630
 3399TIP3    H131612   1.102   1.466   2.373 -0.9385 -1.9110 -2.9210
 3399TIP3    H231613   1.040   1.575   2.457  3.8086 -0.0995 -1.4068
 3400TIP3   OH231614   4.103   6.052  14.387 -0.1357 -0.0525 -0.1593
 3400TIP3    H131615   4.160   6.001  14.444 -1.3544 -1.1970  0.0911
 3400TIP3    H231616   4.150   6.135  14.374  0.0383  0.4191  2.8068
 3401TIP3   OH231617   6.646   1.318   0.027  0.2029 -0.2786  0.2324
 3401TIP3    H131618   6.711   1.351   0.088  1.1206 -1.1238 -0.2690
 3401TIP3    H231619   6.670   1.227   0.012  0.2058 -0.0125 -1.6208
 3402TIP3   OH231620   4.338   0.675  14.535 -0.4378 -0.3350  0.2894
 3402TIP3    H131621   4.246   0.667  14.558 -0.0970 -0.6442  1.6012
 3402TIP3    H231622   4.385   0.632  14.606  0.8367  1.8222  0.8253
 3403TIP3   OH231623   4.783   5.794  15.095  0.2023 -0.2298 -0.5485
 3403TIP3    H131624   4.865   5.841  15.080  0.9355 -1.5065 -0.7011
 3403TIP3    H231625   4.799   5.744  15.175 -0.5492 -0.2338 -0.3969
 3404TIP3   OH231626   0.164   4.913  12.568 -0.8319 -0.6929  0.3610
 3404TIP3    H131627   0.190   4.836  12.518 -0.0241 -2.5087  3.3441
 3404TIP3    H231628   0.070   4.902  12.582 -0.7982 -0.8861  0.4288
 3405TIP3   OH231629   2.299   1.290  13.666  0.1437 -0.2504 -0.3159
 3405TIP3    H131630   2.349   1.353  13.717 -0.2541 -1.8478  2.2079
 3405TIP3    H231631   2.213   1.288  13.707  0.3312 -2.8310  0.1274
 3406TIP3   OH231632   3.532   6.698  12.705  0.7142  0.1860  0.1132
 3406TIP3    H131633   3.586   6.670  12.780 -1.0646 -1.9148  0.7171
 3406TIP3    H231634   3.568   6.651  12.630 -0.8936 -2.2165  0.7350
 3407TIP3   OH231635   4.735   4.962   4.069 -0.7876  0.3903  0.3192
 3407TIP3    H131636   4.762   4.912   4.146  2.2151 -0.2451 -1.0297
 3407TIP3    H231637   4.691   5.039   4.105 -1.1597 -0.7912  2.5777
 3408TIP3   OH231638   2.757   5.950  17.018 -0.3571  0.0165 -0.6339
 3408TIP3    H131639   2.808   5.873  16.993  0.2369  0.5730 -1.1615
 3408TIP3    H231640   2.818   6.003  17.070 -0.2416  0.8895 -1.6237
 3409TIP3   OH231641   3.344   0.998   1.921 -0.3094 -0.4185 -0.3906
 3409TIP3    H131642   3.395   0.964   1.995  0.5404 -0.9923 -1.2145
 3409TIP3    H231643   3.267   0.941   1.916  1.2937 -2.6234 -2.0092
 3410TIP3   OH231644   6.436   1.845   3.277 -0.4092  0.2381 -0.3882
 3410TIP3    H131645   6.480   1.814   3.198 -0.7194 -0.4263 -0.3107
 3410TIP3    H231646   6.344   1.819   3.264 -0.4301 -0.0275  0.2602
 3411TIP3   OH231647   5.787   0.361  12.642  0.2574  0.0697  0.3384
 3411TIP3    H131648   5.824   0.364  12.731  0.2514 -1.6626  0.4310
 3411TIP3    H231649   5.859   0.391  12.586  0.5695  0.2776  0.8399
 3412TIP3   OH231650   3.462   5.707  13.910  0.6883  0.6991 -0.6182
 3412TIP3    H131651   3.484   5.795  13.879 -1.3372  0.6853 -2.2428
 3412TIP3    H231652   3.384   5.682  13.860 -1.1001 -0.5022  2.4960
 3413TIP3   OH231653   3.985   3.028   2.596  0.3792  0.4352  0.1627
 3413TIP3    H131654   4.052   3.096   2.599 -0.2755  1.0932  0.2068
 3413TIP3    H231655   3.928   3.055   2.524  0.1492 -0.1020  0.1444
 3414TIP3   OH231656   0.353   3.247   4.077 -0.3627  0.2037  0.7967
 3414TIP3    H131657   0.274   3.300   4.090 -0.3295  0.0270  1.8425
 3414TIP3    H231658   0.329   3.186   4.007 -0.5707  1.2349 -0.0585
 3415TIP3   OH231659   0.018   0.733   4.364  0.4009  0.4079  0.3082
 3415TIP3    H131660   0.109   0.763   4.373 -0.3758  3.1458 -0.1707
 3415TIP3    H231661   0.023   0.661   4.301  2.2782  0.0991  0.7430
 3416TIP3   OH231662   1.494   4.722  17.160  0.2703  0.4960 -0.1101
 3416TIP3    H131663   1.502   4.696  17.068  0.9380  0.2553  0.0048
 3416TIP3    H231664   1.452   4.647  17.202  2.6712 -0.7219  0.3196
 3417TIP3   OH231665   4.160   1.574  12.916 -0.4274  0.1406 -0.1078
 3417TIP3    H131666   4.252   1.549  12.910 -0.8285 -2.1956  1.7574
 3417TIP3    H231667   4.161   1.668  12.931  1.6848  0.0880  0.2918
 3418TIP3   OH231668   5.838   2.406   0.287  0.6457  0.4317 -0.2400
 3418TIP3    H131669   5.907   2.466   0.258  1.7908 -0.8084 -0.1862
 3418TIP3    H231670   5.836   2.337   0.220 -1.6328  1.2004 -1.0666
 3419TIP3   OH231671   1.356   0.931   5.355 -0.4284  0.0510 -0.1423
 3419TIP3    H131672   1.451   0.933   5.343 -0.3221  1.9997  0.7020
 3419TIP3    H231673   1.340   0.852   5.407  0.8578  0.2790  0.6388
 3420TIP3   OH231674   5.180   4.954  12.325  0.3823 -0.0171  0.0046
 3420TIP3    H131675   5.204   4.866  12.297 -0.9612 -0.6225  0.6437
 3420TIP3    H231676   5.215   4.961  12.414 -1.4491 -0.8208  0.8546
 3421TIP3   OH231677   0.741   4.734   0.698  0.0689 -0.1652  0.2538
 3421TIP3    H131678   0.736   4.752   0.604 -1.0308  2.3240  0.7105
 3421TIP3    H231679   0.784   4.812   0.735  1.1501 -1.4201  1.7684
 3422TIP3   OH231680   5.815   1.124   2.913  0.6743  0.1654  0.1768
 3422TIP3    H131681   5.803   1.216   2.938  2.3848  0.8609 -1.2793
 3422TIP3    H231682   5.730   1.084   2.927  0.5915  1.2155  3.7036
 3423TIP3   OH231683   3.344   1.820   4.172  0.2067 -0.5085  0.1547
 3423TIP3    H131684   3.413   1.855   4.228 -0.0204 -1.1297  0.8357
 3423TIP3    H231685   3.379   1.829   4.083  0.4493  0.7622  0.3532
 3424TIP3   OH231686   6.722   5.382   3.001  0.0548 -0.1955 -0.1314
 3424TIP3    H131687   6.795   5.433   3.037 -0.3301 -0.9705  1.8650
 3424TIP3    H231688   6.644   5.425   3.036 -0.3722 -0.6016 -0.5741
 3425TIP3   OH231689   1.409   3.528  14.350 -0.2357  0.4038 -0.2074
 3425TIP3    H131690   1.335   3.499  14.403  0.1779 -0.2642  0.0242
 3425TIP3    H231691   1.404   3.623  14.350 -0.8889  0.3713  0.0942
 3426TIP3   OH231692   1.510   5.360  14.617 -0.3004  0.1478 -0.1870
 3426TIP3    H131693   1.518   5.431  14.681  1.0311 -1.0953  1.0952
 3426TIP3    H231694   1.487   5.283  14.668  1.9543 -1.1405 -0.9552
 3427TIP3   OH231695   4.824   5.653   4.921  0.1184  0.5558 -0.4556
 3427TIP3    H131696   4.878   5.604   4.860  1.4271  0.9917  0.3255
 3427TIP3    H231697   4.811   5.738   4.878  0.3957  0.5947 -0.4611
 3428TIP3   OH231698   4.191   0.275   2.104  0.3534  0.4775  0.7462
 3428TIP3    H131699   4.102   0.244   2.088  1.1814 -1.2087 -0.9756
 3428TIP3    H231700   4.204   0.265   2.198 -0.8450 -0.4557  0.8327
 3429TIP3   OH231701   3.319   4.665  14.614  0.5741  0.5103  0.2674
 3429TIP3    H131702   3.233   4.634  14.586  1.0798 -1.9642  1.1620
 3429TIP3    H231703   3.361   4.695  14.533 -0.8194  1.0109 -0.3036
 3430TIP3   OH231704   2.983   6.645  13.759  0.2531 -0.5256  0.1939
 3430TIP3    H131705   2.926   6.702  13.708  1.4355  0.6239  0.1292
 3430TIP3    H231706   3.039   6.705  13.809  1.5307 -1.6272  0.1243
 3431TIP3   OH231707   3.443   4.905   0.774 -0.0468  0.6587 -0.0706
 3431TIP3    H131708   3.387   4.970   0.731  0.0864 -0.2868 -1.7412
 3431TIP3    H231709   3.428   4.824   0.726  0.7472 -0.2658  1.1647
 3432TIP3   OH231710   5.854   2.077  13.449 -0.3167 -0.2750  0.5706
 3432TIP3    H131711   5.811   2.026  13.517 -2.2033 -0.6456 -0.8400
 3432TIP3    H231712   5.789   2.087  13.380 -0.2285  4.2688  0.8080
 3433TIP3   OH231713   0.886   5.738   5.407  1.2031  0.3471  0.4288
 3433TIP3    H131714   0.812   5.730   5.468  1.2651  1.1234  0.6104
 3433TIP3    H231715   0.893   5.831   5.389 -0.7522 -0.0508 -3.2153
 3434TIP3   OH231716   5.356   0.250   0.377 -0.4873 -0.1906  0.2427
 3434TIP3    H131717   5.389   0.309   0.445  0.9340  1.5727 -1.7959
 3434TIP3    H231718   5.421   0.180   0.373 -0.3535 -0.0811  0.4435
 3435TIP3   OH231719   3.422   3.908   5.060  0.3521  0.0196  0.0715
 3435TIP3    H131720   3.464   3.972   5.117  1.2369 -0.7094  0.2541
 3435TIP3    H231721   3.341   3.951   5.031 -0.3938  0.2255  2.2670
 3436TIP3   OH231722   5.913   2.888   0.286  0.2020  1.2112  0.3536
 3436TIP3    H131723   5.836   2.844   0.322  0.5906  0.5218  0.3611
 3436TIP3    H231724   5.967   2.908   0.363 -0.2783  2.3132  0.4151
 3437TIP3   OH231725   6.668   3.608  14.754 -0.1221 -0.0383  0.1588
 3437TIP3    H131726   6.748   3.624  14.705  0.0014 -0.5867  0.1781
 3437TIP3    H231727   6.639   3.696  14.781  0.1782  0.2062 -0.2972
 3438TIP3   OH231728   1.067   2.276   4.446 -0.0792  0.3051  0.0710
 3438TIP3    H131729   1.100   2.359   4.411  1.4562 -0.4492 -0.3745
 3438TIP3    H231730   1.048   2.295   4.538  3.1559  0.4910  0.8151
 3439TIP3   OH231731   5.826   1.764   2.516 -0.4129  0.5064  0.3137
 3439TIP3    H131732   5.744   1.725   2.547 -0.0484  0.4172  1.1971
 3439TIP3    H231733   5.802   1.853   2.491 -1.0927 -0.0085 -0.9779
 3440TIP3   OH231734   0.947   1.088   4.066 -0.7268  0.3112  0.2319
 3440TIP3    H131735   0.900   1.006   4.056 -0.8608  0.1634  1.8251
 3440TIP3    H231736   0.883   1.147   4.107 -0.5056  1.0755 -0.5092
 3441TIP3   OH231737   3.876   0.686   3.767 -0.1329 -0.2858  0.2041
 3441TIP3    H131738   3.807   0.644   3.817 -0.4397 -1.5774 -1.2260
 3441TIP3    H231739   3.831   0.728   3.693  0.5390 -0.7780 -0.5059
 3442TIP3   OH231740   1.132   6.635   2.746 -0.4914 -0.0992 -0.1723
 3442TIP3    H131741   1.077   6.588   2.809 -1.2114  1.3903  0.3661
 3442TIP3    H231742   1.076   6.706   2.714 -0.0381 -0.6448 -2.3146
 3443TIP3   OH231743   0.602   1.081  16.258  0.1435 -0.3739  0.0458
 3443TIP3    H131744   0.671   1.133  16.215 -0.5170  0.0489 -0.5126
 3443TIP3    H231745   0.532   1.144  16.275 -1.3166 -1.3323 -2.0051
 3444TIP3   OH231746   0.936   5.544   5.216  0.6759  0.1475  0.3130
 3444TIP3    H131747   0.853   5.504   5.189  0.3313  0.9803  0.0834
 3444TIP3    H231748   0.910   5.610   5.280  1.1454  0.5266  0.1164
 3445TIP3   OH231749   4.924   1.365  15.175 -0.8287 -0.1331  0.0799
 3445TIP3    H131750   4.920   1.437  15.112  1.2709 -0.0135  0.0076
 3445TIP3    H231751   4.939   1.408  15.259  0.5510 -0.4351  0.0203
 3446TIP3   OH231752   0.245   1.279   5.827 -0.1088 -0.3600  0.1368
 3446TIP3    H131753   0.255   1.373   5.840 -0.7579  0.1574 -2.4255
 3446TIP3    H231754   0.293   1.239   5.899  2.6051  1.9107 -0.2326
 3447TIP3   OH231755   3.589   3.084  15.619  0.3428  0.1461 -0.1317
 3447TIP3    H131756   3.611   3.172  15.649  0.6886 -0.0187  0.1097
 3447TIP3    H231757   3.645   3.026  15.672  0.7282 -0.1724 -0.8794
 3448TIP3   OH231758   6.783   5.622   6.352 -0.1453 -0.7470 -0.3649
 3448TIP3    H131759   6.829   5.551   6.397 -2.1161 -1.0273  1.3754
 3448TIP3    H231760   6.770   5.689   6.419 -0.5131  0.1669 -1.3229
 3449TIP3   OH231761   5.672   5.350   3.427 -0.0448  0.1700  0.3391
 3449TIP3    H131762   5.722   5.419   3.384 -0.2811 -0.1595 -0.4762
 3449TIP3    H231763   5.582   5.383   3.427 -0.0862  0.0557  0.3602
 3450TIP3   OH231764   6.423   0.831   6.518  0.1185 -0.1263  0.5195
 3450TIP3    H131765   6.423   0.751   6.465  0.1973  0.1244  0.1345
 3450TIP3    H231766   6.515   0.845   6.541  0.2345  0.3712 -0.2158
 3451TIP3   OH231767   2.175   5.343  15.614 -0.1910 -0.1356  0.5915
 3451TIP3    H131768   2.201   5.389  15.694  1.2593  0.2816 -0.0856
 3451TIP3    H231769   2.229   5.382  15.545 -0.1436 -1.6858 -0.2956
 3452TIP3   OH231770   6.616   4.135   5.795 -0.2607  0.1598  0.3040
 3452TIP3    H131771   6.619   4.230   5.806 -0.8158  0.0335  1.7177
 3452TIP3    H231772   6.635   4.121   5.702 -1.5350  1.7279 -0.2376
 3453TIP3   OH231773   6.048   3.858  15.586  0.0125 -0.1395 -0.0687
 3453TIP3    H131774   6.126   3.841  15.532 -0.0313 -0.5485 -0.0060
 3453TIP3    H231775   6.080   3.855  15.676  0.2334  1.3080 -0.0842
 3454TIP3   OH231776   4.101   4.691   3.542  0.9359  0.1580 -0.2860
 3454TIP3    H131777   4.113   4.763   3.479 -1.1102  0.1336 -0.7702
 3454TIP3    H231778   4.176   4.634   3.527  3.7067  3.0538  1.4240
 3455TIP3   OH231779   4.409   5.609  15.254  0.1023  0.0167 -0.1612
 3455TIP3    H131780   4.391   5.516  15.269  0.4852  0.1218  1.0271
 3455TIP3    H231781   4.454   5.638  15.333 -0.0376  1.2310 -0.5069
 3456TIP3   OH231782   6.638   2.727  15.382  0.5453 -0.0282  0.3302
 3456TIP3    H131783   6.661   2.671  15.307  2.8567 -0.5081  1.3097
 3456TIP3    H231784   6.645   2.669  15.458  0.5977  1.0170  1.1359
 3457TIP3   OH231785   0.352   6.439  16.025 -0.6664  0.0117 -0.6037
 3457TIP3    H131786   0.257   6.425  16.024 -0.3206 -2.8768 -0.8077
 3457TIP3    H231787   0.374   6.448  16.118 -1.0554  0.1182 -0.5182
 3458TIP3   OH231788   6.328   3.149   3.647 -0.3778 -0.4256  0.2989
 3458TIP3    H131789   6.247   3.174   3.603 -1.1798 -1.9838  0.8072
 3458TIP3    H231790   6.374   3.232   3.663 -1.2232  0.3723 -1.1901
 3459TIP3   OH231791   0.706   4.688  15.312  0.1234 -0.2368 -0.4038
 3459TIP3    H131792   0.624   4.678  15.361  0.9074  1.1308  1.3097
 3459TIP3    H231793   0.728   4.600  15.283 -0.5726 -1.0730  1.4394
 3460TIP3   OH231794   2.115   2.210   2.440  0.6588  0.3336  0.5151
 3460TIP3    H131795   2.138   2.136   2.384 -0.9314 -0.4021  0.7655
 3460TIP3    H231796   2.174   2.280   2.413 -0.8992  0.4734 -3.1192
 3461TIP3   OH231797   0.913   5.529   3.005 -0.0770 -0.2988  0.2130
 3461TIP3    H131798   0.874   5.571   3.082 -0.6235 -0.2326 -0.0971
 3461TIP3    H231799   0.925   5.600   2.942  0.4355 -0.3403  0.2578
 3462TIP3   OH231800   3.988   4.676  14.792 -0.3280 -0.1597  0.1697
 3462TIP3    H131801   3.920   4.679  14.725  0.3311  0.7616 -0.4998
 3462TIP3    H231802   4.015   4.768  14.802 -0.9549 -0.1566  2.2822
 3463TIP3   OH231803   4.992   2.124  16.901 -0.2468 -0.3415 -0.3727
 3463TIP3    H131804   4.996   2.110  16.996 -0.8509 -0.6302 -0.3853
 3463TIP3    H231805   4.904   2.159  16.886 -1.1380 -2.7152 -1.1229
 3464TIP3   OH231806   5.442   5.394  10.870  0.4055  0.2672 -0.2067
 3464TIP3    H131807   5.415   5.403  10.779 -1.9237  1.7615  0.5567
 3464TIP3    H231808   5.361   5.402  10.921  1.1744 -3.3503  1.9374
 3465TIP3   OH231809   4.286   3.754  11.817  0.3361 -0.0907  0.1188
 3465TIP3    H131810   4.378   3.752  11.789  0.5692  0.2465  0.8165
 3465TIP3    H231811   4.262   3.846  11.813 -0.6074 -0.3953 -1.9712
 3466TIP3   OH231812   6.411   0.565  16.973 -0.0014  0.0230  0.6970
 3466TIP3    H131813   6.323   0.531  16.955 -0.2386  0.5591  0.8079
 3466TIP3    H231814   6.398   0.659  16.985  0.3418 -0.1110  2.3337
 3467TIP3   OH231815   1.249   5.630   1.673 -0.2943 -0.3119  0.0927
 3467TIP3    H131816   1.183   5.698   1.678 -0.0699 -0.0458 -0.3999
 3467TIP3    H231817   1.200   5.548   1.673 -0.6082 -0.1260  0.0059
 3468TIP3   OH231818   0.129   1.015   1.914  0.4449  0.0200  0.1157
 3468TIP3    H131819   0.178   1.067   1.850  0.1715  1.4141  1.0025
 3468TIP3    H231820   0.195   0.956   1.951  0.8674  0.0413 -0.5789
 3469TIP3   OH231821   4.972   0.592  12.650  0.2151  0.0951 -0.2640
 3469TIP3    H131822   4.968   0.512  12.598 -0.7242 -1.1917  1.6716
 3469TIP3    H231823   4.915   0.654  12.603 -0.7270 -1.0629 -0.7088
 3470TIP3   OH231824   3.808   5.035  13.251 -0.2101 -0.5792 -0.4660
 3470TIP3    H131825   3.830   4.979  13.326  0.8560 -1.0518 -1.1114
 3470TIP3    H231826   3.773   4.975  13.186 -0.3618 -0.2872 -0.6534
 3471TIP3   OH231827   0.195   0.323   4.948  0.0132  0.3180 -0.1866
 3471TIP3    H131828   0.102   0.348   4.949  0.1244  0.8215  1.5127
 3471TIP3    H231829   0.233   0.371   5.022  1.4316 -0.6266 -0.2630
 3472TIP3   OH231830   0.357   1.240  12.765  0.2660 -0.4638 -0.1887
 3472TIP3    H131831   0.320   1.250  12.853 -1.7309 -1.8264 -0.8265
 3472TIP3    H231832   0.315   1.162  12.729  0.9433  0.1252 -2.4265
 3473TIP3   OH231833   6.155   5.856  11.481  0.5418  0.1343 -0.4499
 3473TIP3    H131834   6.229   5.799  11.459  0.7110  0.9292 -2.0559
 3473TIP3    H231835   6.134   5.901  11.399  0.3786  2.3582  0.7318
 3474TIP3   OH231836   6.320   6.645  16.231 -0.7658 -0.3789 -0.2113
 3474TIP3    H131837   6.377   6.718  16.253  0.6094 -1.6373  0.6290
 3474TIP3    H231838   6.329   6.634  16.136 -1.7680  1.1190 -0.5073
 3475TIP3   OH231839   4.907   1.292   1.350  0.0490  0.1209  0.0173
 3475TIP3    H131840   4.856   1.248   1.283  2.0944 -0.1386 -1.4684
 3475TIP3    H231841   4.876   1.383   1.348  0.0628  0.1200 -1.3011
 3476TIP3   OH231842   0.644   3.183  11.240  0.0314  0.0977  0.1527
 3476TIP3    H131843   0.619   3.143  11.157  1.2974 -1.5989  0.5267
 3476TIP3    H231844   0.724   3.138  11.265  0.4598  1.5668  1.6092
 3477TIP3   OH231845   4.242   4.531  15.322 -0.2310  0.9212 -0.3822
 3477TIP3    H131846   4.267   4.440  15.340 -3.0389  0.1101 -0.0766
 3477TIP3    H231847   4.209   4.529  15.232  1.0186  1.9962 -0.8923
 3478TIP3   OH231848   4.346   2.945   4.214  0.2675  0.3563  0.1335
 3478TIP3    H131849   4.319   2.930   4.124 -0.0682 -1.0510  0.4313
 3478TIP3    H231850   4.300   2.877   4.264 -0.2524  1.6547  1.4986
 3479TIP3   OH231851   0.214   5.572   5.952  0.4688  0.1297 -0.2041
 3479TIP3    H131852   0.127   5.605   5.975 -0.3293 -0.6997 -1.8667
 3479TIP3    H231853   0.223   5.490   6.002 -0.5357 -0.7818 -1.4635
 3480TIP3   OH231854   5.919   6.351   3.580  0.1870  0.6745 -1.2356
 3480TIP3    H131855   6.008   6.384   3.595  0.4840 -0.9905  1.3050
 3480TIP3    H231856   5.927   6.256   3.590 -1.8496  0.4697 -1.2368
 3481TIP3   OH231857   3.976   5.576  16.124 -0.1418  0.0515  0.3274
 3481TIP3    H131858   3.960   5.482  16.127  1.2553 -0.1931  0.7601
 3481TIP3    H231859   4.022   5.590  16.041 -1.0430  0.4887 -0.1151
 3482TIP3   OH231860   4.264   6.640  13.337 -0.3004 -0.1172  0.3401
 3482TIP3    H131861   4.331   6.590  13.384  1.8891  1.8609 -0.4976
 3482TIP3    H231862   4.213   6.683  13.406  2.3330  2.0661  1.1169
 3483TIP3   OH231863   3.396   3.439   5.835  0.0327  0.8982  0.3126
 3483TIP3    H131864   3.437   3.444   5.749 -0.7519  0.7896 -0.0750
 3483TIP3    H231865   3.406   3.347   5.861 -1.0989  0.5547 -0.3685
 3484TIP3   OH231866   1.608   0.141  16.255 -0.2394  0.5537  0.4544
 3484TIP3    H131867   1.632   0.148  16.348  0.3537 -0.6168  0.3940
 3484TIP3    H231868   1.681   0.183  16.209 -0.3870  0.8595  0.4947
 3485TIP3   OH231869   2.418   0.631  16.906 -0.1693 -0.1635  0.6199
 3485TIP3    H131870   2.420   0.552  16.851  1.4015 -0.7216  1.4157
 3485TIP3    H231871   2.510   0.652  16.921 -0.5653  1.2663  1.2425
 3486TIP3   OH231872   3.135   0.535  15.841  0.3203  0.5626 -1.1085
 3486TIP3    H131873   3.230   0.533  15.834  0.2877 -0.9631 -1.5159
 3486TIP3    H231874   3.108   0.607  15.785  1.0732 -1.0844 -3.7827
 3487TIP3   OH231875   0.780   4.597   3.361  0.0966  0.8037 -0.0949
 3487TIP3    H131876   0.795   4.670   3.301 -0.4874  0.6839 -0.3811
 3487TIP3    H231877   0.792   4.519   3.308  1.6111  0.6596  0.4100
 3488TIP3   OH231878   1.546   0.083   2.615 -0.0190  0.0945 -0.2761
 3488TIP3    H131879   1.474   0.118   2.668 -1.5629 -0.7278 -1.7397
 3488TIP3    H231880   1.530   0.117   2.527  0.9505 -0.7361 -0.7969
 3489TIP3   OH231881   1.766   0.747   4.575 -0.2547  0.0558 -0.1121
 3489TIP3    H131882   1.771   0.667   4.523  1.5966  0.5973 -0.8485
 3489TIP3    H231883   1.706   0.803   4.526  0.5597  0.1198 -1.0824
 3490TIP3   OH231884   6.174   5.592   3.221 -0.1038  0.2187 -0.7513
 3490TIP3    H131885   6.115   5.635   3.160 -0.2983  0.7131 -0.2225
 3490TIP3    H231886   6.252   5.571   3.170 -0.4358  0.2462 -1.2666
 3491TIP3   OH231887   0.932   0.192   0.026  0.1986 -0.0112  0.1089
 3491TIP3    H131888   1.001   0.140  -0.014 -0.3491 -0.5579 -0.1548
 3491TIP3    H231889   0.854   0.171  -0.025 -0.4738 -0.5663  1.3032
 3492TIP3   OH231890   3.464   4.152   5.240 -0.1159 -0.3809 -0.3585
 3492TIP3    H131891   3.527   4.087   5.270  0.5741 -0.1898 -1.3669
 3492TIP3    H231892   3.482   4.229   5.294 -0.8608 -0.9458  0.7612
 3493TIP3   OH231893   0.757   2.461   6.509  0.0753 -0.0200  0.5355
 3493TIP3    H131894   0.848   2.461   6.479 -0.3202  0.8379 -0.8053
 3493TIP3    H231895   0.750   2.387   6.568  1.8315  0.3509  1.2591
 3494TIP3   OH231896   0.927   4.015  16.403  0.7024  0.1192 -0.1433
 3494TIP3    H131897   0.979   4.084  16.362  0.1085  0.2618 -0.6750
 3494TIP3    H231898   0.966   3.934  16.373  1.7484  0.2077  0.9241
 3495TIP3   OH231899   2.647   3.734   3.873  0.5133  0.9258  0.7312
 3495TIP3    H131900   2.713   3.755   3.807 -0.6911 -0.0785 -0.8891
 3495TIP3    H231901   2.664   3.642   3.895 -0.6773  0.4656 -0.1676
 3496TIP3   OH231902   1.043   0.828   0.721 -0.4744  0.2960 -0.5034
 3496TIP3    H131903   0.985   0.779   0.662 -1.4276  1.1644 -0.3131
 3496TIP3    H231904   1.073   0.763   0.784  0.2526 -0.5713 -1.6826
 3497TIP3   OH231905   6.651   3.407   5.426 -0.1946  0.2356  0.8832
 3497TIP3    H131906   6.655   3.383   5.333 -2.3662  1.4219  0.4093
 3497TIP3    H231907   6.693   3.493   5.431 -0.9863  0.6344  0.7937
 3498TIP3   OH231908   1.267   3.425   3.048 -0.0681 -0.2354  0.3889
 3498TIP3    H131909   1.182   3.404   3.087 -0.3732  0.8630  0.3468
 3498TIP3    H231910   1.246   3.447   2.957  0.0985  1.1051  0.6545
 3499TIP3   OH231911   3.983   3.600  16.690  0.1833 -0.2545 -0.5998
 3499TIP3    H131912   4.024   3.539  16.628  2.2609  0.6069 -0.1394
 3499TIP3    H231913   4.056   3.636  16.740 -1.2728  0.5311  1.0386
 3500TIP3   OH231914   3.082   5.142  10.797  0.0207 -0.1760 -0.0109
 3500TIP3    H131915   3.077   5.057  10.754 -0.2247  0.2033 -0.7469
 3500TIP3    H231916   3.011   5.141  10.861 -0.1178 -0.4403 -0.1690
 3501TIP3   OH231917   4.270   0.387  11.621 -0.0028  0.1260 -0.3521
 3501TIP3    H131918   4.245   0.297  11.639  2.4307 -0.6734 -0.6087
 3501TIP3    H231919   4.205   0.418  11.558 -2.0397 -0.7361  1.1820
 3502TIP3   OH231920   0.562   4.665   0.948  0.3222 -0.0059 -0.0683
 3502TIP3    H131921   0.629   4.698   1.007 -0.5220 -0.5654  1.2430
 3502TIP3    H231922   0.598   4.581   0.916 -0.0683 -0.7121  1.2713
 3503TIP3   OH231923   1.974   2.889   6.512 -0.3484 -0.3409  0.0379
 3503TIP3    H131924   1.977   2.794   6.503 -3.9110 -0.4656 -1.8773
 3503TIP3    H231925   1.920   2.919   6.438 -1.3982  2.8873  1.8763
 3504TIP3   OH231926   4.821   3.236   0.393 -0.3943 -0.3205 -0.2368
 3504TIP3    H131927   4.846   3.153   0.354  0.8126 -0.3001  0.4192
 3504TIP3    H231928   4.804   3.215   0.485 -2.4553 -0.2434 -0.5620
 3505TIP3   OH231929   1.294   2.776   3.956  0.1944  0.5278  0.2378
 3505TIP3    H131930   1.301   2.681   3.970  0.7319  0.4876 -0.2521
 3505TIP3    H231931   1.229   2.805   4.021  1.3721  0.1168  1.6567
 3506TIP3   OH231932   1.723   4.742   2.156 -0.6580  0.8964 -0.1353
 3506TIP3    H131933   1.666   4.709   2.226  0.6949 -1.2005  0.0508
 3506TIP3    H231934   1.706   4.684   2.082  0.2541  1.0996 -0.5188
 3507TIP3   OH231935   0.464   3.583   1.688  0.0430 -0.4058 -0.2580
 3507TIP3    H131936   0.453   3.498   1.645 -0.3928 -0.2591 -0.4410
 3507TIP3    H231937   0.408   3.579   1.765 -0.4536 -0.0622 -0.5973
 3508TIP3   OH231938   3.268   0.202  14.080 -0.3413 -0.6382  0.2056
 3508TIP3    H131939   3.195   0.182  14.138  0.9818 -1.5259  1.6236
 3508TIP3    H231940   3.291   0.292  14.100 -1.1529 -0.2785 -0.4072
 3509TIP3   OH231941   5.690   1.999   5.098 -0.0832  0.5718  0.1016
 3509TIP3    H131942   5.680   2.093   5.107  1.3391  0.7657 -0.1425
 3509TIP3    H231943   5.767   1.988   5.042  0.4084 -0.7167  0.9684
 3510TIP3   OH231944   5.852   3.163  11.446 -0.3456  1.0841 -0.1831
 3510TIP3    H131945   5.792   3.093  11.470  0.8267  0.3510  0.7287
 3510TIP3    H231946   5.883   3.198  11.529  3.1786 -0.9525 -0.4175
 3511TIP3   OH231947   2.486   3.365   3.196  0.3212 -0.0500 -0.1342
 3511TIP3    H131948   2.495   3.276   3.232 -1.2754 -0.0119  0.4511
 3511TIP3    H231949   2.411   3.402   3.242  0.1157  1.1277 -1.3506
 3512TIP3   OH231950   1.297   0.564  15.022  0.0916 -0.0740 -0.6596
 3512TIP3    H131951   1.243   0.641  15.042  0.2503  0.0103 -0.5546
 3512TIP3    H231952   1.364   0.596  14.962  1.9357  0.5668  1.5872
 3513TIP3   OH231953   5.067   2.341   5.614  0.4084  0.0617 -0.2726
 3513TIP3    H131954   5.155   2.305   5.599  0.9938  1.1647  0.4127
 3513TIP3    H231955   5.071   2.377   5.703 -0.6996  0.2739 -0.2958
 3514TIP3   OH231956   4.366   0.803   5.346 -0.5105 -0.4268  0.0689
 3514TIP3    H131957   4.424   0.847   5.409  2.1195 -1.0625 -1.7402
 3514TIP3    H231958   4.407   0.819   5.261 -3.5856 -0.1335 -1.4874
 3515TIP3   OH231959   6.757   3.710   3.233  0.3583  0.0383 -0.1944
 3515TIP3    H131960   6.770   3.723   3.326  1.1438 -2.5908  0.1447
 3515TIP3    H231961   6.846   3.701   3.197  0.1204  1.8050 -1.3895
 3516TIP3   OH231962   4.481   1.860   5.098 -0.3532 -0.0327 -0.1723
 3516TIP3    H131963   4.515   1.842   5.011  0.2830 -2.1180  0.4342
 3516TIP3    H231964   4.411   1.795   5.110  0.0805 -0.2922  1.1243
 3517TIP3   OH231965   2.528   5.669  15.725  0.2224 -0.1464  0.4732
 3517TIP3    H131966   2.458   5.608  15.747 -0.0291 -0.1640 -0.3499
 3517TIP3    H231967   2.582   5.620  15.662  0.4910  0.1765  0.4533
 3518TIP3   OH231968   2.484   4.044  13.827 -0.0213 -0.4732  0.1229
 3518TIP3    H131969   2.574   4.053  13.794  0.0619 -2.3004 -0.2101
 3518TIP3    H231970   2.440   4.124  13.797  1.4163  0.3616  0.1210
 3519TIP3   OH231971   2.701   0.311   0.279 -0.2158  0.1658  0.5084
 3519TIP3    H131972   2.710   0.330   0.372 -3.8072  1.2614  0.8131
 3519TIP3    H231973   2.699   0.398   0.237 -1.4741 -0.1662 -0.1668
 3520TIP3   OH231974   0.440   6.198  12.259 -0.0271 -0.0286  0.4518
 3520TIP3    H131975   0.366   6.259  12.266  0.1923  0.1302  1.8206
 3520TIP3    H231976   0.499   6.239  12.196 -1.0392 -0.1022 -0.5811
 3521TIP3   OH231977   0.674   1.810   3.963  0.0145  0.5278  0.3427
 3521TIP3    H131978   0.686   1.752   4.037 -0.7524 -1.6269 -1.1222
 3521TIP3    H231979   0.741   1.783   3.900 -1.4226  0.0288 -1.0330
 3522TIP3   OH231980   1.123   4.723   1.104 -0.2260 -0.6468 -0.3012
 3522TIP3    H131981   1.140   4.669   1.181 -0.5533  1.2285  1.1714
 3522TIP3    H231982   1.064   4.671   1.051 -2.1896 -1.0207  2.0367
 3523TIP3   OH231983   5.343   5.853   1.654 -0.0043 -0.2367  0.2970
 3523TIP3    H131984   5.407   5.914   1.690 -0.0323 -0.4057  0.6414
 3523TIP3    H231985   5.280   5.841   1.725 -1.1165  0.8966 -0.4624
 3524TIP3   OH231986   5.780   4.062  10.585 -0.4078  0.0656  0.7177
 3524TIP3    H131987   5.850   4.024  10.532 -0.3467 -0.6942  1.3257
 3524TIP3    H231988   5.700   4.036  10.541 -0.3332  1.1880 -0.1503
 3525TIP3   OH231989   2.768   2.187  16.420  0.2653  0.2512 -0.0061
 3525TIP3    H131990   2.678   2.155  16.414 -0.0992  0.9710  1.1208
 3525TIP3    H231991   2.821   2.108  16.428 -0.0754 -0.2575 -2.2915
 3526TIP3   OH231992   2.955   6.167   6.710 -0.1240  0.5200 -0.9011
 3526TIP3    H131993   3.009   6.097   6.674  1.1172  0.7437  0.4294
 3526TIP3    H231994   2.910   6.205   6.634  0.6822 -0.4416 -1.8848
 3527TIP3   OH231995   1.555   3.639   2.314  0.1808  0.6251  0.0414
 3527TIP3    H131996   1.546   3.587   2.394 -0.5909 -2.0769 -1.6527
 3527TIP3    H231997   1.481   3.699   2.315 -0.1950  0.1662  1.0363
 3528TIP3   OH231998   4.604   0.382  12.186 -0.0603 -0.7336 -0.6466
 3528TIP3    H131999   4.688   0.342  12.208 -0.4405 -0.4787  1.4397
 3528TIP3    H232000   4.623   0.436  12.109  1.5824 -0.9943 -0.4583
 3529TIP3   OH232001   1.540   6.497  15.501  0.3451 -0.1218  0.3848
 3529TIP3    H132002   1.628   6.518  15.529  0.8162 -0.0161 -1.0732
 3529TIP3    H232003   1.542   6.402  15.485  0.5080  0.0414 -0.6308
 3530TIP3   OH232004   1.650   0.358  13.048 -0.3132  0.3692 -0.1403
 3530TIP3    H132005   1.706   0.404  12.986 -0.6988  0.9925 -0.0483
 3530TIP3    H232006   1.578   0.420  13.064 -1.5852 -0.8214 -1.0557
 3531TIP3   OH232007   2.632   2.721   2.054  0.2100 -0.1240 -0.1439
 3531TIP3    H132008   2.644   2.643   2.108  0.7569  0.1313  0.1065
 3531TIP3    H232009   2.591   2.785   2.113  0.3871  0.0029 -0.1588
 3532TIP3   OH232010   1.272   4.373   5.986 -0.0198  0.2501  0.0282
 3532TIP3    H132011   1.274   4.398   6.078  1.4273  1.0556 -0.1969
 3532TIP3    H232012   1.188   4.406   5.954 -0.4458  0.1443  0.9918
 3533TIP3   OH232013   2.664   1.059   1.666 -0.0123  0.2151 -0.3240
 3533TIP3    H132014   2.727   0.995   1.699  0.2212  0.1513 -0.8767
 3533TIP3    H232015   2.663   1.128   1.732  0.4141  0.0729 -0.1652
 3534TIP3   OH232016   6.605   0.615  13.133 -0.2066 -0.4727  0.1182
 3534TIP3    H132017   6.631   0.529  13.098  0.2543 -0.5244  0.5620
 3534TIP3    H232018   6.576   0.596  13.223 -2.7881 -0.5582 -0.6709
 3535TIP3   OH232019   2.062   0.678   3.774 -0.1873  0.6085 -0.1383
 3535TIP3    H132020   2.140   0.680   3.717  1.0087  1.9070  1.4566
 3535TIP3    H232021   1.989   0.672   3.713  1.0806  0.9129 -1.7743
 3536TIP3   OH232022   5.748   3.436   0.949 -0.4674 -0.0731  0.0317
 3536TIP3    H132023   5.841   3.435   0.927 -0.5514  0.1996 -0.3471
 3536TIP3    H232024   5.704   3.462   0.868 -0.8417  0.2373  0.3298
 3537TIP3   OH232025   4.941   0.755  13.222  0.0802  0.0151 -0.2477
 3537TIP3    H132026   4.970   0.705  13.298 -0.5621 -1.5923 -1.0091
 3537TIP3    H232027   5.012   0.747  13.159 -0.6748 -1.3605 -0.9740
 3538TIP3   OH232028   2.100   4.365   2.220 -0.2668  0.5585 -0.2770
 3538TIP3    H132029   2.153   4.405   2.151  0.0047  2.8712  1.1601
 3538TIP3    H232030   2.155   4.295   2.255  1.3877  2.0978  0.3450
 3539TIP3   OH232031   1.943   2.217  17.139 -0.6576 -0.3885 -0.5292
 3539TIP3    H132032   1.967   2.263  17.219  2.8416 -2.3719 -0.2272
 3539TIP3    H232033   1.926   2.286  17.075 -0.4933  1.2302  1.0914
 3540TIP3   OH232034   1.827   5.822  11.518 -0.5429 -0.1622  0.2816
 3540TIP3    H132035   1.739   5.828  11.554 -0.4921 -1.7748  0.7130
 3540TIP3    H232036   1.827   5.885  11.445 -0.9554  2.3752  2.3414
 3541TIP3   OH232037   5.086   6.705   3.849 -0.5892  0.2037  0.3222
 3541TIP3    H132038   5.113   6.791   3.882  0.8191 -0.0553 -0.0755
 3541TIP3    H232039   5.103   6.645   3.922  0.3670 -0.0221 -0.0647
 3542TIP3   OH232040   1.600   4.675   7.094 -0.2127  0.0993 -0.0891
 3542TIP3    H132041   1.672   4.656   7.155  0.0310 -2.4019 -1.0507
 3542TIP3    H232042   1.643   4.708   7.015 -0.0089 -1.6370 -0.7584
 3543TIP3   OH232043   0.368   1.279  16.845 -0.3265  0.2568 -0.3202
 3543TIP3    H132044   0.289   1.328  16.820  0.4449  2.6674  1.5913
 3543TIP3    H232045   0.373   1.288  16.940  1.4497 -1.1536 -0.2289
 3544TIP3   OH232046   0.911   6.428  16.485  0.4255  0.7094 -0.6267
 3544TIP3    H132047   0.860   6.375  16.546  1.9154  0.4836  0.4901
 3544TIP3    H232048   0.956   6.491  16.540  1.2205  1.0017 -1.5777
 3545TIP3   OH232049   6.070   3.404   2.214 -0.4326 -0.0024 -0.2214
 3545TIP3    H132050   6.020   3.482   2.190 -1.0449 -0.1305  0.5895
 3545TIP3    H232051   6.146   3.405   2.156 -0.6636  0.9507 -0.5212
 3546TIP3   OH232052   5.656   5.680  12.970 -0.5001 -0.2464  0.1903
 3546TIP3    H132053   5.658   5.586  12.953 -0.8082 -0.0031 -1.3237
 3546TIP3    H232054   5.620   5.718  12.890 -0.5944  1.1451  0.8680
 3547TIP3   OH232055   5.895   5.072   5.841  0.2018  0.3047 -0.5210
 3547TIP3    H132056   5.976   5.032   5.807 -0.2208  0.1482 -1.3594
 3547TIP3    H232057   5.896   5.049   5.935  0.8139 -0.2362 -0.6445
 3548TIP3   OH232058   3.141   1.141   3.326 -0.1622  0.1423 -0.1540
 3548TIP3    H132059   3.084   1.067   3.306  0.4847 -0.4766  0.2346
 3548TIP3    H232060   3.085   1.218   3.315 -0.5527 -0.3215 -1.6470
 3549TIP3   OH232061   4.720   3.102   2.070  0.4316 -0.1485  0.1586
 3549TIP3    H132062   4.666   3.026   2.048 -0.5547  0.7239 -0.5406
 3549TIP3    H232063   4.673   3.145   2.142 -0.0962  0.8719 -0.7562
 3550TIP3   OH232064   6.540   4.310   3.029 -0.1389  0.3449 -0.3161
 3550TIP3    H132065   6.580   4.326   3.115  0.3268  1.0756 -0.6498
 3550TIP3    H232066   6.570   4.222   3.005  3.5240  1.7589 -1.6808
 3551TIP3   OH232067   0.499   3.888  15.556  0.0355  0.3637  0.1398
 3551TIP3    H132068   0.472   3.824  15.490  0.5150  0.3670 -0.0563
 3551TIP3    H232069   0.530   3.835  15.629 -1.8219  0.3171  0.9567
 3552TIP3   OH232070   3.518   3.687   0.105 -0.1895  0.0892 -0.6533
 3552TIP3    H132071   3.518   3.591   0.104 -0.0199  0.0897 -0.9095
 3552TIP3    H232072   3.438   3.711   0.151  0.2400 -0.1809  0.2482
 3553TIP3   OH232073   4.234   5.832  11.572  0.1611 -0.7164  0.1698
 3553TIP3    H132074   4.230   5.792  11.660 -0.8449  1.6423  1.2786
 3553TIP3    H232075   4.317   5.878  11.571  0.4485 -1.2387 -0.3700
 3554TIP3   OH232076   2.620   0.456  16.389  0.5460 -0.3601  0.4926
 3554TIP3    H132077   2.624   0.374  16.341 -0.7459 -1.0529  1.5165
 3554TIP3    H232078   2.702   0.501  16.367 -0.1057 -0.4831 -2.5593
 3555TIP3   OH232079   1.005   4.762  14.292  0.4030  0.1134 -0.8520
 3555TIP3    H132080   0.942   4.817  14.245 -2.1316  0.0481  2.1232
 3555TIP3    H232081   1.065   4.824  14.333 -0.3481  0.4999 -0.3077
 3556TIP3   OH232082   4.372   1.728  14.192  0.5163  0.3428 -0.0490
 3556TIP3    H132083   4.465   1.705  14.200  0.5166  0.7895  1.9577
 3556TIP3    H232084   4.326   1.644  14.196  0.8044  0.1529 -0.6012
 3557TIP3   OH232085   6.564   0.497  12.685 -0.3846  0.0256 -0.6737
 3557TIP3    H132086   6.570   0.461  12.597 -0.3679 -0.8651 -0.3227
 3557TIP3    H232087   6.489   0.452  12.725 -0.2333  0.2252 -0.1461
 3558TIP3   OH232088   0.654   6.543   3.651  0.2213 -0.5859  0.6626
 3558TIP3    H132089   0.635   6.491   3.730 -1.8056 -0.7052  0.1675
 3558TIP3    H232090   0.622   6.488   3.579  2.8902 -0.8905 -0.3876
 3559TIP3   OH232091   0.744   5.549   4.269  0.0719  0.1828 -0.2276
 3559TIP3    H132092   0.813   5.552   4.203  1.3500  0.9809  1.0755
 3559TIP3    H232093   0.737   5.456   4.292  1.8403  0.2220  0.6798
 3560TIP3   OH232094   6.019   0.287   1.018 -0.8495 -0.5974 -0.4442
 3560TIP3    H132095   6.064   0.313   0.937 -1.2725 -1.2325 -0.8968
 3560TIP3    H232096   6.090   0.265   1.079 -0.5345 -0.7696 -0.8666
 3561TIP3   OH232097   1.317   5.465   5.575 -0.3447  0.1824  0.1870
 3561TIP3    H132098   1.326   5.459   5.670 -0.4546  0.4650  0.2140
 3561TIP3    H232099   1.247   5.528   5.561  1.7244  2.5744 -0.1211
 3562TIP3   OH232100   5.435   2.626  14.187 -0.3523 -0.1802  0.4633
 3562TIP3    H132101   5.525   2.660  14.180 -0.3398 -0.3404 -0.2627
 3562TIP3    H232102   5.380   2.698  14.158 -0.2325 -1.2587 -2.9484
 3563TIP3   OH232103   5.289   5.104  16.924  0.2551 -0.1974 -0.0390
 3563TIP3    H132104   5.278   5.144  16.837 -0.0407 -0.6912 -0.2293
 3563TIP3    H232105   5.375   5.062  16.920  0.3055 -0.0968 -0.0390
 3564TIP3   OH232106   2.270   6.074   1.315 -0.0233  0.4397 -0.3398
 3564TIP3    H132107   2.280   6.134   1.241  0.1828 -1.0859 -1.6037
 3564TIP3    H232108   2.354   6.028   1.321 -0.1477  0.3085  0.6440
 3565TIP3   OH232109   5.949   2.470  12.700  0.0392 -0.3928  0.2289
 3565TIP3    H132110   5.900   2.396  12.664 -2.0775  0.7490  0.5990
 3565TIP3    H232111   6.037   2.436  12.715 -0.3104 -2.2321 -1.5214
 3566TIP3   OH232112   1.179   1.932  16.328 -0.6488  0.0920 -0.3122
 3566TIP3    H132113   1.162   2.021  16.357 -1.1488  0.6130 -2.0522
 3566TIP3    H232114   1.260   1.939  16.277  0.0620 -0.7295  0.6591
 3567TIP3   OH232115   1.780   2.353  13.101  0.3110  0.2024  0.4992
 3567TIP3    H132116   1.771   2.323  13.191  0.5234  0.7873  0.7230
 3567TIP3    H232117   1.862   2.402  13.101  0.1278  0.5125  0.0755
 3568TIP3   OH232118   4.339   3.298   6.804 -0.6495 -0.1680 -0.0329
 3568TIP3    H132119   4.344   3.214   6.757  0.7498  0.4727 -1.0968
 3568TIP3    H232120   4.384   3.360   6.747 -2.0148  1.4266  0.5385
 3569TIP3   OH232121   6.543   0.421   1.828  0.1617 -0.2452  0.4543
 3569TIP3    H132122   6.566   0.362   1.756  1.3569 -0.6277  1.1214
 3569TIP3    H232123   6.481   0.371   1.882  0.4623 -0.5515  0.5191
 3570TIP3   OH232124   4.090   6.306   4.368  0.2259 -0.0809 -0.3960
 3570TIP3    H132125   4.058   6.384   4.324 -0.4456 -0.2492 -0.2075
 3570TIP3    H232126   4.185   6.308   4.354  0.5316  1.9299  1.4610
 3571TIP3   OH232127   3.205   2.926   4.389  0.5319 -0.3190 -0.2309
 3571TIP3    H132128   3.295   2.904   4.364  1.0427 -0.8030  1.8206
 3571TIP3    H232129   3.213   3.008   4.438  0.1392 -1.2297  1.4241
 3572TIP3   OH232130   2.950   6.419   3.693  0.4366  0.1493  0.1707
 3572TIP3    H132131   3.045   6.423   3.691  0.5345  0.5905  2.3317
 3572TIP3    H232132   2.921   6.506   3.668  0.4205 -0.6701 -3.0643
 3573TIP3   OH232133   2.228   5.690   4.359 -0.3024  0.3553  0.5479
 3573TIP3    H132134   2.161   5.759   4.356 -0.7162 -0.0555  0.3526
 3573TIP3    H232135   2.308   5.734   4.329 -0.6900  0.6113 -0.1368
 3574TIP3   OH232136   0.312   4.123   1.224 -0.3543  0.1570 -0.3323
 3574TIP3    H132137   0.300   4.214   1.250 -0.7752 -0.1737  0.6954
 3574TIP3    H232138   0.232   4.101   1.176 -0.0233  0.4738 -1.0385
 3575TIP3   OH232139   5.617   0.012  11.541 -0.1003  0.1832  0.1730
 3575TIP3    H132140   5.561   0.083  11.508  0.4441  0.0293 -1.1411
 3575TIP3    H232141   5.558  -0.061  11.555 -0.5093  0.5840  0.5524
 3576TIP3   OH232142   0.179   2.903  10.484 -0.0914 -0.8497  0.2616
 3576TIP3    H132143   0.265   2.904  10.441  0.2145 -1.7884  0.8167
 3576TIP3    H232144   0.138   2.985  10.457  0.7582 -0.6420 -0.4607
 3577TIP3   OH232145   1.824   3.506   0.803 -0.5778 -0.4697  0.0029
 3577TIP3    H132146   1.786   3.474   0.885 -0.4279 -0.1745  0.1903
 3577TIP3    H232147   1.855   3.427   0.759  2.0953 -0.4158  1.6071
 3578TIP3   OH232148   2.987   1.581   2.560  0.0272 -0.0017  0.0117
 3578TIP3    H132149   2.914   1.530   2.526  0.0998 -0.8673  1.0810
 3578TIP3    H232150   3.038   1.518   2.610  1.1108  0.7519 -0.1087
 3579TIP3   OH232151   0.394   5.300   5.568 -0.2134  0.3514  0.3161
 3579TIP3    H132152   0.462   5.343   5.619 -1.3346  1.0644  1.2799
 3579TIP3    H232153   0.406   5.331   5.479  1.6980 -0.8015  0.1133
 3580TIP3   OH232154   3.593   6.471  13.351  0.1262 -0.0147 -0.3233
 3580TIP3    H132155   3.561   6.451  13.439 -0.4190 -0.1739 -0.5578
 3580TIP3    H232156   3.661   6.538  13.366  0.3667 -0.3730  0.2559
 3581TIP3   OH232157   3.756   1.690  11.246  0.1685  0.0596 -0.6308
 3581TIP3    H132158   3.704   1.717  11.321  2.5007  0.6865  0.8687
 3581TIP3    H232159   3.720   1.605  11.220 -0.9938  0.0474  0.9021
 3582TIP3   OH232160   5.028   5.026  12.756  0.4990  0.5349 -0.1222
 3582TIP3    H132161   5.020   5.060  12.667  1.5598 -0.8103 -0.7694
 3582TIP3    H232162   4.981   4.943  12.755  1.8151 -0.2303  0.1356
 3583TIP3   OH232163   2.238   6.566   4.284  0.2102 -0.0195 -0.2004
 3583TIP3    H132164   2.292   6.639   4.313 -0.8176  0.8678 -0.4625
 3583TIP3    H232165   2.244   6.501   4.354  1.1528  0.2990  0.0196
 3584TIP3   OH232166   2.755   5.470  13.824 -0.6858 -0.3645  0.1215
 3584TIP3    H132167   2.789   5.556  13.800 -0.3534 -0.7542 -0.8700
 3584TIP3    H232168   2.802   5.409  13.766  0.1706 -1.3689  1.7872
 3585TIP3   OH232169   0.922   4.935   5.754 -0.1655 -0.0225  0.0388
 3585TIP3    H132170   0.910   4.960   5.662 -1.8012 -0.0125  0.2368
 3585TIP3    H232171   0.885   4.847   5.760  1.0906 -0.5521  0.4358
 3586TIP3   OH232172   5.603   5.245  11.168 -0.4075 -0.2546 -0.7530
 3586TIP3    H132173   5.560   5.167  11.201  0.3482 -1.0620 -1.6190
 3586TIP3    H232174   5.608   5.304  11.244 -0.6562 -1.1915  0.0016
 3587TIP3   OH232175   3.539   5.286   1.559 -0.1144 -0.5063  0.2402
 3587TIP3    H132176   3.471   5.290   1.492 -0.1117  0.1895  0.2709
 3587TIP3    H232177   3.506   5.223   1.623 -1.1309  0.4282  0.6739
 3588TIP3   OH232178   2.069   2.181  15.338 -0.1749 -0.5206  0.6894
 3588TIP3    H132179   2.071   2.107  15.400 -0.4149  0.0075  1.3393
 3588TIP3    H232180   2.161   2.201  15.321 -0.1025 -0.3535  1.2645
 3589TIP3   OH232181   0.206   6.217   5.213  0.2582  0.4040  0.0477
 3589TIP3    H132182   0.205   6.270   5.293 -0.8177  0.2919  0.1192
 3589TIP3    H232183   0.298   6.195   5.200  0.6190  1.5433  0.5128
 3590TIP3   OH232184   1.840   2.373  16.651 -0.3045  0.2403 -0.2578
 3590TIP3    H132185   1.843   2.465  16.627 -2.3778  0.3552 -0.2438
 3590TIP3    H232186   1.896   2.329  16.587 -0.7262  1.3005 -1.3820
 3591TIP3   OH232187   5.301   2.109  14.858 -0.2639  0.2747 -0.3234
 3591TIP3    H132188   5.308   2.204  14.867 -1.3209  0.3527 -0.1891
 3591TIP3    H232189   5.236   2.096  14.789 -0.9157 -0.3351  0.3865
 3592TIP3   OH232190   3.537   4.338  12.265 -0.0012  0.3986 -0.6838
 3592TIP3    H132191   3.584   4.417  12.291  1.8242 -0.8337 -0.0208
 3592TIP3    H232192   3.605   4.277  12.238 -1.1294 -1.6631  0.7712
 3593TIP3   OH232193   0.768   1.054  12.615  0.9542 -0.5944 -0.0209
 3593TIP3    H132194   0.680   1.069  12.581  1.9381  1.3232 -2.0062
 3593TIP3    H232195   0.771   1.105  12.696 -0.4104 -2.5581  1.3514
 3594TIP3   OH232196   3.403   2.839   1.275  0.1115  0.4473 -0.3590
 3594TIP3    H132197   3.384   2.927   1.243  1.1357  1.4575  1.6566
 3594TIP3    H232198   3.499   2.836   1.283 -0.0530  0.1606  2.1934
 3595TIP3   OH232199   5.479   0.123   3.382 -0.3472  0.8029 -0.7241
 3595TIP3    H132200   5.541   0.068   3.431  0.1206 -0.6927 -2.8419
 3595TIP3    H232201   5.497   0.212   3.413  2.0063  0.2724 -0.3222
 3596TIP3   OH232202   6.718   0.311   0.375  0.0081 -0.4315 -0.5580
 3596TIP3    H132203   6.786   0.271   0.430 -0.1720 -0.6927 -0.5253
 3596TIP3    H232204   6.701   0.246   0.307 -1.3612 -1.0629  0.3563
 3597TIP3   OH232205   5.552   3.756  16.612  0.0497 -0.3727  0.4067
 3597TIP3    H132206   5.647   3.755  16.612  0.1924  0.1234  3.9833
 3597TIP3    H232207   5.529   3.835  16.562  1.3866 -1.1108 -1.4790
 3598TIP3   OH232208   6.475   1.582   2.161 -0.3115  0.4579 -0.4262
 3598TIP3    H132209   6.435   1.522   2.098 -3.4698  0.4978  1.3544
 3598TIP3    H232210   6.511   1.524   2.229 -1.7489  0.4886  0.3882
 3599TIP3   OH232211   1.865   6.538  12.197  0.5127 -0.4698  0.4489
 3599TIP3    H132212   1.825   6.538  12.110  1.1728 -1.7179  0.1246
 3599TIP3    H232213   1.813   6.476  12.247  0.5045 -0.1974  0.7817
 3600TIP3   OH232214   3.936   2.622  13.997 -0.1589 -0.7152  0.5089
 3600TIP3    H132215   4.001   2.667  13.943 -0.6233  0.6735  1.0533
 3600TIP3    H232216   3.964   2.531  13.998  1.4890 -0.2479  0.2949
 3601TIP3   OH232217   0.130   3.543  16.425  0.2757  0.7319 -0.1149
 3601TIP3    H132218   0.215   3.560  16.385  0.3847  2.2262  0.7031
 3601TIP3    H232219   0.141   3.459  16.469  0.6980 -0.0627 -1.6451
 3602TIP3   OH232220   3.513   0.134   1.848 -0.0331 -0.0037  0.1418
 3602TIP3    H132221   3.565   0.072   1.898  0.7519 -0.3362 -1.0344
 3602TIP3    H232222   3.514   0.214   1.900  1.1593 -0.1962  0.4422
 3603TIP3   OH232223   0.634   2.943   0.519  0.4403 -0.0589 -0.0921
 3603TIP3    H132224   0.539   2.936   0.521  0.5424 -2.3495  1.8058
 3603TIP3    H232225   0.662   2.866   0.470  1.3402  0.5216 -0.5136
 3604TIP3   OH232226   4.619   0.828  15.109 -0.2552  0.3340  0.3118
 3604TIP3    H132227   4.579   0.880  15.179 -1.1163 -1.5887  1.3313
 3604TIP3    H232228   4.706   0.807  15.143  0.1731  1.2509 -0.1922
 3605TIP3   OH232229   6.004   1.504   0.840  0.4636 -0.2017 -0.3412
 3605TIP3    H132230   5.909   1.507   0.831  0.1894 -1.3967  1.5829
 3605TIP3    H232231   6.030   1.424   0.793  0.7024  0.7579 -1.9033
 3606TIP3   OH232232   1.322   5.544  15.001  0.3262  0.0762  0.1234
 3606TIP3    H132233   1.264   5.510  14.933  0.4291  1.2285 -0.5611
 3606TIP3    H232234   1.389   5.476  15.011 -1.5005 -1.6434  1.4750
 3607TIP3   OH232235   1.940   0.893  13.515  0.4160 -0.1765 -0.4912
 3607TIP3    H132236   1.940   0.910  13.609 -2.4578 -1.3009 -0.1638
 3607TIP3    H232237   1.995   0.815  13.504  1.4684  0.4671  0.1094
 3608TIP3   OH232238   6.466   2.881   1.886  0.1900  0.1487  0.0380
 3608TIP3    H132239   6.534   2.815   1.869  1.3882  1.9515 -3.1107
 3608TIP3    H232240   6.388   2.847   1.842  0.3807  0.1045 -0.2730
 3609TIP3   OH232241   2.031   5.156  11.451  0.1762  0.6153 -0.0477
 3609TIP3    H132242   2.085   5.078  11.464 -0.7933  0.0309  0.6558
 3609TIP3    H232243   2.041   5.178  11.359 -0.5011 -1.1019 -0.5671
 3610TIP3   OH232244   2.063   6.154   0.366 -0.4267  0.3999  0.5991
 3610TIP3    H132245   2.145   6.140   0.319  0.2403 -0.7704  2.0554
 3610TIP3    H232246   2.031   6.238   0.333  1.9901  1.5196  0.9301
 3611TIP3   OH232247   5.483   0.754  14.274 -0.5206  0.1013 -0.3381
 3611TIP3    H132248   5.473   0.785  14.184  2.0012  0.6457 -0.4987
 3611TIP3    H232249   5.393   0.738  14.304 -1.3974 -1.0630 -3.2577
 3612TIP3   OH232250   1.619   3.732  11.383 -0.7118  0.5563  0.4806
 3612TIP3    H132251   1.708   3.709  11.355 -1.2881  0.3483 -1.2837
 3612TIP3    H232252   1.588   3.655  11.431  0.0016  0.5860  1.0076
 3613TIP3   OH232253   0.135   2.906  13.567  0.2436  0.5407 -0.1026
 3613TIP3    H132254   0.161   2.828  13.518 -1.7443  0.0231 -0.4246
 3613TIP3    H232255   0.189   2.976  13.531  0.8756 -0.3618 -0.9854
 3614TIP3   OH232256   3.113   1.448  14.243 -0.1185 -0.1060 -0.0308
 3614TIP3    H132257   3.146   1.447  14.333  1.9613  2.1624 -0.6406
 3614TIP3    H232258   3.033   1.500  14.248 -1.0024 -1.4982  0.7482
 3615TIP3   OH232259   0.611   4.250  15.919 -0.2007 -0.0348 -0.0044
 3615TIP3    H132260   0.662   4.250  15.838 -0.7291  0.0496 -0.3409
 3615TIP3    H232261   0.601   4.343  15.941  2.3362 -0.0776  1.7023
 3616TIP3   OH232262   2.766   1.723   3.330  0.2455  0.2925 -0.0063
 3616TIP3    H132263   2.709   1.671   3.274  3.4117 -1.7503 -1.6647
 3616TIP3    H232264   2.768   1.676   3.414  1.5494 -1.3079 -0.8614
 3617TIP3   OH232265   0.179   6.072  15.569  0.1179  0.6878 -0.3747
 3617TIP3    H132266   0.250   6.038  15.515  1.1734  1.9084  0.2056
 3617TIP3    H232267   0.222   6.108  15.646 -1.2566  0.0987  0.7298
 3618TIP3   OH232268   4.119   5.537   2.893  0.3168 -0.1039  0.5481
 3618TIP3    H132269   4.037   5.489   2.902  0.1091  0.1420  0.0642
 3618TIP3    H232270   4.185   5.480   2.931  0.4710 -1.8896 -2.1251
 3619TIP3   OH232271   1.134   3.654   0.294  0.0989  0.1012  0.2973
 3619TIP3    H132272   1.118   3.677   0.385  1.0714  0.3686  0.4217
 3619TIP3    H232273   1.050   3.623   0.261  0.2473 -2.2787  1.9251
 3620TIP3   OH232274   3.233   1.684   1.828  0.4534  0.3671  0.2214
 3620TIP3    H132275   3.152   1.699   1.781  0.3218 -1.8289 -0.3589
 3620TIP3    H232276   3.212   1.703   1.920 -0.0091  2.1501 -0.2350
 3621TIP3   OH232277   3.190   3.301   0.185  0.0684  0.5592  0.1642
 3621TIP3    H132278   3.195   3.211   0.155  0.0796  0.4343  0.5363
 3621TIP3    H232279   3.120   3.301   0.251 -1.4960  1.2650 -1.4040
 3622TIP3   OH232280   0.362   4.914  12.171  0.4557  0.2405  0.1668
 3622TIP3    H132281   0.285   4.926  12.115  2.0606  0.4108 -2.1663
 3622TIP3    H232282   0.417   4.990  12.154  1.9213 -0.7132  0.4107
 3623TIP3   OH232283   4.778   6.183   2.159 -0.3439 -0.6431  0.0803
 3623TIP3    H132284   4.829   6.227   2.227  0.8230 -1.2045 -0.4048
 3623TIP3    H232285   4.843   6.141   2.103 -1.2716 -0.2515 -1.3626
 3624TIP3   OH232286   1.270   2.892  12.371  0.1724 -0.3525  0.5944
 3624TIP3    H132287   1.212   2.817  12.359  1.3457 -0.9108 -2.6394
 3624TIP3    H232288   1.270   2.936  12.286  0.8048  2.4144  1.9079
 3625TIP3   OH232289   3.057   3.548   4.097 -0.3455 -0.1587 -0.5267
 3625TIP3    H132290   3.116   3.595   4.037  0.6223 -1.3922 -0.5870
 3625TIP3    H232291   3.053   3.604   4.175  1.0510 -0.1046 -0.4600
 3626TIP3   OH232292   1.103   2.258  10.642  1.0248  0.0872 -0.4076
 3626TIP3    H132293   1.186   2.211  10.643  1.5836  1.0395 -0.7099
 3626TIP3    H232294   1.113   2.323  10.573  1.1669  2.1611  1.4435
 3627TIP3   OH232295   0.590   1.436  16.932 -0.3350  0.7779 -0.5071
 3627TIP3    H132296   0.533   1.397  16.998 -2.9252  2.9559 -1.2555
 3627TIP3    H232297   0.638   1.362  16.895  1.5544 -0.5130  3.9022
 3628TIP3   OH232298   3.536   4.127   4.830 -0.1488 -0.0102 -0.2290
 3628TIP3    H132299   3.610   4.117   4.890 -0.0149  0.1656 -0.3657
 3628TIP3    H232300   3.477   4.187   4.874  0.3160  0.7464 -0.6177
 3629TIP3   OH232301   2.893   0.515  15.637  0.2357 -0.3805  0.4040
 3629TIP3    H132302   2.935   0.476  15.713  0.2126 -2.0953 -0.4354
 3629TIP3    H232303   2.823   0.455  15.614  1.1312 -0.6681 -1.8260
 3630TIP3   OH232304   5.524   2.559   0.068  0.0191 -0.0551  0.4218
 3630TIP3    H132305   5.571   2.596  -0.008 -1.3168 -0.9417 -0.8901
 3630TIP3    H232306   5.443   2.525   0.031 -1.0412  0.2009  2.4197
 3631TIP3   OH232307   6.665   4.818  11.817  0.1246 -0.1062 -0.2081
 3631TIP3    H132308   6.607   4.825  11.741  0.3490 -1.0637 -0.4755
 3631TIP3    H232309   6.753   4.823  11.780  0.2387  1.3327  0.1967
 3632TIP3   OH232310   3.366   2.381  12.331 -0.3348 -0.0191  0.5023
 3632TIP3    H132311   3.407   2.362  12.416  0.0129  0.7701  0.5261
 3632TIP3    H232312   3.416   2.456  12.297  0.3730 -1.1267 -0.9929
 3633TIP3   OH232313   2.042   1.090  16.904 -0.1357  0.1852 -0.5328
 3633TIP3    H132314   2.007   1.163  16.955 -0.0839  0.6749 -1.1882
 3633TIP3    H232315   2.099   1.043  16.966  0.5214  1.2048 -0.3473
 3634TIP3   OH232316   3.905   2.419  16.405 -0.1836 -0.5178  0.5351
 3634TIP3    H132317   3.836   2.373  16.452 -0.6066  0.0364  0.4763
 3634TIP3    H232318   3.860   2.458  16.330  0.6582 -2.3142 -1.0054
 3635TIP3   OH232319   4.631   0.380   2.070  0.2430 -0.4512 -0.2974
 3635TIP3    H132320   4.634   0.339   2.156 -0.5986 -1.8236 -0.8874
 3635TIP3    H232321   4.552   0.345   2.029  0.1315  0.8789 -1.2928
 3636TIP3   OH232322   1.724   4.403   3.457 -0.5181 -0.2742  0.4357
 3636TIP3    H132323   1.727   4.389   3.362 -0.4258  0.2103  0.3643
 3636TIP3    H232324   1.644   4.453   3.472  0.5172  1.4854  0.3521
 3637TIP3   OH232325   5.853   1.368   1.959  0.0121  0.0242 -0.6550
 3637TIP3    H132326   5.812   1.425   1.893 -1.3717  0.0930  0.2337
 3637TIP3    H232327   5.835   1.411   2.042  1.6207 -0.1365 -0.1780
 3638TIP3   OH232328   4.058   2.300  13.624  0.4000  0.1308  0.1597
 3638TIP3    H132329   4.108   2.294  13.542 -1.8430 -0.6220 -1.2448
 3638TIP3    H232330   4.028   2.210  13.639 -1.8909  0.8237  0.0101
 3639TIP3   OH232331   4.307   4.385  14.067  0.1054  0.1653  0.7635
 3639TIP3    H132332   4.270   4.350  13.986 -0.6323  2.3517  0.0968
 3639TIP3    H232333   4.234   4.387  14.128  0.7136 -1.6966  1.6064
 3640TIP3   OH232334   3.832   2.519  13.612  0.0412  0.1482  0.1736
 3640TIP3    H132335   3.884   2.458  13.560  2.2081  2.7156 -0.9509
 3640TIP3    H232336   3.744   2.515  13.574  0.7759 -0.4181 -1.5614
 3641TIP3   OH232337   2.344   2.097   6.726  0.1504 -0.0568 -0.4109
 3641TIP3    H132338   2.300   2.023   6.768 -0.0765  0.1220 -0.3301
 3641TIP3    H232339   2.331   2.170   6.786  0.4628  0.0263 -0.4408
 3642TIP3   OH232340   6.727   0.146  13.381  0.0263 -0.0744 -0.3702
 3642TIP3    H132341   6.821   0.151  13.364 -0.1479  0.8479 -1.1644
 3642TIP3    H232342   6.690   0.217  13.328 -1.0212  0.1195  0.5938
 3643TIP3   OH232343   0.351   2.609   5.306 -0.4529  0.1728  0.2091
 3643TIP3    H132344   0.306   2.615   5.390 -0.2301  0.0845  0.3322
 3643TIP3    H232345   0.287   2.566   5.249 -0.8108  0.7159  0.1842
 3644TIP3   OH232346   1.174   3.212  15.105  0.0037  0.3008 -0.1248
 3644TIP3    H132347   1.227   3.285  15.137  1.4120 -0.9570  0.5535
 3644TIP3    H232348   1.154   3.234  15.014 -0.0217  1.7448  0.2140
 3645TIP3   OH232349   2.436   1.929  13.444 -0.1847 -0.1026 -0.1347
 3645TIP3    H132350   2.405   1.844  13.477 -2.8271  0.8653  0.1111
 3645TIP3    H232351   2.510   1.951  13.501  0.1759 -1.9270  0.1844
 3646TIP3   OH232352   4.910   5.690   5.178 -0.1444  0.4680 -0.1034
 3646TIP3    H132353   5.000   5.715   5.202  0.5290 -1.6531 -0.1655
 3646TIP3    H232354   4.906   5.705   5.083 -0.6143  2.6132  0.2157
 3647TIP3   OH232355   4.235   3.443   2.796  0.5353 -0.1601 -0.2412
 3647TIP3    H132356   4.200   3.367   2.750  0.0623  0.9501 -1.8086
 3647TIP3    H232357   4.177   3.453   2.872  1.2560 -1.9562  0.5895
 3648TIP3   OH232358   1.387   5.310   2.651  0.5866 -0.0972 -0.2979
 3648TIP3    H132359   1.423   5.280   2.734  1.9645  0.0521 -0.8269
 3648TIP3    H232360   1.296   5.331   2.671  0.6112 -1.0533  0.9321
 3649TIP3   OH232361   6.580   4.789   5.027 -0.3917 -0.3439 -0.1655
 3649TIP3    H132362   6.544   4.780   4.938  1.8704 -0.2553 -1.1728
 3649TIP3    H232363   6.504   4.806   5.082 -2.1089 -2.2605 -1.7747
 3650TIP3   OH232364   2.431   1.777   5.517  0.2579  0.4570  0.3323
 3650TIP3    H132365   2.447   1.727   5.597 -1.2892 -2.2660 -0.9249
 3650TIP3    H232366   2.495   1.848   5.520  1.6667 -0.7827  2.9461
 3651TIP3   OH232367   4.657   2.007   1.939  0.1698  0.9094  0.8673
 3651TIP3    H132368   4.744   1.981   1.909 -0.6506 -0.4437 -0.4907
 3651TIP3    H232369   4.629   1.935   1.996  0.0366  1.4894  1.5564
 3652TIP3   OH232370   1.879   2.372   2.895 -0.4384  0.8940 -0.1571
 3652TIP3    H132371   1.958   2.354   2.844 -1.2894  0.9144 -1.5487
 3652TIP3    H232372   1.818   2.302   2.872 -0.5152  0.3063  1.6595
 3653TIP3   OH232373   2.201   3.367  15.625  0.5938  0.6580 -0.2670
 3653TIP3    H132374   2.135   3.312  15.668  1.3786  0.0295  0.1621
 3653TIP3    H232375   2.171   3.375  15.535  0.5516 -0.6237 -0.3798
 3654TIP3   OH232376   4.369   2.714  16.056 -0.3038  0.2189 -0.8002
 3654TIP3    H132377   4.387   2.629  16.016  0.2636  0.4748 -1.0997
 3654TIP3    H232378   4.439   2.771  16.024 -1.2363  1.0591 -1.3965
 3655TIP3   OH232379   6.192   6.781   3.469  0.2712  0.8652  0.2351
 3655TIP3    H132380   6.194   6.828   3.385 -2.1475 -0.8263 -0.8788
 3655TIP3    H232381   6.144   6.840   3.527 -0.0286  1.0919 -0.2291
 3656TIP3   OH232382   0.481   6.381   3.816  0.2319 -0.3969  0.6426
 3656TIP3    H132383   0.434   6.368   3.899 -0.3791  2.9198  0.9609
 3656TIP3    H232384   0.414   6.412   3.755  1.2972  0.7015 -0.0196
 3657TIP3   OH232385   5.422   3.059  14.194  0.3726  0.3443  0.6748
 3657TIP3    H132386   5.517   3.056  14.184  0.3124 -0.6478  0.2364
 3657TIP3    H232387   5.391   2.981  14.149 -0.6585  0.6718  0.7891
 3658TIP3   OH232388   6.280   1.114  15.299 -0.0743  0.2040 -0.1131
 3658TIP3    H132389   6.348   1.053  15.329 -1.5687 -0.5296  2.0347
 3658TIP3    H232390   6.329   1.189  15.264  1.8152 -0.9389 -0.0740
 3659TIP3   OH232391   6.233   0.721  16.458 -0.0434  0.5599 -0.6860
 3659TIP3    H132392   6.248   0.815  16.452  3.7126  0.0369 -2.6220
 3659TIP3    H232393   6.279   0.694  16.537 -0.2818  0.2197 -0.6604
 3660TIP3   OH232394   2.517   2.349  14.590 -0.2406 -0.8510  0.3630
 3660TIP3    H132395   2.461   2.307  14.525  2.4695  0.0568 -2.8175
 3660TIP3    H232396   2.465   2.423  14.622 -1.5105 -1.0400 -1.1277
 3661TIP3   OH232397   2.297   3.267   2.686 -0.5108  0.3289 -0.0930
 3661TIP3    H132398   2.374   3.323   2.693 -1.1241  1.2103 -0.2528
 3661TIP3    H232399   2.223   3.328   2.688 -1.2879 -0.5854  1.7460
 3662TIP3   OH232400   6.725   6.454   0.778 -0.2609  0.3176  0.2050
 3662TIP3    H132401   6.674   6.444   0.858 -0.9170  2.5189  0.1494
 3662TIP3    H232402   6.659   6.463   0.709  0.2866 -0.7977 -0.4821
 3663TIP3   OH232403   4.086   4.459   6.202 -0.2910 -0.4433 -0.2675
 3663TIP3    H132404   4.130   4.413   6.131 -0.0128 -0.4506 -0.0891
 3663TIP3    H232405   4.103   4.552   6.184  1.0640 -0.4948  0.6169
 3664TIP3   OH232406   2.232   5.331   0.552  0.1784  0.1583 -0.0580
 3664TIP3    H132407   2.313   5.344   0.601  0.9830  0.3518 -1.3842
 3664TIP3    H232408   2.177   5.278   0.610  1.7458 -1.0883  0.3713
 3665TIP3   OH232409   4.067   0.957  13.184  0.2658  0.1432  0.1202
 3665TIP3    H132410   4.130   0.939  13.254  2.0397  1.7976 -0.9520
 3665TIP3    H232411   4.100   0.907  13.109  1.9188  2.9969 -1.1974
 3666TIP3   OH232412   4.348   0.959  14.729 -0.1534  0.3696 -0.4361
 3666TIP3    H132413   4.424   0.957  14.671  0.5319 -0.0316  0.4519
 3666TIP3    H232414   4.372   0.903  14.803 -1.8748 -0.9392 -0.8047
 3667TIP3   OH232415   5.245   6.364  13.871  0.0920 -0.2191  0.7861
 3667TIP3    H132416   5.333   6.397  13.850  0.2430 -2.5208 -3.3791
 3667TIP3    H232417   5.187   6.410  13.810 -0.9751 -1.2834  0.9660
 3668TIP3   OH232418   3.063   6.131  14.266  0.4053 -0.0948  0.0963
 3668TIP3    H132419   3.012   6.205  14.298  0.7724  0.7429 -1.1806
 3668TIP3    H232420   3.017   6.103  14.187 -0.7014 -2.3689  1.4321
 3669TIP3   OH232421   6.057   4.927   1.113 -0.1951 -0.0936 -0.2351
 3669TIP3    H132422   6.006   4.884   1.044  2.4546 -3.4090 -0.3975
 3669TIP3    H232423   6.001   4.924   1.190 -1.3561 -0.8115 -1.0714
 3670TIP3   OH232424   0.123   3.204   0.054  0.0378 -0.0800 -0.2621
 3670TIP3    H132425   0.103   3.111   0.047  1.3626 -0.3845 -0.4194
 3670TIP3    H232426   0.218   3.209   0.039  0.2638  1.1002  1.2776
 3671TIP3   OH232427   4.398   6.752   2.688  0.0432 -0.2267 -0.1006
 3671TIP3    H132428   4.352   6.693   2.629 -1.5790  0.7182  0.1596
 3671TIP3    H232429   4.491   6.733   2.673 -0.4052 -2.5085 -0.3154
 3672TIP3   OH232430   2.685   1.991  13.573  0.3924  0.6757 -0.0620
 3672TIP3    H132431   2.634   2.028  13.644 -1.0373  0.6912 -1.0558
 3672TIP3    H232432   2.769   2.036  13.578 -0.3400  2.0475  0.4536
 3673TIP3   OH232433   0.737   5.562  12.348 -0.1069 -0.0479  0.0453
 3673TIP3    H132434   0.683   5.520  12.415  0.3884 -0.5195  0.1555
 3673TIP3    H232435   0.674   5.592  12.282 -0.8235  2.0870  1.5694
 3674TIP3   OH232436   4.583   3.177   0.176  0.6898  0.5302 -0.2522
 3674TIP3    H132437   4.538   3.097   0.204  0.7194  0.8264  0.6498
 3674TIP3    H232438   4.666   3.176   0.223  0.3748  1.4706  0.3418
 3675TIP3   OH232439   6.188   1.842   3.025 -0.1487  0.0532 -0.0966
 3675TIP3    H132440   6.104   1.874   3.059  0.6758  2.3829 -0.0310
 3675TIP3    H232441   6.168   1.759   2.984 -2.3301  0.1486  0.6696
 3676TIP3   OH232442   5.139   0.326   0.920  0.0664  0.2862 -0.3984
 3676TIP3    H132443   5.053   0.296   0.950  0.2392  0.2459  0.0604
 3676TIP3    H232444   5.134   0.421   0.924  1.0712  0.3224  2.6881
 3677TIP3   OH232445   4.845   2.470  13.290 -0.1189  0.1229 -0.1072
 3677TIP3    H132446   4.775   2.516  13.338 -2.0636 -2.3930 -0.2851
 3677TIP3    H232447   4.837   2.502  13.200 -0.5379  0.4377  0.0356
 3678TIP3   OH232448   5.869   5.038  13.420 -0.1275  0.2625  0.1304
 3678TIP3    H132449   5.933   5.096  13.378 -0.5245  0.0341 -0.8067
 3678TIP3    H232450   5.909   4.952  13.417 -1.0312 -0.1366 -1.7185
 3679TIP3   OH232451   0.006   5.557  14.901 -0.1488 -0.1033 -0.2300
 3679TIP3    H132452  -0.061   5.570  14.833 -1.4785  1.5983  1.3187
 3679TIP3    H232453  -0.019   5.475  14.943 -0.7873  0.0883 -0.2144
 3680TIP3   OH232454   2.714   0.543   0.153  0.0008 -0.0881  0.5983
 3680TIP3    H132455   2.740   0.634   0.161 -0.8361  0.1305  0.8770
 3680TIP3    H232456   2.658   0.541   0.075 -1.5957  0.0202  1.7099
 3681TIP3   OH232457   0.438   6.354  13.219  0.0629 -0.7190  1.0808
 3681TIP3    H132458   0.531   6.371  13.201 -0.0172 -1.0045  0.3796
 3681TIP3    H232459   0.397   6.440  13.210  0.0140 -0.8516 -0.2445
 3682TIP3   OH232460   3.620   0.692   0.909  0.1497 -0.7241 -0.0120
 3682TIP3    H132461   3.659   0.654   0.830  0.0002 -1.1713  0.1298
 3682TIP3    H232462   3.678   0.665   0.980 -0.3954 -1.3649  0.1948
 3683TIP3   OH232463   2.239   3.361  16.679  0.3133 -0.5694  0.1471
 3683TIP3    H132464   2.273   3.272  16.686 -0.3148 -0.7670  0.9296
 3683TIP3    H232465   2.302   3.415  16.726  2.3367 -0.0836 -2.8800
 3684TIP3   OH232466   4.257   4.038   0.105  0.5604 -0.3832  0.3732
 3684TIP3    H132467   4.344   4.078   0.098 -0.0344  1.0601  0.7879
 3684TIP3    H232468   4.210   4.070   0.027 -0.1062  0.1984  1.0027
 3685TIP3   OH232469   0.440   5.496  14.060 -0.5349  0.6839 -0.4453
 3685TIP3    H132470   0.480   5.521  14.144 -0.9172  1.6559 -0.5369
 3685TIP3    H232471   0.360   5.449  14.084 -0.1461  0.1000 -0.2692
 3686TIP3   OH232472   2.753   4.673  13.870  0.4099  0.7897  0.3811
 3686TIP3    H132473   2.771   4.764  13.845  0.4386  0.8353  0.5627
 3686TIP3    H232474   2.826   4.623  13.835  0.0032  0.7209 -0.3919
 3687TIP3   OH232475   3.759   3.234   5.356  0.8587 -0.4423 -0.0882
 3687TIP3    H132476   3.684   3.260   5.303  0.7520 -0.8780 -0.1588
 3687TIP3    H232477   3.790   3.152   5.316  0.7020 -0.8446  0.5861
 3688TIP3   OH232478   1.552   0.030   0.913  0.4471 -0.2702  0.5277
 3688TIP3    H132479   1.468   0.057   0.949 -0.0363 -1.9381  0.7219
 3688TIP3    H232480   1.611   0.102   0.934 -1.0369  1.2255 -0.1380
 3689TIP3   OH232481   4.561   3.607  12.649  0.5479  0.0253 -0.2328
 3689TIP3    H132482   4.613   3.627  12.726  0.0606 -0.7209  0.3020
 3689TIP3    H232483   4.470   3.621  12.676  0.4511  2.0725 -1.3817
 3690TIP3   OH232484   4.948   5.933   2.265  0.3083 -0.0325  0.2367
 3690TIP3    H132485   5.043   5.919   2.272  0.4836 -0.0331 -1.6542
 3690TIP3    H232486   4.935   6.023   2.295  1.0163  0.2249 -0.1966
 3691TIP3   OH232487   0.689   0.316  14.892 -0.5974 -0.0076  0.5752
 3691TIP3    H132488   0.709   0.409  14.879 -0.2073 -0.1487  0.1071
 3691TIP3    H232489   0.601   0.315  14.930 -0.2903  0.5771  1.3046
 3692TIP3   OH232490   6.144   5.139  13.406 -0.0217  0.0156  0.4162
 3692TIP3    H132491   6.163   5.137  13.500  2.1014  1.6122  0.0795
 3692TIP3    H232492   6.228   5.124  13.364 -0.8442 -0.0991 -1.2577
 3693TIP3   OH232493   1.554   1.036  15.626  0.1700 -0.1871 -0.1317
 3693TIP3    H132494   1.531   1.055  15.717 -1.6064 -2.1442 -0.0881
 3693TIP3    H232495   1.560   0.940  15.622  1.7072 -0.0786 -1.7737
 3694TIP3   OH232496   1.661   5.883  11.263 -0.2897 -0.1395 -0.2620
 3694TIP3    H132497   1.630   5.826  11.333  1.5754 -1.4656 -0.4410
 3694TIP3    H232498   1.608   5.859  11.187 -0.7985 -0.2638  0.1253
 3695TIP3   OH232499   6.659   5.610   3.926  0.3233  0.1011  0.0312
 3695TIP3    H132500   6.704   5.693   3.938  0.7471  0.0266 -0.9042
 3695TIP3    H232501   6.566   5.633   3.921  0.3264  0.3640  1.0285
 3696TIP3   OH232502   3.704   1.038  12.945 -0.0416  0.8248  0.1895
 3696TIP3    H132503   3.622   1.027  12.897  0.7142  1.7075 -1.4216
 3696TIP3    H232504   3.705   1.130  12.969 -0.1661  0.4994  1.4964
 3697TIP3   OH232505   0.775   2.027   4.548 -0.1171 -0.1093  0.2356
 3697TIP3    H132506   0.700   1.980   4.513  0.0812  1.8202 -3.2213
 3697TIP3    H232507   0.738   2.106   4.587 -0.0697 -0.8524  1.8991
 3698TIP3   OH232508   1.849   4.283  14.140 -0.1048 -0.0846  0.0348
 3698TIP3    H132509   1.790   4.310  14.210  0.0408  0.8630 -0.1972
 3698TIP3    H232510   1.905   4.216  14.180 -0.6946 -0.2924  0.5239
 3699TIP3   OH232511   3.466   1.313  10.560 -0.1071  0.1006  0.2441
 3699TIP3    H132512   3.470   1.218  10.571 -1.6417 -0.2179 -1.4712
 3699TIP3    H232513   3.401   1.341  10.625 -0.9888 -0.2954 -0.4403
 3700TIP3   OH232514   4.108   0.934  16.381 -0.3511  0.0456 -0.4262
 3700TIP3    H132515   4.015   0.924  16.362 -0.4616  1.2231 -0.5555
 3700TIP3    H232516   4.118   0.902  16.470 -0.6780 -1.0864 -0.7796
 3701TIP3   OH232517   3.532   6.066  15.036 -0.3433  0.2246 -0.0767
 3701TIP3    H132518   3.526   6.132  15.105  0.0519  0.8963 -0.6834
 3701TIP3    H232519   3.616   6.023  15.050 -1.9006 -2.4780  2.3574
 3702TIP3   OH232520   2.389   6.223   3.882  0.0117  0.6877 -0.3235
 3702TIP3    H132521   2.428   6.267   3.958 -0.9673  0.5471  0.2758
 3702TIP3    H232522   2.295   6.233   3.894 -0.3569 -2.8468  0.6629
 3703TIP3   OH232523   1.581   1.365  12.121  0.1932  0.0290  0.2934
 3703TIP3    H132524   1.545   1.452  12.137 -1.0954 -0.7041  1.6367
 3703TIP3    H232525   1.559   1.347  12.030 -0.8586  0.5274  0.4338
 3704TIP3   OH232526   5.410   1.924   5.121 -0.3956 -0.8036 -0.3194
 3704TIP3    H132527   5.468   1.951   5.193 -0.9638 -1.2161  0.2971
 3704TIP3    H232528   5.470   1.900   5.051  0.2313  2.9573 -1.3259
 3705TIP3   OH232529   4.874   0.331   1.948 -0.0627 -0.1025  0.1973
 3705TIP3    H132530   4.791   0.342   1.993 -0.3286 -0.0303 -0.3034
 3705TIP3    H232531   4.898   0.239   1.964  0.6319  0.3283  1.7864
 3706TIP3   OH232532   5.377   5.403   4.651 -0.1182  0.1473 -0.2875
 3706TIP3    H132533   5.471   5.391   4.645 -0.2080 -0.2055 -1.1298
 3706TIP3    H232534   5.341   5.315   4.650 -0.4172  0.2239  1.1865
 3707TIP3   OH232535   0.549   3.592   5.001  0.0538  0.3069  0.5025
 3707TIP3    H132536   0.551   3.546   4.917  0.6874 -0.3693  0.8744
 3707TIP3    H232537   0.458   3.621   5.011 -0.8678 -2.5042  1.1156
 3708TIP3   OH232538   4.894   6.783   4.122  0.6905 -0.4064  0.1082
 3708TIP3    H132539   4.943   6.853   4.078  0.4024 -0.4357 -0.2579
 3708TIP3    H232540   4.911   6.705   4.068 -0.6138 -0.2028 -0.6340
 3709TIP3   OH232541   2.145   1.148  11.589 -0.0238 -0.4650 -0.0356
 3709TIP3    H132542   2.183   1.157  11.501 -0.3047 -1.8532 -0.3225
 3709TIP3    H232543   2.215   1.175  11.648  1.5427 -3.0583 -0.5386
 3710TIP3   OH232544   2.941   3.490  11.305  0.1435  0.3364 -0.4490
 3710TIP3    H132545   2.881   3.418  11.326 -0.1157  1.0195  1.4395
 3710TIP3    H232546   2.936   3.499  11.210 -1.3506 -0.8301 -0.5229
 3711TIP3   OH232547   4.254   6.655   1.936 -0.3214 -0.0312  1.0415
 3711TIP3    H132548   4.204   6.730   1.904  0.1238  0.9470  2.5851
 3711TIP3    H232549   4.318   6.639   1.867 -1.9431 -0.5585 -0.4200
 3712TIP3   OH232550   5.309   3.441   2.498  0.0599 -0.1694  0.0645
 3712TIP3    H132551   5.266   3.399   2.572  1.3202  1.2240  1.6574
 3712TIP3    H232552   5.402   3.416   2.506  0.2960  0.3797 -0.7731
 3713TIP3   OH232553   3.184   3.236  14.118  0.2082  0.0085 -0.0990
 3713TIP3    H132554   3.184   3.300  14.189 -1.0803 -0.4344  0.3208
 3713TIP3    H232555   3.104   3.254  14.069  0.4860 -0.4612 -0.7380
 3714TIP3   OH232556   4.409   1.717   0.407  0.3150  0.2605 -0.3537
 3714TIP3    H132557   4.440   1.655   0.341 -0.0546  0.4509 -0.7112
 3714TIP3    H232558   4.335   1.673   0.449 -0.1635  0.5823 -0.8378
 3715TIP3   OH232559   4.870   3.466  11.351  0.1183 -0.3117  0.2360
 3715TIP3    H132560   4.902   3.555  11.359 -0.7022 -0.0216  0.4185
 3715TIP3    H232561   4.788   3.465  11.401  0.3947 -1.3095  0.6972
 3716TIP3   OH232562   1.040   3.554   2.623 -0.1485  0.5093  0.2539
 3716TIP3    H132563   0.948   3.535   2.642 -0.3892  0.7683 -0.6044
 3716TIP3    H232564   1.068   3.611   2.695 -1.3265  2.3013 -0.6352
 3717TIP3   OH232565   6.282   4.206  14.694  0.2513  0.2158 -0.0068
 3717TIP3    H132566   6.223   4.143  14.736 -0.0599 -0.4413 -1.3737
 3717TIP3    H232567   6.348   4.151  14.652 -0.4036  0.7321 -1.7973
 3718TIP3   OH232568   6.089   3.332   5.844  0.6104 -0.1402  0.0030
 3718TIP3    H132569   6.179   3.322   5.813  0.5125 -0.1421 -0.2847
 3718TIP3    H232570   6.059   3.414   5.804  1.1517  0.9434  1.7189
 3719TIP3   OH232571   0.541   3.288  15.957 -0.0056 -0.1911 -0.7284
 3719TIP3    H132572   0.632   3.285  15.986  1.2638  0.3012 -4.1737
 3719TIP3    H232573   0.538   3.362  15.896 -2.6426 -0.4454 -1.0223
 3720TIP3   OH232574   1.177   1.755  11.829 -0.6882  0.5729  0.3440
 3720TIP3    H132575   1.248   1.725  11.772 -1.4821  1.5187 -1.2176
 3720TIP3    H232576   1.205   1.731  11.917 -0.7130 -3.6670 -0.5793
 3721TIP3   OH232577   6.706   5.388  14.032 -0.4344 -0.4465 -0.5405
 3721TIP3    H132578   6.695   5.400  14.127 -1.4227  0.2971 -0.7393
 3721TIP3    H232579   6.785   5.437  14.011  0.6162 -1.7788  0.1108
 3722TIP3   OH232580   5.294   3.572   1.547  0.7161 -0.4016  0.4832
 3722TIP3    H132581   5.296   3.477   1.560  0.3246 -0.3552  0.9283
 3722TIP3    H232582   5.268   3.583   1.456  0.5800 -0.7249  0.4792
 3723TIP3   OH232583   3.147   4.578  15.838 -0.4642  0.4806  0.0819
 3723TIP3    H132584   3.120   4.513  15.902 -0.5179  0.3654 -0.0554
 3723TIP3    H232585   3.183   4.650  15.889  1.6822 -0.5823  0.1612
 3724TIP3   OH232586   3.616   5.766  15.811 -0.1603  0.1470 -0.2766
 3724TIP3    H132587   3.583   5.676  15.815 -0.4945  0.0738 -3.0297
 3724TIP3    H232588   3.688   5.768  15.874 -1.9654 -1.1773  1.9917
 3725TIP3   OH232589   3.483   3.082   1.534 -0.8260 -0.4623  0.0893
 3725TIP3    H132590   3.434   3.138   1.594  0.4258  2.6911 -1.6213
 3725TIP3    H232591   3.436   3.088   1.451  0.1895 -0.6726 -0.5159
 3726TIP3   OH232592   6.494   2.153   0.288 -0.5213  0.1755 -0.0442
 3726TIP3    H132593   6.485   2.224   0.225 -1.0293  0.0442 -0.1224
 3726TIP3    H232594   6.552   2.188   0.356  0.6009  0.0736 -0.9268
 3727TIP3   OH232595   6.281   6.227  11.406  0.1945 -1.0081 -0.6709
 3727TIP3    H132596   6.188   6.236  11.383  0.1075  0.6967  0.1961
 3727TIP3    H232597   6.280   6.192  11.495  0.3869 -0.8106 -0.5925
 3728TIP3   OH232598   2.091   0.705  11.157  0.2065 -1.1733 -0.3926
 3728TIP3    H132599   2.164   0.643  11.158 -0.9633 -2.5902 -1.0789
 3728TIP3    H232600   2.081   0.730  11.066  1.6662  1.3304  0.0268
 3729TIP3   OH232601   5.489   1.532  13.374 -0.5268  0.3855 -0.0663
 3729TIP3    H132602   5.446   1.500  13.453 -0.5842 -0.6512 -0.4978
 3729TIP3    H232603   5.582   1.539  13.398 -0.4153 -0.7031 -0.1212
 3730TIP3   OH232604   3.711   3.671   2.134  0.3231  0.0508 -0.1480
 3730TIP3    H132605   3.713   3.662   2.229  0.3494 -0.0629 -0.1596
 3730TIP3    H232606   3.746   3.759   2.118  1.0043 -0.1992 -0.0922
 3731TIP3   OH232607   0.977   2.060   0.228  0.2757  0.9155  0.3594
 3731TIP3    H132608   1.009   2.111   0.153 -1.0652 -0.0084 -0.8925
 3731TIP3    H232609   0.937   1.982   0.189 -0.0106  0.1597  2.0801
 3732TIP3   OH232610   2.413   6.440   5.728 -0.1595  0.4970  0.5645
 3732TIP3    H132611   2.448   6.352   5.716 -1.2723  0.1937 -0.6875
 3732TIP3    H232612   2.488   6.493   5.755  0.7907 -0.5804  0.0780
 3733TIP3   OH232613   0.466   5.920   5.956 -0.2578 -0.4806 -0.3074
 3733TIP3    H132614   0.380   5.962   5.960 -0.8693 -1.7616  0.8064
 3733TIP3    H232615   0.523   5.986   5.916 -1.4288  0.9334  0.2585
 3734TIP3   OH232616   0.049   3.676   1.925  0.1017  0.3125 -0.4363
 3734TIP3    H132617   0.077   3.753   1.876 -0.4895  1.3188  0.7540
 3734TIP3    H232618  -0.041   3.659   1.894  0.4067 -0.2237 -1.0576
 3735TIP3   OH232619   6.138   4.707  14.884  0.1721  0.2538 -0.6937
 3735TIP3    H132620   6.077   4.633  14.896  0.9290 -0.4492 -1.0972
 3735TIP3    H232621   6.224   4.666  14.878  0.6681  1.2227 -0.4006
 3736TIP3   OH232622   1.076   5.522   1.053  0.4529 -0.0160  0.1360
 3736TIP3    H132623   1.075   5.578   1.130  1.7948  1.1919 -0.6826
 3736TIP3    H232624   1.136   5.451   1.077  0.5600  0.1379  0.3287
 3737TIP3   OH232625   1.146   0.789  12.193  0.6249 -0.3345  0.4801
 3737TIP3    H132626   1.101   0.752  12.117  1.7704  0.2365 -0.5121
 3737TIP3    H232627   1.159   0.714  12.251  0.1132 -0.8651 -0.0638
 3738TIP3   OH232628   4.572   6.196   3.137  0.0897 -0.3520 -0.0846
 3738TIP3    H132629   4.484   6.168   3.111 -1.0401  0.4526  2.5291
 3738TIP3    H232630   4.599   6.132   3.203  0.1075  1.0757  1.3672
 3739TIP3   OH232631   6.601   0.294   5.761 -0.3973 -0.2393 -0.0614
 3739TIP3    H132632   6.595   0.382   5.726  1.8205 -0.0843 -0.1831
 3739TIP3    H232633   6.532   0.290   5.827 -0.4301  1.6445  0.0723
 3740TIP3   OH232634   1.093   0.668  14.347 -0.1573 -0.3732  0.2108
 3740TIP3    H132635   1.085   0.574  14.331  0.8669 -0.2918 -0.9729
 3740TIP3    H232636   1.156   0.698  14.281 -2.4741  1.6098 -1.2674
 3741TIP3   OH232637   1.452   4.135   6.342  0.5660  0.2337  0.0499
 3741TIP3    H132638   1.398   4.124   6.264 -0.4937  0.9634  0.6654
 3741TIP3    H232639   1.443   4.053   6.390  2.1959 -0.7192 -1.1334
 3742TIP3   OH232640   1.023   4.634   2.200  0.0722 -0.3934 -0.0304
 3742TIP3    H132641   0.985   4.551   2.228 -0.1138 -0.0635  0.6971
 3742TIP3    H232642   1.105   4.610   2.158 -0.1447 -0.9718 -0.1247
 3743TIP3   OH232643   4.022   0.486  13.895  0.5124  0.2588 -0.2586
 3743TIP3    H132644   4.073   0.457  13.820  0.0237  1.1374 -0.9509
 3743TIP3    H232645   3.944   0.431  13.895 -0.1077  1.0877 -1.1906
 3744TIP3   OH232646   0.535   5.651   5.586 -0.2932 -0.1102  0.1813
 3744TIP3    H132647   0.577   5.734   5.609  0.6974 -1.0532  2.0280
 3744TIP3    H232648   0.447   5.659   5.620  0.3615 -0.4705  2.0588
 3745TIP3   OH232649   2.679   1.329   3.517 -0.5410 -0.4748  0.3944
 3745TIP3    H132650   2.656   1.245   3.557  0.6844 -0.7554  0.5545
 3745TIP3    H232651   2.768   1.316   3.484 -0.2502  0.8339  0.6152
 3746TIP3   OH232652   6.349   5.652   1.752  0.4918 -0.2128  0.5650
 3746TIP3    H132653   6.306   5.732   1.724  0.3118 -0.5379 -0.1192
 3746TIP3    H232654   6.435   5.680   1.783  0.5887  0.2048 -0.0627
 3747TIP3   OH232655   6.074   3.505   0.938 -0.5377 -0.0343  0.1053
 3747TIP3    H132656   6.027   3.577   0.896  0.0549 -0.7606 -1.9699
 3747TIP3    H232657   6.094   3.445   0.866  2.9430 -0.0919  0.9185
 3748TIP3   OH232658   3.720   6.120  12.962 -0.4287 -0.0949  0.4715
 3748TIP3    H132659   3.747   6.210  12.977  1.0780 -0.6249  1.1617
 3748TIP3    H232660   3.644   6.126  12.904  0.2510  1.5686 -0.2847
 3749TIP3   OH232661   2.302   3.341  11.180  0.3788 -0.4916  0.1075
 3749TIP3    H132662   2.261   3.340  11.093 -1.4363  1.2813  0.8559
 3749TIP3    H232663   2.258   3.271  11.228  1.1234 -1.2300 -0.2626
 3750TIP3   OH232664   6.329   2.680   5.052  0.4324  0.2700 -0.7184
 3750TIP3    H132665   6.397   2.645   4.995 -0.7432  0.2206 -2.1490
 3750TIP3    H232666   6.250   2.682   4.998 -0.7057  0.3904  0.8594
 3751TIP3   OH232667   6.786   2.197   1.483 -0.0239  0.1633  0.4206
 3751TIP3    H132668   6.831   2.118   1.512 -0.1662  0.0132  0.2340
 3751TIP3    H232669   6.695   2.172   1.476  0.0695  0.0706 -0.5850
 3752TIP3   OH232670   0.642   4.898  15.495  0.7645 -0.0069 -0.2211
 3752TIP3    H132671   0.564   4.873  15.545 -0.2550  1.3482 -1.0652
 3752TIP3    H232672   0.689   4.816  15.482 -0.3535 -0.8115  0.5873
 3753TIP3   OH232673   6.568   6.638   1.487 -0.3111  0.1472  0.1158
 3753TIP3    H132674   6.618   6.720   1.492 -0.8290  0.6234 -1.6215
 3753TIP3    H232675   6.513   6.649   1.410 -0.4431 -1.8354 -0.1222
 3754TIP3   OH232676   1.344   6.252  16.030 -0.4001 -0.7441 -0.2989
 3754TIP3    H132677   1.276   6.187  16.012 -0.4418 -0.9715  0.6318
 3754TIP3    H232678   1.297   6.335  16.030 -0.0610 -0.4197 -3.3479
 3755TIP3   OH232679   2.799   1.044  11.654  0.0131 -0.6757  0.5457
 3755TIP3    H132680   2.883   1.028  11.696 -1.1117 -2.5369  2.2636
 3755TIP3    H232681   2.757   1.110  11.709 -0.5776 -1.5068  1.1222
 3756TIP3   OH232682   1.663   1.439  13.522 -0.3170 -0.4220 -0.5062
 3756TIP3    H132683   1.568   1.445  13.507 -0.3638 -0.7372 -0.3361
 3756TIP3    H232684   1.685   1.349  13.498 -0.7616 -1.7488  3.3144
 3757TIP3   OH232685   1.694   5.440   3.014 -0.5696  0.2003  0.4370
 3757TIP3    H132686   1.751   5.478   2.948  1.7337 -0.5769  1.8570
 3757TIP3    H232687   1.694   5.346   2.995  0.4304 -0.0846  1.7134
 3758TIP3   OH232688   1.381   2.558   5.225 -0.2087 -0.2454  0.3428
 3758TIP3    H132689   1.300   2.507   5.231 -0.1858 -0.2705  0.4550
 3758TIP3    H232690   1.439   2.518   5.290 -0.1581 -0.1356  0.3654
 3759TIP3   OH232691   4.168   3.259   5.838 -0.1737  0.1890 -0.8444
 3759TIP3    H132692   4.108   3.190   5.865  0.2500 -0.1726 -0.8143
 3759TIP3    H232693   4.247   3.213   5.810 -0.2623  0.6111 -1.8269
 3760TIP3   OH232694   2.446   4.820   2.256  0.3994  0.6633 -0.8471
 3760TIP3    H132695   2.420   4.814   2.348  1.1443  0.1446 -0.6563
 3760TIP3    H232696   2.390   4.757   2.211  0.6236  0.2914 -0.6077
 3761TIP3   OH232697   1.113   4.574  12.349 -0.5229 -0.3555  0.1944
 3761TIP3    H132698   1.136   4.610  12.434  1.5738  1.7977 -1.1407
 3761TIP3    H232699   1.066   4.645  12.304 -0.7063 -1.0748 -0.7874
 3762TIP3   OH232700   2.929   3.616  11.630  0.0744 -0.4838  0.1715
 3762TIP3    H132701   2.929   3.667  11.711  0.7134 -0.4574  0.1591
 3762TIP3    H232702   2.898   3.529  11.656  0.1808 -0.4462  0.4270
 3763TIP3   OH232703   5.759   2.549   3.708 -0.2878 -0.0353 -0.4554
 3763TIP3    H132704   5.673   2.590   3.713 -0.2514  0.1496 -1.2918
 3763TIP3    H232705   5.820   2.618   3.732 -0.3064  0.1013 -0.7947
 3764TIP3   OH232706   3.966   4.658  12.864 -0.1221 -0.3469 -0.4619
 3764TIP3    H132707   4.037   4.721  12.878 -1.5580  1.1458  0.5044
 3764TIP3    H232708   4.001   4.574  12.895  1.3234  0.2761 -0.3570
 3765TIP3   OH232709   4.184   5.470   0.347  0.4623  0.2364  0.3940
 3765TIP3    H132710   4.259   5.510   0.304  0.1229  0.9487  0.4466
 3765TIP3    H232711   4.199   5.486   0.441 -0.5183  1.8090  0.3264
 3766TIP3   OH232712   2.775   1.054  13.459 -0.0556 -0.2332  0.0096
 3766TIP3    H132713   2.718   1.047  13.535  1.3906 -0.8637  1.0862
 3766TIP3    H232714   2.861   1.027  13.491  0.8527  0.6665 -1.5618
 3767TIP3   OH232715   1.413   2.528   3.094 -0.1663  0.7962 -0.1343
 3767TIP3    H132716   1.471   2.452   3.082  0.2631  0.8874  1.2131
 3767TIP3    H232717   1.333   2.492   3.130 -0.8362  0.7222 -1.6318
 3768TIP3   OH232718   4.141   0.611  15.517  0.5054 -0.1102  0.5244
 3768TIP3    H132719   4.214   0.623  15.578  0.4754 -2.4681  1.1270
 3768TIP3    H232720   4.068   0.584  15.573 -0.5673  1.1765 -0.1915
 3769TIP3   OH232721   4.555   5.475  13.044  0.3231 -0.5114  0.1935
 3769TIP3    H132722   4.513   5.531  12.978  0.2934 -0.7747 -0.0148
 3769TIP3    H232723   4.556   5.528  13.123  1.1751  0.1478 -0.2494
 3770TIP3   OH232724   6.187   6.769   4.984  0.2757 -0.2606 -0.1747
 3770TIP3    H132725   6.093   6.780   4.998  0.4793  0.2259  0.9845
 3770TIP3    H232726   6.208   6.834   4.916 -0.2213 -0.3837 -0.4544
 3771TIP3   OH232727   1.947   1.308  17.127  0.9853 -0.1632  0.0928
 3771TIP3    H132728   1.882   1.344  17.065  0.9291  0.3366  0.4357
 3771TIP3    H232729   1.976   1.384  17.177 -0.4943 -0.8351  2.1065
 3772TIP3   OH232730   5.691   5.289  15.811  0.3551 -0.1225 -0.5519
 3772TIP3    H132731   5.610   5.245  15.839  0.0843 -0.4993 -1.8491
 3772TIP3    H232732   5.750   5.281  15.886  0.6981 -3.6723 -1.0307
 3773TIP3   OH232733   2.802   4.809   1.597 -0.0700  0.1920 -0.6728
 3773TIP3    H132734   2.844   4.725   1.613 -0.7868  0.2546  1.9922
 3773TIP3    H232735   2.847   4.870   1.656  0.6858  1.8344 -2.7967
 3774TIP3   OH232736   6.755   6.755   0.370 -0.3423  0.0812  0.2114
 3774TIP3    H132737   6.802   6.696   0.310  0.1808 -1.1168  1.7355
 3774TIP3    H232738   6.811   6.833   0.375 -0.6407  0.4315 -1.1973
 3775TIP3   OH232739   0.912   3.413   0.512  0.2122  0.2704  0.2100
 3775TIP3    H132740   0.832   3.362   0.526  0.8988 -0.7692  0.3439
 3775TIP3    H232741   0.978   3.372   0.567  1.2260  0.2312 -0.9955
 3776TIP3   OH232742   0.645   1.185   0.974 -0.3890  0.0469  0.0695
 3776TIP3    H132743   0.719   1.132   0.947  0.9552  1.9070 -0.0722
 3776TIP3    H232744   0.622   1.237   0.896 -1.0427  0.3744  0.4662
 3777TIP3   OH232745   2.248   4.127  14.780  0.8337  0.1411 -0.2400
 3777TIP3    H132746   2.184   4.061  14.805  0.1425  0.7771 -0.2897
 3777TIP3    H232747   2.215   4.208  14.819  0.8989  0.7300 -1.3833
 3778TIP3   OH232748   3.744   5.353  16.023 -0.1353 -0.2744  0.7696
 3778TIP3    H132749   3.650   5.333  16.031  0.0555 -0.9594  1.4025
 3778TIP3    H232750   3.769   5.383  16.110 -0.1207  1.5288  0.1726
 3779TIP3   OH232751   0.181   4.328   3.961  0.1017  0.3955  0.5002
 3779TIP3    H132752   0.149   4.312   3.872 -0.1086  0.0523  0.6348
 3779TIP3    H232753   0.190   4.423   3.967  1.1610  0.3666 -0.2500
 3780TIP3   OH232754   6.381   2.805  13.627  0.1086 -0.0420  0.1063
 3780TIP3    H132755   6.358   2.887  13.582 -1.2527 -1.4640 -1.9857
 3780TIP3    H232756   6.476   2.804  13.627  0.1629  1.5249  0.1840
 3781TIP3   OH232757   1.834   6.675   6.333 -0.3303  0.3827 -0.3863
 3781TIP3    H132758   1.905   6.664   6.270 -0.4793  0.1475 -0.5179
 3781TIP3    H232759   1.859   6.620   6.408  0.0090  0.9292 -0.0991
 3782TIP3   OH232760   1.558   3.677  15.976 -0.2569  0.2587  0.4293
 3782TIP3    H132761   1.595   3.728  15.904 -0.0791  1.0796  1.0942
 3782TIP3    H232762   1.630   3.666  16.038 -0.6967  0.5232  1.0035
 3783TIP3   OH232763   3.716   0.544  16.123  0.0662 -0.1417  0.0163
 3783TIP3    H132764   3.629   0.543  16.162 -0.0277  0.2818 -0.1732
 3783TIP3    H232765   3.774   0.508  16.190 -0.0200  0.9842  0.7228
 3784TIP3   OH232766   2.182   0.896   3.090  0.1313 -0.7450 -0.4626
 3784TIP3    H132767   2.278   0.894   3.084  0.2023 -2.8037  0.5224
 3784TIP3    H232768   2.156   0.970   3.034  2.2357 -0.6484 -1.4133
 3785TIP3   OH232769   1.964   0.111  16.310  0.0569 -0.4297 -0.2469
 3785TIP3    H132770   1.928   0.189  16.267  1.1447  0.3235  0.1600
 3785TIP3    H232771   1.888   0.065  16.344 -0.6019  0.5367 -0.3673
 3786TIP3   OH232772   6.233   6.465   3.281  0.3333  0.1502 -0.1734
 3786TIP3    H132773   6.280   6.521   3.343  0.3395  0.3402 -0.3475
 3786TIP3    H232774   6.255   6.501   3.195  0.2186 -0.0295 -0.2782
 3787TIP3   OH232775   3.561   2.034  14.958  0.1278  0.3438 -0.6421
 3787TIP3    H132776   3.558   1.952  15.007  1.6081  0.4781 -0.2775
 3787TIP3    H232777   3.509   2.095  15.011  0.3421  0.0545 -0.0847
 3788TIP3   OH232778   5.036   4.824   3.562  0.1135  0.4619  0.0913
 3788TIP3    H132779   5.084   4.830   3.479 -0.9005  0.8594 -0.4759
 3788TIP3    H232780   5.049   4.733   3.590  1.7827  0.7261  0.3375
 3789TIP3   OH232781   1.438   1.342  11.359 -0.4060  0.2515  0.4014
 3789TIP3    H132782   1.380   1.371  11.289 -0.1235  0.8997  0.4278
 3789TIP3    H232783   1.513   1.304  11.314  0.0215  1.1546  0.3379
 3790TIP3   OH232784   5.991   4.004  14.116  0.0066 -0.2338 -0.2885
 3790TIP3    H132785   5.965   4.090  14.084 -0.1507  0.0844  0.6592
 3790TIP3    H232786   6.016   3.955  14.037  1.5289  1.1444 -0.7185
 3791TIP3   OH232787   5.099   6.148   2.990  0.0179  0.5443  0.0028
 3791TIP3    H132788   5.019   6.167   3.039  0.2317 -0.3903  0.7463
 3791TIP3    H232789   5.163   6.124   3.057  0.8550  1.0350 -0.6014
 3792TIP3   OH232790   3.764   2.027   4.779 -0.4470  0.6700  0.1646
 3792TIP3    H132791   3.681   2.036   4.732 -0.5192 -1.5557 -0.2280
 3792TIP3    H232792   3.830   2.046   4.713 -0.5670 -1.9228 -0.8442
 3793TIP3   OH232793   5.665   5.764  14.642 -0.3638  0.1516 -0.0213
 3793TIP3    H132794   5.581   5.733  14.676 -0.1042  0.3341  0.8102
 3793TIP3    H232795   5.662   5.859  14.650 -0.1827  0.1765 -0.2334
 3794TIP3   OH232796   4.194   2.219   3.106 -0.0874 -0.5017  0.2896
 3794TIP3    H132797   4.281   2.178   3.105 -0.0164 -0.4193 -1.5745
 3794TIP3    H232798   4.157   2.196   3.191  1.2424 -1.6569  0.5907
 3795TIP3   OH232799   1.439   3.430  11.954 -0.0120  0.1726 -0.3843
 3795TIP3    H132800   1.379   3.496  11.918  0.2523  0.7593  0.2346
 3795TIP3    H232801   1.516   3.435  11.898  0.2172  0.7635 -0.0195
 3796TIP3   OH232802   6.671   6.074  13.914  0.0188  0.1151  0.3341
 3796TIP3    H132803   6.655   6.164  13.942 -0.4101 -0.1085  0.8263
 3796TIP3    H232804   6.766   6.066  13.915  0.0712  0.6591 -0.0234
 3797TIP3   OH232805   1.805   4.582  14.691  0.4144  0.0793  0.1956
 3797TIP3    H132806   1.798   4.674  14.664  1.0244  0.3793  1.0318
 3797TIP3    H232807   1.849   4.539  14.618  2.3740  0.9474  0.8201
 3798TIP3   OH232808   6.118   2.538  11.588  0.3584  0.1256 -0.5656
 3798TIP3    H132809   6.164   2.453  11.590  0.9954  0.4736  0.2761
 3798TIP3    H232810   6.043   2.523  11.530  1.0030 -0.7341 -1.2099
 3799TIP3   OH232811   5.292   4.042   1.171  0.0742  0.6741  0.2659
 3799TIP3    H132812   5.256   4.052   1.259  0.0071  0.5815  0.2493
 3799TIP3    H232813   5.351   3.967   1.177 -2.1104 -1.2298 -0.4328
 3800TIP3   OH232814   1.423   3.530   0.936  0.2420  0.4195 -0.2993
 3800TIP3    H132815   1.423   3.435   0.948  1.0774  0.1085 -2.4053
 3800TIP3    H232816   1.330   3.553   0.935  0.0225 -0.0749  1.8692
 3801TIP3   OH232817   2.099   6.762   1.896  0.1543 -0.1517  0.0418
 3801TIP3    H132818   2.028   6.754   1.832  0.8676 -0.5494 -0.7233
 3801TIP3    H232819   2.085   6.847   1.937 -2.2755 -1.2741  1.7720
 3802TIP3   OH232820   1.036   1.986   2.096 -0.1757  0.1317 -0.2503
 3802TIP3    H132821   1.038   1.930   2.174  2.8194  0.7747  0.2614
 3802TIP3    H232822   0.980   1.939   2.034 -1.8867 -0.8568  1.9108
 3803TIP3   OH232823   2.271   6.736   2.651 -0.7656  0.3116 -1.0511
 3803TIP3    H132824   2.278   6.653   2.700 -1.6163 -0.0963 -1.5970
 3803TIP3    H232825   2.206   6.787   2.700  2.0879  2.1041  1.2349
 3804TIP3   OH232826   0.280   5.926   2.804 -0.4321 -0.0675  0.6644
 3804TIP3    H132827   0.372   5.932   2.828 -0.5165  1.0766  0.7841
 3804TIP3    H232828   0.234   5.906   2.885 -0.1730 -2.1579  0.3435
 3805TIP3   OH232829   4.012   1.196   3.650 -0.3108  0.1807  0.6352
 3805TIP3    H132830   3.966   1.112   3.654 -0.0326 -0.2867 -2.6366
 3805TIP3    H232831   3.953   1.252   3.600  0.4741  1.2271  0.8528
 3806TIP3   OH232832   4.264   2.284   1.627 -0.1818 -0.1844  0.1836
 3806TIP3    H132833   4.357   2.305   1.617 -0.3387 -0.2245 -1.6867
 3806TIP3    H232834   4.235   2.339   1.701  1.6422 -1.3776  1.8825
 3807TIP3   OH232835   6.066   2.639   5.842 -0.6100 -0.5772 -0.3555
 3807TIP3    H132836   6.108   2.616   5.759  0.4700 -0.7760  0.2336
 3807TIP3    H232837   6.034   2.556   5.877 -1.4160 -0.4414 -0.7487
 3808TIP3   OH232838   5.975   3.358  15.572 -0.6250  0.2483 -0.4697
 3808TIP3    H132839   6.037   3.383  15.503 -0.9165  1.5160 -0.2933
 3808TIP3    H232840   6.013   3.280  15.612  1.2177  1.4032  0.1079
 3809TIP3   OH232841   1.496   0.887   5.773 -0.1605  0.1508  0.0245
 3809TIP3    H132842   1.438   0.908   5.846 -0.7727 -1.3176 -0.0034
 3809TIP3    H232843   1.481   0.957   5.710  0.5474  1.5684  1.3686
 3810TIP3   OH232844   6.760   2.478   5.703 -0.3037  0.2290 -0.3527
 3810TIP3    H132845   6.844   2.506   5.666  0.1203 -0.7367 -0.1633
 3810TIP3    H232846   6.768   2.382   5.710 -0.7664  0.2783  1.2661
 3811TIP3   OH232847   2.641   1.857  12.402 -0.1534  0.3707 -0.1126
 3811TIP3    H132848   2.552   1.891  12.391 -0.0250  1.1613  1.1149
 3811TIP3    H232849   2.698   1.934  12.391  0.2541  0.2233  0.8717
 3812TIP3   OH232850   0.346   5.723   0.283  0.3585 -0.2988 -0.0028
 3812TIP3    H132851   0.427   5.728   0.333  0.7672 -3.1284 -0.2244
 3812TIP3    H232852   0.311   5.636   0.301 -2.6466  0.7899  0.0246
 3813TIP3   OH232853   1.325   2.728   2.155  0.1442 -0.3087  0.5133
 3813TIP3    H132854   1.385   2.670   2.202 -0.0424 -1.7971 -0.9801
 3813TIP3    H232855   1.238   2.700   2.184  0.0917  1.2989  2.0579
 3814TIP3   OH232856   0.266   3.976   5.137  0.3494 -0.3143 -0.4323
 3814TIP3    H132857   0.329   4.039   5.101  0.4052 -1.0089 -1.6104
 3814TIP3    H232858   0.281   3.896   5.086  0.1338 -1.2282  0.8958
 3815TIP3   OH232859   5.388   5.699   4.953  0.4619  0.1378  0.4174
 3815TIP3    H132860   5.435   5.746   5.021  1.3306  0.8097 -0.6223
 3815TIP3    H232861   5.330   5.764   4.914 -1.4561 -0.6772  1.6978
 3816TIP3   OH232862   0.954   4.115  16.674  0.2202  0.5271 -0.9427
 3816TIP3    H132863   0.940   4.206  16.650 -1.5240  0.8520  1.0005
 3816TIP3    H232864   0.932   4.065  16.595 -2.9468  1.6256 -0.8831
 3817TIP3   OH232865   1.708   5.753  15.625 -0.3309  0.5457  0.1756
 3817TIP3    H132866   1.751   5.827  15.668 -1.1715  1.7986 -1.0536
 3817TIP3    H232867   1.676   5.788  15.542 -0.0714 -1.4179 -0.8169
 3818TIP3   OH232868   3.031   1.016  13.508  0.7453 -0.0316  0.4357
 3818TIP3    H132869   3.074   1.094  13.472  1.3551 -0.5925 -0.0834
 3818TIP3    H232870   3.080   0.943  13.471 -0.9748 -0.7228 -0.5992
 3819TIP3   OH232871   5.569   2.696  17.015  0.0012  0.5309  0.0015
 3819TIP3    H132872   5.498   2.660  17.068 -0.6565 -1.4213 -2.0603
 3819TIP3    H232873   5.527   2.764  16.961 -0.0980  0.0873 -0.4873
 3820TIP3   OH232874   3.068   4.753  16.112  0.8651  0.5256  0.3146
 3820TIP3    H132875   3.148   4.703  16.095 -0.5582 -2.1483  0.8481
 3820TIP3    H232876   3.076   4.781  16.203  0.5919 -1.0749  0.8654
 3821TIP3   OH232877   4.873   6.200  13.044  0.1740  0.3085 -0.4169
 3821TIP3    H132878   4.901   6.116  13.009 -0.2109  0.4910 -1.1781
 3821TIP3    H232879   4.778   6.193  13.051  0.2440  0.2371  0.7065
 3822TIP3   OH232880   1.855   5.683   0.162 -0.0249 -0.8027 -0.6589
 3822TIP3    H132881   1.782   5.739   0.137 -0.2172  0.0255  1.5700
 3822TIP3    H232882   1.814   5.607   0.203  0.3324 -0.4911  0.3005
 3823TIP3   OH232883   0.897   6.111  13.050 -0.6313  0.2260 -0.3311
 3823TIP3    H132884   0.882   6.158  12.968  1.0633 -0.0406 -0.8486
 3823TIP3    H232885   0.879   6.020  13.029 -1.4498  0.3100 -0.0306
 3824TIP3   OH232886   2.195   2.806  11.559  0.4176 -0.5739 -0.5206
 3824TIP3    H132887   2.282   2.798  11.598  0.3993 -2.7553 -0.7626
 3824TIP3    H232888   2.135   2.808  11.634  0.5208 -2.4735 -0.3290
 3825TIP3   OH232889   0.842   2.005   4.945 -0.0512  0.4621  0.1940
 3825TIP3    H132890   0.878   2.033   5.029 -1.3258 -0.4480  1.0866
 3825TIP3    H232891   0.907   2.033   4.880  1.0975  0.9259  1.4970
 3826TIP3   OH232892   5.571   4.194  16.250  0.2500 -1.0834 -0.5815
 3826TIP3    H132893   5.527   4.239  16.178  0.9463 -1.2706 -1.1280
 3826TIP3    H232894   5.543   4.242  16.329 -0.7809 -1.0848 -0.9286
 3827TIP3   OH232895   4.597   5.990   2.486  0.3522 -0.1864 -0.4834
 3827TIP3    H132896   4.667   6.035   2.534  0.6353 -0.7298 -0.3741
 3827TIP3    H232897   4.636   5.906   2.462 -0.7690 -1.1684  0.9631
 3828TIP3   OH232898   4.637   0.166  13.065  0.1235 -0.1288 -0.0903
 3828TIP3    H132899   4.617   0.239  13.007 -0.7610 -0.2669  0.0285
 3828TIP3    H232900   4.555   0.117  13.071  0.4544 -0.6165  0.5614
 3829TIP3   OH232901   5.724   4.311   0.205 -0.1915 -0.6201 -0.8500
 3829TIP3    H132902   5.809   4.349   0.184  0.2397 -1.7157 -1.1866
 3829TIP3    H232903   5.734   4.272   0.292 -0.7402  0.3365 -0.3433
 3830TIP3   OH232904   1.745   3.062   1.124 -0.4254  0.1603 -0.2149
 3830TIP3    H132905   1.754   3.128   1.193 -2.0609 -1.7559  1.9914
 3830TIP3    H232906   1.681   3.001   1.158 -0.1437 -1.7581 -2.8411
 3831TIP3   OH232907   4.113   0.383   3.325  0.2958 -0.1483 -0.2649
 3831TIP3    H132908   4.060   0.352   3.398 -0.8114  0.3042 -0.8505
 3831TIP3    H232909   4.057   0.368   3.248 -0.0592  2.6781 -0.6491
 3832TIP3   OH232910   3.836   4.859  13.054 -0.1861  0.0923 -0.2684
 3832TIP3    H132911   3.803   4.770  13.043  0.9827 -0.4461  0.4761
 3832TIP3    H232912   3.931   4.850  13.051 -0.0474  1.2571  0.2358
 3833TIP3   OH232913   5.693   0.428  10.948  0.1098  0.3673 -0.3121
 3833TIP3    H132914   5.710   0.521  10.968 -1.4701  0.6687 -0.2437
 3833TIP3    H232915   5.751   0.380  11.007  0.1737  1.3142  0.4188
 3834TIP3   OH232916   0.609   6.373   6.486  0.0908  0.2761 -0.4106
 3834TIP3    H132917   0.607   6.441   6.419  3.2413  0.8876 -0.0476
 3834TIP3    H232918   0.627   6.420   6.567 -0.0074 -0.7927  0.2521
 3835TIP3   OH232919   2.224   0.662   3.479  0.3246  0.5973 -0.2110
 3835TIP3    H132920   2.148   0.693   3.429  0.7441 -0.7138 -1.7471
 3835TIP3    H232921   2.207   0.569   3.494  1.8712  0.1297 -1.1228
 3836TIP3   OH232922   0.945   3.685  14.779 -0.5001  0.2360  0.0209
 3836TIP3    H132923   1.033   3.655  14.755 -0.3682  2.6592 -3.1992
 3836TIP3    H232924   0.887   3.637  14.720 -0.8219  1.9861 -1.1325
 3837TIP3   OH232925   0.704   0.482   3.623  0.6580 -0.1385 -0.2147
 3837TIP3    H132926   0.611   0.464   3.612  0.5995 -1.2528  1.6384
 3837TIP3    H232927   0.708   0.552   3.688  1.1163  0.2785 -0.6793
 3838TIP3   OH232928   3.869   2.074  14.555  0.1031  0.6818  0.0358
 3838TIP3    H132929   3.862   2.091  14.649 -1.0958 -2.2316  0.5877
 3838TIP3    H232930   3.778   2.071  14.524  0.4934  2.0235 -1.3534
 3839TIP3   OH232931   0.740   0.002   0.301 -0.8417 -0.1526 -0.2333
 3839TIP3    H132932   0.723   0.053   0.222  2.0237 -1.4781 -1.8561
 3839TIP3    H232933   0.732  -0.089   0.273  2.3582 -0.7129  0.2990
 3840TIP3   OH232934   1.136   3.206   5.387 -0.2952 -0.5455  0.4168
 3840TIP3    H132935   1.168   3.178   5.473 -0.9803 -0.9594  0.5509
 3840TIP3    H232936   1.130   3.125   5.336 -0.6817 -0.4193  0.2553
 3841TIP3   OH232937   2.389   5.093   3.213 -0.2426 -0.0289 -0.5535
 3841TIP3    H132938   2.460   5.034   3.238 -0.5118  0.4821  1.7057
 3841TIP3    H232939   2.311   5.038   3.213 -0.4427  0.2003  1.2202
 3842TIP3   OH232940   1.610   4.455  14.979 -0.0497 -0.3414 -0.4197
 3842TIP3    H132941   1.587   4.495  15.063  2.4887 -1.0878  0.7399
 3842TIP3    H232942   1.640   4.368  15.002  2.2954  0.0067 -1.8615
 3843TIP3   OH232943   2.814   3.438   2.950  0.4066  0.1291 -0.1027
 3843TIP3    H132944   2.757   3.420   2.876  0.0205 -0.8173  0.4007
 3843TIP3    H232945   2.850   3.525   2.933 -1.1232  0.7157 -0.4735
 3844TIP3   OH232946   2.281   3.434  12.969  0.4043 -0.4752 -0.3788
 3844TIP3    H132947   2.262   3.396  13.055 -1.1031  0.2996 -0.3389
 3844TIP3    H232948   2.334   3.512  12.988  3.2080 -2.2398 -0.4394
 3845TIP3   OH232949   6.706   4.199  10.766 -0.1966  0.3561  0.0658
 3845TIP3    H132950   6.661   4.115  10.774  0.1988  0.2387  1.2818
 3845TIP3    H232951   6.795   4.176  10.737 -0.8571  0.5878 -2.3376
 3846TIP3   OH232952   0.855   0.782   1.934 -0.6365  0.1838  0.3757
 3846TIP3    H132953   0.857   0.873   1.963  0.1833  0.2320  0.2128
 3846TIP3    H232954   0.934   0.773   1.879  0.1194 -1.0146  1.5835
 3847TIP3   OH232955   0.435   5.888  10.920  0.1031  0.3214 -0.1464
 3847TIP3    H132956   0.460   5.912  10.831 -0.4973  0.7769 -0.2018
 3847TIP3    H232957   0.510   5.912  10.974  1.3238 -1.8507 -0.7572
 3848TIP3   OH232958   3.070   1.781  11.981  0.1450  0.4526 -0.9009
 3848TIP3    H132959   3.078   1.778  11.886 -1.9453 -0.7850 -1.1086
 3848TIP3    H232960   2.982   1.817  11.996 -0.1711 -0.8077  0.4950
 3849TIP3   OH232961   2.597   0.175  13.591  0.3107 -0.1241  0.5247
 3849TIP3    H132962   2.630   0.171  13.501  0.2697 -2.0177  0.5587
 3849TIP3    H232963   2.505   0.151  13.584 -0.2821  1.8404  0.8506
 3850TIP3   OH232964   2.388   0.015   6.228 -0.6116 -0.5435  0.2249
 3850TIP3    H132965   2.359  -0.043   6.158  0.1840 -0.0249 -0.5518
 3850TIP3    H232966   2.448  -0.038   6.281 -0.6451 -0.7152  0.0908
 3851TIP3   OH232967   6.191   1.447  10.120  0.0522  0.0701 -0.0091
 3851TIP3    H132968   6.105   1.489  10.120  0.3890  0.8428  1.3209
 3851TIP3    H232969   6.230   1.472  10.036 -1.8864 -2.2612 -1.7334
 3852TIP3   OH232970   2.135   3.156  13.975 -0.4383 -0.0903  0.2616
 3852TIP3    H132971   2.151   3.213  13.899  1.6808  0.2853  0.9130
 3852TIP3    H232972   2.163   3.069  13.947 -0.1205 -0.0468  0.4300
 3853TIP3   OH232973   1.877   2.418  15.415 -0.4046 -0.0731 -0.2905
 3853TIP3    H132974   1.804   2.412  15.353 -0.3840 -0.8241 -0.2558
 3853TIP3    H232975   1.920   2.332  15.410  0.1494  0.1783  0.0868
 3854TIP3   OH232976   5.447   0.734  13.113 -0.3550  0.2743  0.4669
 3854TIP3    H132977   5.510   0.676  13.157 -0.0527  1.0268  1.0478
 3854TIP3    H232978   5.498   0.812  13.091 -0.2650 -0.4189 -2.0743
 3855TIP3   OH232979   2.024   1.945  11.417  0.4387 -0.5565 -0.5407
 3855TIP3    H132980   2.046   1.973  11.506 -0.9989 -1.0011 -0.0151
 3855TIP3    H232981   2.099   1.893  11.389  0.3825 -1.4856  0.9140
 3856TIP3   OH232982   3.889   2.289   1.509  0.3028  0.7592 -0.6173
 3856TIP3    H132983   3.823   2.352   1.478  0.2787  1.3403  0.5592
 3856TIP3    H232984   3.973   2.330   1.488  0.3555  2.4361  2.2861
 3857TIP3   OH232985   1.907   0.577  13.165 -0.3338 -0.0015 -0.3297
 3857TIP3    H132986   1.923   0.622  13.248  1.6973 -1.5470  0.1991
 3857TIP3    H232987   1.912   0.646  13.099 -0.4401  1.0097  0.6836
 3858TIP3   OH232988   6.386   2.721  14.640  0.1130  0.5249 -0.1024
 3858TIP3    H132989   6.376   2.780  14.566 -0.1309  0.4392 -0.1409
 3858TIP3    H232990   6.298   2.686  14.654  0.3614 -0.2539 -0.4367
 3859TIP3   OH232991   3.639   6.262   2.870  0.5058  0.5621 -0.0379
 3859TIP3    H132992   3.656   6.169   2.855  0.1712  0.5192 -0.1728
 3859TIP3    H232993   3.589   6.290   2.793  1.4382  1.0920 -0.4603
 3860TIP3   OH232994   5.935   5.158  11.463  0.1212  0.0489 -0.0806
 3860TIP3    H132995   5.856   5.131  11.511  0.0973  0.1514 -0.0611
 3860TIP3    H232996   5.940   5.252  11.477  1.0069 -0.1447  1.0625
 3861TIP3   OH232997   0.801   1.350  15.633 -0.3400 -0.4656  0.2986
 3861TIP3    H132998   0.795   1.422  15.570 -2.0661 -1.2368 -0.4982
 3861TIP3    H232999   0.855   1.285  15.590  1.5832  0.4556  1.1941
 3862TIP3   OH233000   2.848   3.725   3.703  0.7975  0.1238 -0.4989
 3862TIP3    H133001   2.864   3.752   3.613  0.4081 -1.4761 -1.0770
 3862TIP3    H233002   2.847   3.629   3.700 -0.3970  0.0519  0.9921
 3863TIP3   OH233003   3.764   5.742   2.933 -0.0711 -0.1486  0.6460
 3863TIP3    H133004   3.688   5.771   2.883 -0.3210  0.8757  1.5975
 3863TIP3    H233005   3.838   5.788   2.893  0.1608 -1.4807 -0.5691
 3864TIP3   OH233006   0.368   2.319  15.588  0.3759 -0.3765 -0.3522
 3864TIP3    H133007   0.288   2.344  15.634  0.2679  1.0116 -1.2547
 3864TIP3    H233008   0.438   2.338  15.650  0.0474 -1.4767  0.3953
 3865TIP3   OH233009   5.093   5.970  12.408  0.1863 -0.6181 -0.2003
 3865TIP3    H133010   5.095   5.940  12.317  0.8836 -1.9277  0.2066
 3865TIP3    H233011   5.182   5.953  12.440  0.3219  1.0334  0.3711
 3866TIP3   OH233012   2.179   1.932  15.098  0.2213 -0.4998  0.5717
 3866TIP3    H133013   2.174   2.025  15.075  0.8742 -0.8231 -1.0223
 3866TIP3    H233014   2.128   1.888  15.030  0.1909 -1.3413  1.1253
 3867TIP3   OH233015   3.353   5.182   2.631 -0.0946 -0.5852 -0.1120
 3867TIP3    H133016   3.362   5.277   2.625 -0.1368 -0.4828  1.2601
 3867TIP3    H233017   3.375   5.150   2.543  0.1315  0.6676 -0.5248
 3868TIP3   OH233018   2.024   5.031  10.922 -0.4073 -0.5294 -0.4187
 3868TIP3    H133019   1.951   4.988  10.878  0.5147 -2.1977 -0.4143
 3868TIP3    H233020   2.014   5.005  11.014  1.7523 -3.3310 -0.8202
 3869TIP3   OH233021   4.473   2.454   4.873 -0.0115 -0.2211 -0.3295
 3869TIP3    H133022   4.455   2.360   4.876  0.0323 -0.2264 -0.2449
 3869TIP3    H233023   4.548   2.467   4.931  0.4562 -0.2402 -0.9190
 3870TIP3   OH233024   5.589   5.422  13.852 -0.3722  0.7012 -0.3851
 3870TIP3    H133025   5.584   5.338  13.805 -3.0365  0.5846 -0.0633
 3870TIP3    H233026   5.626   5.482  13.787 -0.4788 -0.2456 -1.3721
 3871TIP3   OH233027   5.108   6.306  10.771  0.6691  0.4409  0.2956
 3871TIP3    H133028   5.039   6.353  10.725 -0.2384 -0.3011  0.8642
 3871TIP3    H233029   5.127   6.231  10.715 -1.1495 -1.0310  1.5067
 3872TIP3   OH233030   3.609   3.347   0.780  0.6806  0.2657 -0.1842
 3872TIP3    H133031   3.656   3.292   0.844  0.8385  0.1245 -0.4184
 3872TIP3    H233032   3.582   3.286   0.712 -1.5645 -0.0207  0.8680
 3873TIP3   OH233033   2.284   0.055  16.790  0.2035  0.2053 -0.3467
 3873TIP3    H133034   2.274   0.021  16.701  0.3661  0.4337 -0.4503
 3873TIP3    H233035   2.255  -0.018  16.846 -1.4438  0.5999 -0.6207
 3874TIP3   OH233036   3.479   0.255  13.253 -0.6888 -0.3060  0.4559
 3874TIP3    H133037   3.462   0.286  13.342 -0.3131 -2.9987  1.5770
 3874TIP3    H233038   3.452   0.327  13.196 -0.9533  1.5006  2.7307
 3875TIP3   OH233039   3.789   6.541  11.909  0.1788  0.3137  0.2410
 3875TIP3    H133040   3.728   6.470  11.885  0.1823  1.0434 -2.2579
 3875TIP3    H233041   3.876   6.501  11.900  0.1388  0.0288  1.0781
 3876TIP3   OH233042   0.051   5.369  16.775  0.5490 -0.0092 -0.2344
 3876TIP3    H133043   0.078   5.442  16.719 -2.7045  1.1864 -0.4598
 3876TIP3    H233044  -0.023   5.402  16.824 -0.9386 -3.0757 -0.1538
 3877TIP3   OH233045   6.269   1.966  12.697 -0.2326  0.0963 -0.0392
 3877TIP3    H133046   6.209   1.982  12.769  0.7623  1.5102  0.5116
 3877TIP3    H233047   6.332   1.902  12.731  0.9630  1.6753  0.8136
 3878TIP3   OH233048   0.859   0.420   3.090 -0.2980  0.2532  0.6752
 3878TIP3    H133049   0.946   0.431   3.129 -0.2272 -0.6089  0.7882
 3878TIP3    H233050   0.799   0.450   3.158 -0.0631  4.3682 -0.6677
 3879TIP3   OH233051   4.297   1.459  15.926 -0.5710  0.2347 -0.1277
 3879TIP3    H133052   4.375   1.461  15.869 -0.0444 -0.0024  0.5737
 3879TIP3    H233053   4.326   1.415  16.005 -1.2572  0.7056  0.4003
 3880TIP3   OH233054   5.116   0.491   6.389  0.2089  0.4203  0.3704
 3880TIP3    H133055   5.193   0.546   6.407 -0.2985  0.6696  1.9165
 3880TIP3    H233056   5.150   0.402   6.388  0.7601  0.6291 -0.4829
 3881TIP3   OH233057   0.761   1.433  13.035 -0.8962  0.3656  0.3011
 3881TIP3    H133058   0.700   1.506  13.023 -1.1298 -0.0233 -0.9615
 3881TIP3    H233059   0.802   1.421  12.950 -0.0477 -0.2696  0.7823
 3882TIP3   OH233060   5.193   3.816   0.222  0.3277 -0.0068  0.2967
 3882TIP3    H133061   5.158   3.883   0.281  0.9721  1.1841 -0.6453
 3882TIP3    H233062   5.281   3.798   0.255  0.0854 -0.5694  0.6685
 3883TIP3   OH233063   4.016   0.364  16.087 -0.2429 -0.0769  0.5011
 3883TIP3    H133064   4.019   0.437  16.026 -0.7424  0.3173  0.9380
 3883TIP3    H233065   4.082   0.303  16.054  0.1636  0.5530  0.1131
 3884TIP3   OH233066   1.563   2.392   0.208 -0.1422  1.0086  0.3342
 3884TIP3    H133067   1.534   2.474   0.167  0.3456  1.7007  1.3422
 3884TIP3    H233068   1.621   2.420   0.278 -0.3927 -0.1920  1.0373
 3885TIP3   OH233069   1.278   1.987   3.541 -0.4556 -0.5578  0.3502
 3885TIP3    H133070   1.222   2.063   3.554 -0.9536 -0.9606  0.5886
 3885TIP3    H233071   1.219   1.912   3.549  0.1979 -1.0082  1.0586
 3886TIP3   OH233072   5.134   3.472  12.592 -0.6930  0.4258 -0.3696
 3886TIP3    H133073   5.141   3.476  12.497  0.4430  0.7254 -0.2913
 3886TIP3    H233074   5.088   3.390  12.610 -2.1669  1.0405 -1.2116
 3887TIP3   OH233075   5.838   4.023   5.998 -0.3666 -0.2078 -0.1139
 3887TIP3    H133076   5.752   4.010   6.037 -0.7722  0.1843 -0.8623
 3887TIP3    H233077   5.829   3.988   5.909  0.6131 -1.3325  0.1972
 3888TIP3   OH233078   0.011   5.578   5.589 -0.3405  1.2271 -0.6068
 3888TIP3    H133079  -0.081   5.603   5.599 -1.0715 -1.0022 -1.2120
 3888TIP3    H233080   0.036   5.613   5.503 -1.6857 -0.8858 -1.9599
 3889TIP3   OH233081   5.847   6.645   0.201 -0.0504  0.5418  0.1667
 3889TIP3    H133082   5.904   6.618   0.273  0.3122  0.6256 -0.0899
 3889TIP3    H233083   5.803   6.565   0.173 -0.7445  0.6310  0.9638
 3890TIP3   OH233084   6.143   4.669   0.795 -0.3425 -0.1345 -0.3266
 3890TIP3    H133085   6.219   4.725   0.811 -0.2933 -0.2639 -0.1062
 3890TIP3    H233086   6.173   4.605   0.730 -0.9758  1.3060 -2.1121
 3891TIP3   OH233087   3.084   3.076   4.972 -0.3439 -0.0494 -0.1300
 3891TIP3    H133088   3.087   2.993   4.926  0.1106 -0.1824  0.1417
 3891TIP3    H233089   3.045   3.137   4.908 -1.1045 -0.5632 -0.1716
 3892TIP3   OH233090   5.446   3.142   1.993 -0.1474 -0.3508 -0.6041
 3892TIP3    H133091   5.410   3.227   2.019 -0.3135 -0.4363 -0.5594
 3892TIP3    H233092   5.377   3.100   1.944  0.2298 -0.1203 -1.3446
 3893TIP3   OH233093   1.261   2.453   3.394 -0.2272  0.3300 -0.1380
 3893TIP3    H133094   1.284   2.545   3.382 -0.6100  0.3863 -0.4463
 3893TIP3    H233095   1.326   2.420   3.457 -0.7088  1.0675  0.7777
 3894TIP3   OH233096   3.805   2.868   4.622 -0.3753 -0.0301  0.1323
 3894TIP3    H133097   3.863   2.882   4.548 -0.5895 -3.3855 -0.8476
 3894TIP3    H233098   3.732   2.928   4.607 -0.1693 -0.2657 -2.1401
 3895TIP3   OH233099   0.383   3.822  15.216 -0.3378  0.0453 -0.0661
 3895TIP3    H133100   0.406   3.749  15.273 -0.2210 -0.3808 -0.6415
 3895TIP3    H233101   0.463   3.839  15.166 -0.7012 -0.2029 -0.7484
 3896TIP3   OH233102   5.741   1.425  13.706 -0.0956 -0.5161  0.4831
 3896TIP3    H133103   5.819   1.370  13.707 -0.8226 -1.6230 -0.5850
 3896TIP3    H233104   5.677   1.376  13.757 -0.6622 -0.5379 -0.2322
 3897TIP3   OH233105   3.808   4.813  11.351 -0.4982 -0.7765 -0.5358
 3897TIP3    H133106   3.865   4.736  11.349 -1.3974 -1.4602 -2.4432
 3897TIP3    H233107   3.853   4.878  11.297  0.2677  0.1104  1.0857
 3898TIP3   OH233108   1.810   0.351  14.513  0.1787 -0.6646 -0.4623
 3898TIP3    H133109   1.818   0.256  14.524 -0.0222 -1.0433 -2.9177
 3898TIP3    H233110   1.723   0.363  14.474 -0.0623  0.6185  0.4215
 3899TIP3   OH233111   0.548   5.180  14.113 -0.3041  0.6212  0.9943
 3899TIP3    H133112   0.576   5.141  14.030  0.1962  2.4416  0.2562
 3899TIP3    H233113   0.558   5.274  14.100 -2.2024  1.0773  2.4164
 3900TIP3   OH233114   2.549   3.024  13.579  0.6267 -0.5387 -0.0866
 3900TIP3    H133115   2.573   3.053  13.492  0.0740 -2.9572 -1.1261
 3900TIP3    H233116   2.551   2.928  13.574 -3.6745 -0.8820  1.2683
 3901TIP3   OH233117   1.153   1.556  14.703 -0.3030  0.3283 -0.4630
 3901TIP3    H133118   1.182   1.490  14.766 -0.3052 -1.7817 -2.5133
 3901TIP3    H233119   1.101   1.618  14.754  1.2937 -0.1570  1.9071
 3902TIP3   OH233120   5.456   5.966  11.608  0.0455  0.0543  0.3452
 3902TIP3    H133121   5.537   6.016  11.594 -0.6064  1.4114  1.2337
 3902TIP3    H233122   5.397   6.027  11.652 -1.9233 -0.4876 -1.3621
 3903TIP3   OH233123   3.566   3.377   5.612 -0.3901  0.3336  0.7947
 3903TIP3    H133124   3.510   3.375   5.534 -0.0133  0.4122  0.5167
 3903TIP3    H233125   3.628   3.306   5.599 -0.8107 -0.1471  1.3993
 3904TIP3   OH233126   5.342   0.820   0.264  0.0312  0.0997  0.3588
 3904TIP3    H133127   5.342   0.912   0.292 -0.2435  0.1741  0.1209
 3904TIP3    H233128   5.377   0.822   0.175  0.4939 -0.0857  0.5357
 3905TIP3   OH233129   5.051   6.617  15.470 -0.8936 -0.4000  0.3019
 3905TIP3    H133130   5.113   6.682  15.502 -0.6605 -0.8586  0.8008
 3905TIP3    H233131   5.095   6.578  15.394 -0.8598 -0.2486  0.2446
 3906TIP3   OH233132   5.878   2.958  15.468  0.2798  0.4543 -0.2096
 3906TIP3    H133133   5.929   2.998  15.538  0.9186 -0.9373  0.1394
 3906TIP3    H233134   5.801   2.921  15.512 -0.7032  1.8777 -0.6316
 3907TIP3   OH233135   5.371   5.381   1.779  0.4036 -0.3770 -0.5013
 3907TIP3    H133136   5.299   5.359   1.838 -0.4076  0.4102 -1.1673
 3907TIP3    H233137   5.434   5.309   1.789  1.9195  1.2006  3.7855
 3908TIP3   OH233138   3.798   3.086  11.567  0.0783  0.6085  0.4920
 3908TIP3    H133139   3.856   3.026  11.520  0.4807  0.8011  0.7371
 3908TIP3    H233140   3.746   3.129  11.499 -0.3677 -0.1696  0.3255
 3909TIP3   OH233141   0.973   0.264   1.635 -0.0399  0.4822  0.2825
 3909TIP3    H133142   0.951   0.275   1.727 -0.0410 -1.1969  0.5061
 3909TIP3    H233143   1.062   0.227   1.635 -0.0270  0.4849 -0.3877
 3910TIP3   OH233144   0.259   1.115   0.328 -0.5107 -0.0312 -0.4888
 3910TIP3    H133145   0.178   1.165   0.337 -0.7086 -0.1989 -1.2396
 3910TIP3    H233146   0.326   1.170   0.368 -0.4304  1.6206 -2.7160
 3911TIP3   OH233147   5.395   4.977   2.059 -0.3629 -0.2472 -0.3582
 3911TIP3    H133148   5.338   4.920   2.007  0.5081 -1.2665 -0.2156
 3911TIP3    H233149   5.430   5.039   1.995  1.7307 -2.2810 -1.3421
 3912TIP3   OH233150   5.276   0.034  11.303  0.1648 -0.3074 -0.1271
 3912TIP3    H133151   5.320   0.072  11.227 -1.1585 -2.2180 -1.9573
 3912TIP3    H233152   5.325   0.067  11.379  0.4514  3.1095 -1.6439
 3913TIP3   OH233153   3.901   5.666   3.150 -0.3227  0.2462 -0.1317
 3913TIP3    H133154   3.960   5.605   3.107  1.4030  0.5164  1.7053
 3913TIP3    H233155   3.866   5.721   3.080  0.9998 -0.4337 -1.3550
 3914TIP3   OH233156   0.408   3.124   3.170  0.4151 -0.1469 -0.1808
 3914TIP3    H133157   0.421   3.067   3.245  1.8267 -0.4513 -0.6308
 3914TIP3    H233158   0.406   3.213   3.206  0.5716 -0.3253  0.2660
 3915TIP3   OH233159   6.036   1.242  11.357 -0.8089  0.0944 -0.3734
 3915TIP3    H133160   5.971   1.285  11.301 -0.4866  1.3700  0.2223
 3915TIP3    H233161   6.099   1.205  11.296  0.1173  2.3799 -0.8788
 3916TIP3   OH233162   4.222   1.961   1.326 -0.2821 -0.9658 -0.4612
 3916TIP3    H133163   4.147   1.906   1.302  0.4046 -1.3769 -1.7838
 3916TIP3    H233164   4.258   1.989   1.242  1.8738 -1.9029  0.0923
 3917TIP3   OH233165   2.147   0.641   0.600  0.4588 -0.0705 -0.2112
 3917TIP3    H133166   2.212   0.595   0.546 -0.0574 -0.4796 -0.4967
 3917TIP3    H233167   2.178   0.629   0.690  0.8218 -0.1908 -0.3486
 3918TIP3   OH233168   6.679   4.450  10.653 -0.0163  0.4879 -0.2748
 3918TIP3    H133169   6.729   4.452  10.571 -1.0528  0.6928 -0.9107
 3918TIP3    H233170   6.704   4.367  10.694 -0.0296  0.0493 -1.1417
 3919TIP3   OH233171   2.731   5.645   6.503  0.1970  0.2656  0.3850
 3919TIP3    H133172   2.724   5.560   6.547 -0.3012  0.0112 -0.1753
 3919TIP3    H233173   2.745   5.623   6.411  0.7127  0.7948  0.3365
 3920TIP3   OH233174   3.757   2.047   2.655 -0.3954  0.6816 -0.0330
 3920TIP3    H133175   3.741   2.132   2.616  1.2191  0.9203 -0.2255
 3920TIP3    H233176   3.704   1.986   2.603  1.0140  1.1122 -2.0816
 3921TIP3   OH233177   4.277   1.105   3.444 -0.3198  0.3759 -0.0943
 3921TIP3    H133178   4.339   1.039   3.475  1.1500  0.6892 -2.2047
 3921TIP3    H233179   4.213   1.112   3.515 -0.1721 -2.8026  0.4954
 3922TIP3   OH233180   0.967   1.485   5.989 -0.0505 -0.0711  0.0332
 3922TIP3    H133181   0.878   1.477   5.957 -0.1650  0.6657  0.1472
 3922TIP3    H233182   0.957   1.517   6.079  0.3419  1.5167 -0.4491
 3923TIP3   OH233183   6.754   1.031   0.538 -0.0218 -0.1898  0.2767
 3923TIP3    H133184   6.697   0.978   0.482  1.4655 -1.1142 -0.4564
 3923TIP3    H233185   6.695   1.076   0.598 -1.6855  0.6491 -1.8575
 3924TIP3   OH233186   0.835   2.749  16.616 -0.4642 -0.3446  0.0477
 3924TIP3    H133187   0.869   2.769  16.703  0.0110  0.7041 -0.3557
 3924TIP3    H233188   0.901   2.786  16.556 -1.4554  0.1808 -0.7481
 3925TIP3   OH233189   0.197   0.701   3.093  0.2664  0.0743 -0.1093
 3925TIP3    H133190   0.117   0.752   3.080  0.0624 -0.4430 -0.9166
 3925TIP3    H233191   0.241   0.703   3.009  0.5160 -0.6436 -0.0018
 3926TIP3   OH233192   0.879   5.749  13.778  0.7444 -0.3756  0.1155
 3926TIP3    H133193   0.918   5.682  13.833  0.3416 -1.7239 -1.1753
 3926TIP3    H233194   0.810   5.704  13.729 -1.0356  1.4515  0.7735
 3927TIP3   OH233195   4.146   2.889  14.608 -0.0096 -0.1188  0.1669
 3927TIP3    H133196   4.150   2.890  14.512  0.0424  0.5301  0.1769
 3927TIP3    H233197   4.147   2.796  14.630  0.3692 -0.2682 -0.4461
 3928TIP3   OH233198   2.419   3.705   0.123 -0.1539 -0.7501 -0.1590
 3928TIP3    H133199   2.469   3.757   0.185 -0.6725 -0.7784  0.2914
 3928TIP3    H233200   2.328   3.716   0.150 -0.3072 -1.5419 -0.3237
 3929TIP3   OH233201   5.498   2.082   2.209 -0.3280 -0.6495 -0.2762
 3929TIP3    H133202   5.403   2.071   2.212 -0.3703 -0.1667  0.4646
 3929TIP3    H233203   5.516   2.154   2.270  0.2372  1.3495 -2.6446
 3930TIP3   OH233204   4.734   3.453  10.731 -0.2189 -0.1679  0.2760
 3930TIP3    H133205   4.699   3.397  10.800  0.3267  0.3325  0.9753
 3930TIP3    H233206   4.658   3.500  10.697 -0.5100 -0.5149  0.4406
 3931TIP3   OH233207   1.568   1.260   2.581  0.2725 -0.6060 -0.0047
 3931TIP3    H133208   1.626   1.325   2.540 -0.5862  0.1729 -0.0174
 3931TIP3    H233209   1.608   1.176   2.560  0.5733 -0.1607 -1.3146
 3932TIP3   OH233210   5.090   4.882  14.117 -0.1838  0.2192  0.4615
 3932TIP3    H133211   5.057   4.889  14.028  1.6172  0.2598 -0.2508
 3932TIP3    H233212   5.156   4.812  14.113 -1.1038 -0.8169  2.1012
 3933TIP3   OH233213   5.209   4.492   1.533 -0.2121 -0.2710  0.0303
 3933TIP3    H133214   5.207   4.458   1.444  0.7541 -1.1642  0.3282
 3933TIP3    H233215   5.296   4.530   1.542 -0.9548  1.5258  0.0066
 3934TIP3   OH233216   5.885   2.003  14.529  0.1554 -0.2797 -0.8197
 3934TIP3    H133217   5.889   2.082  14.476  0.4131 -0.2802 -0.8027
 3934TIP3    H233218   5.977   1.985  14.552 -0.0629  0.9094  1.3580
 3935TIP3   OH233219   3.693   5.293  14.181 -0.0887  0.1274  0.4930
 3935TIP3    H133220   3.740   5.375  14.195  2.1916 -0.3930 -2.9282
 3935TIP3    H233221   3.624   5.315  14.119  1.8211 -0.7022 -2.1267
 3936TIP3   OH233222   5.779   4.348  14.465 -0.4493  0.0571 -0.4246
 3936TIP3    H133223   5.861   4.304  14.487  0.2097  0.6924 -1.5268
 3936TIP3    H233224   5.785   4.365  14.371 -0.8005  2.1876 -0.1287
 3937TIP3   OH233225   3.591   5.982   4.862 -0.3085  0.8600  0.1451
 3937TIP3    H133226   3.662   6.043   4.843  0.4045 -0.1476 -0.5585
 3937TIP3    H233227   3.539   5.980   4.782 -0.6803  1.0117  0.3827
 3938TIP3   OH233228   0.952   3.174  16.132  0.2846  0.2509 -0.4055
 3938TIP3    H133229   1.039   3.134  16.133  0.3651  0.4319 -0.2506
 3938TIP3    H233230   0.893   3.100  16.120  0.4733  0.1503 -0.7616
 3939TIP3   OH233231   0.602   4.308   5.180 -0.2874  0.1979  0.0689
 3939TIP3    H133232   0.599   4.404   5.180 -3.5347  0.2199  0.1207
 3939TIP3    H233233   0.658   4.286   5.254  0.5409  2.0342  0.0603
 3940TIP3   OH233234   3.717   5.829   5.958 -0.3170 -0.2691 -0.7716
 3940TIP3    H133235   3.795   5.882   5.975  0.8497 -2.3327  0.7050
 3940TIP3    H233236   3.686   5.803   6.044 -1.4284 -1.1991 -1.4197
 3941TIP3   OH233237   1.131   3.729  15.281 -0.3729  0.3527 -0.3290
 3941TIP3    H133238   1.068   3.730  15.354 -0.3057  1.4959 -0.2656
 3941TIP3    H233239   1.181   3.809  15.292 -0.2197  0.4387 -1.5182
 3942TIP3   OH233240   5.760   5.418  17.120 -0.2439 -0.6555 -0.5765
 3942TIP3    H133241   5.825   5.373  17.066  0.1804 -2.7829  1.5202
 3942TIP3    H233242   5.676   5.383  17.090 -0.1809 -0.2139 -1.2681
 3943TIP3   OH233243   1.213   1.766   6.385  0.1211  0.3047  0.3741
 3943TIP3    H133244   1.237   1.811   6.466 -0.6089  0.0294  0.7482
 3943TIP3    H233245   1.122   1.790   6.369 -0.1822 -0.7616  0.4006
 3944TIP3   OH233246   1.294   5.471  14.128 -0.0790  0.7215 -0.1746
 3944TIP3    H133247   1.252   5.391  14.097  0.9739  0.5272 -1.2010
 3944TIP3    H233248   1.323   5.451  14.217 -0.6693  0.3001 -0.0763
 3945TIP3   OH233249   6.495   1.976   4.645  0.3741  0.0710  0.2630
 3945TIP3    H133250   6.457   1.996   4.731  0.4696  0.8157  0.1353
 3945TIP3    H233251   6.419   1.964   4.588  0.3027  1.1679  0.0980
 3946TIP3   OH233252   1.238   2.671   5.828 -0.0950 -0.1572 -0.4552
 3946TIP3    H133253   1.275   2.754   5.798  1.2632 -0.0278  1.3933
 3946TIP3    H233254   1.235   2.679   5.923 -1.6697 -1.5480 -0.3427
 3947TIP3   OH233255   5.302   5.503   5.557  0.4794  0.2377 -0.4766
 3947TIP3    H133256   5.219   5.543   5.584 -0.2244  0.1330 -2.3145
 3947TIP3    H233257   5.284   5.409   5.554  1.3042 -0.0056  1.0969
 3948TIP3   OH233258   0.693   3.179   3.344 -0.0742 -0.5873 -0.0624
 3948TIP3    H133259   0.623   3.115   3.346 -2.2117  1.6156  1.2493
 3948TIP3    H233260   0.730   3.172   3.256 -1.7340 -2.0407 -0.6897
 3949TIP3   OH233261   4.452   0.082  16.680  0.4891 -0.2522  0.1629
 3949TIP3    H133262   4.395   0.145  16.636 -0.9773 -0.3314  1.8381
 3949TIP3    H233263   4.489   0.030  16.609  0.7086  1.6189 -1.1584
 3950TIP3   OH233264   5.889   4.748  13.999  0.0330 -0.5563 -0.4086
 3950TIP3    H133265   5.807   4.700  14.011 -0.8870  0.8394 -0.9204
 3950TIP3    H233266   5.943   4.722  14.074  0.4586 -4.0393 -1.7493
 3951TIP3   OH233267   4.022   4.395   0.164  0.1819 -0.3349  0.0145
 3951TIP3    H133268   3.963   4.330   0.125  0.9970  0.3540 -2.5340
 3951TIP3    H233269   3.983   4.414   0.250 -0.9815 -2.9276  0.1583
 3952TIP3   OH233270   1.649   2.792  11.901  0.2968  0.1585 -0.7101
 3952TIP3    H133271   1.620   2.702  11.885 -0.9209  0.7154 -1.8473
 3952TIP3    H233272   1.639   2.836  11.817  0.9865  1.3372 -0.2014
 3953TIP3   OH233273   5.542   3.388  13.611  0.1568  0.7827 -0.4250
 3953TIP3    H133274   5.510   3.339  13.535 -1.1070  1.0133 -0.0554
 3953TIP3    H233275   5.561   3.321  13.676  2.2413  0.4921 -1.2579
 3954TIP3   OH233276   4.335   6.017  14.092  0.3430 -1.0246  0.2097
 3954TIP3    H133277   4.387   6.052  14.019  0.0404  0.3438  0.6168
 3954TIP3    H233278   4.339   6.085  14.159 -0.6962 -1.5716  0.8572
 3955TIP3   OH233279   3.273   1.028   1.131 -0.6464 -0.9878  0.0045
 3955TIP3    H133280   3.202   0.978   1.171 -0.0567 -1.4817  0.4682
 3955TIP3    H233281   3.288   1.100   1.192 -0.4723 -1.1247  0.1255
 3956TIP3   OH233282   2.326   3.667  11.804 -0.2976  0.1798 -0.1711
 3956TIP3    H133283   2.298   3.641  11.892  2.0195 -0.6630  0.3967
 3956TIP3    H233284   2.266   3.737  11.780 -2.5824 -1.2568  1.0160
 3957TIP3   OH233285   0.311   2.924   4.369 -0.1068 -0.7696 -0.0700
 3957TIP3    H133286   0.356   2.931   4.285  1.3594 -0.2164  0.7208
 3957TIP3    H233287   0.245   2.994   4.367 -0.1435 -0.8136 -0.7783
 3958TIP3   OH233288   0.950   0.218   0.787 -0.4445  0.5864 -0.1043
 3958TIP3    H133289   0.979   0.237   0.876  0.6233  0.4758 -0.4218
 3958TIP3    H233290   0.868   0.267   0.778 -1.9943 -1.4726  1.8109
 3959TIP3   OH233291   1.603   4.404   0.881 -0.1726  0.2275  0.6336
 3959TIP3    H133292   1.631   4.463   0.811  0.9098  1.8359  2.3246
 3959TIP3    H233293   1.522   4.443   0.914 -0.8535 -0.7051  0.1337
 3960TIP3   OH233294   2.407   3.791  14.719 -0.6121  0.3280  0.7473
 3960TIP3    H133295   2.446   3.876  14.739  2.2440 -0.7297  0.0577
 3960TIP3    H233296   2.345   3.776  14.790  1.2194  1.5387  2.6940
 3961TIP3   OH233297   3.110   0.543  11.922 -0.3152 -0.1743  0.2288
 3961TIP3    H133298   3.146   0.483  11.988 -2.4937 -0.5594  1.1307
 3961TIP3    H233299   3.017   0.547  11.941 -0.2494  3.8702  0.4883
 3962TIP3   OH233300   0.366   2.568  11.593 -0.4343  0.0627  0.1970
 3962TIP3    H133301   0.293   2.506  11.594 -0.2990 -0.1166 -0.6133
 3962TIP3    H233302   0.358   2.613  11.509 -1.1141  1.8560  1.1684
 3963TIP3   OH233303   3.389   4.392   2.086  0.9605 -0.2647 -0.3101
 3963TIP3    H133304   3.448   4.446   2.033  0.7345  0.3263  0.0380
 3963TIP3    H233305   3.301   4.419   2.060  0.8479 -0.2616  0.0651
 3964TIP3   OH233306   0.976   1.176  14.170  0.3145  0.0043 -0.2095
 3964TIP3    H133307   0.979   1.242  14.239 -3.0899  1.6515 -1.4387
 3964TIP3    H233308   1.036   1.209  14.103  0.4020  0.6279  0.1696
 3965TIP3   OH233309   5.373   4.150  12.082 -0.7280 -0.0367  0.0906
 3965TIP3    H133310   5.330   4.069  12.056 -0.2638  0.1809 -1.4235
 3965TIP3    H233311   5.465   4.138  12.056 -0.7118  1.0815 -0.4027
 3966TIP3   OH233312   6.339   0.340  14.651  0.0114  0.4166  0.0188
 3966TIP3    H133313   6.347   0.435  14.663  1.3661  0.6983 -2.3953
 3966TIP3    H233314   6.428   0.308  14.660 -0.5664 -0.8402  1.7999
 3967TIP3   OH233315   0.779   1.194  16.458 -0.7069 -0.8525 -0.2857
 3967TIP3    H133316   0.833   1.122  16.489  0.4621  1.1362  2.7732
 3967TIP3    H233317   0.694   1.181  16.502  0.0217  0.3827  1.6273
 3968TIP3   OH233318   1.497   1.833   1.596  0.4730  0.2195 -0.2142
 3968TIP3    H133319   1.552   1.877   1.531  0.0636  1.7035  0.4157
 3968TIP3    H233320   1.509   1.883   1.676  0.3971 -1.1472  0.6948
 3969TIP3   OH233321   1.758   5.396   6.903  0.2611 -0.0201  0.3758
 3969TIP3    H133322   1.804   5.478   6.888 -1.0581  0.7673  0.4893
 3969TIP3    H233323   1.666   5.416   6.884  0.1590 -2.0123 -1.7570
 3970TIP3   OH233324   2.089   3.286   1.467 -0.1569  0.0589 -0.1922
 3970TIP3    H133325   2.063   3.248   1.550  3.1379 -1.6735  0.2492
 3970TIP3    H233326   2.139   3.364   1.490  0.8870 -0.5021 -0.4452
 3971TIP3   OH233327   2.067   4.279  11.508  0.1542  0.4482 -0.3496
 3971TIP3    H133328   2.006   4.338  11.463 -0.3741  0.1355 -0.0597
 3971TIP3    H233329   2.153   4.308  11.480 -0.1714 -0.1122 -2.0383
 3972TIP3   OH233330   4.141   5.356  11.585  0.0908 -0.3170 -0.3750
 3972TIP3    H133331   4.143   5.450  11.573  0.8798 -0.3206 -0.3858
 3972TIP3    H233332   4.207   5.339  11.653  0.1507 -0.8785 -0.5635
 3973TIP3   OH233333   0.056   1.455   1.724 -0.0915 -0.6104 -0.4858
 3973TIP3    H133334   0.132   1.483   1.673  0.2216 -1.2507 -0.3795
 3973TIP3    H233335  -0.018   1.470   1.666 -0.1547  2.0917  0.1806
 3974TIP3   OH233336   3.862   5.494  12.528 -0.4897 -0.0498  0.0067
 3974TIP3    H133337   3.837   5.505  12.436 -2.1629 -1.3769  0.2442
 3974TIP3    H233338   3.792   5.536  12.577  0.0442  0.0548  0.6897
 3975TIP3   OH233339   2.023   2.533  10.904  0.0307 -0.0856  0.0335
 3975TIP3    H133340   1.984   2.586  10.973 -0.2239  0.7385 -0.7336
 3975TIP3    H233341   2.117   2.541  10.918  0.0119  0.8736 -0.2715
 3976TIP3   OH233342   6.282   5.542  14.837  0.6237  0.8141  0.2696
 3976TIP3    H133343   6.369   5.515  14.865  1.8271  1.7449 -2.2844
 3976TIP3    H233344   6.234   5.459  14.827  2.2418 -0.0037 -1.3198
 3977TIP3   OH233345   4.015   2.786   0.387  0.5426 -0.3650 -0.0851
 3977TIP3    H133346   4.064   2.825   0.459  2.5521 -1.1954 -0.9228
 3977TIP3    H233347   3.972   2.709   0.426 -0.9358  0.8988  0.8729
 3978TIP3   OH233348   4.102   6.249   3.081 -0.3862  0.1091  0.1059
 3978TIP3    H133349   4.097   6.199   3.000  0.2666 -0.6339  0.5144
 3978TIP3    H233350   4.171   6.206   3.132 -1.3334  0.0663  1.3954
 3979TIP3   OH233351   1.919   1.524   3.200 -0.0063  0.2172  0.2856
 3979TIP3    H133352   1.921   1.596   3.137  0.8292  0.0895  0.1484
 3979TIP3    H233353   2.008   1.522   3.236 -0.0550 -0.6699  0.3782
 3980TIP3   OH233354   0.457   5.208  12.158  0.2989  0.3889  0.2780
 3980TIP3    H133355   0.395   5.197  12.230 -0.9141 -1.0536 -0.9265
 3980TIP3    H233356   0.445   5.299  12.130 -1.7683 -0.0102 -0.3016
 3981TIP3   OH233357   4.954   0.611   3.751 -0.6159  0.5276  0.7985
 3981TIP3    H133358   4.881   0.616   3.812 -1.5094 -1.2730 -0.0394
 3981TIP3    H233359   4.992   0.525   3.766  0.8268  1.1090  0.6381
 3982TIP3   OH233360   5.916   6.391  17.097 -0.1891 -0.5719  0.1516
 3982TIP3    H133361   5.878   6.354  17.017 -1.0286 -1.6433  1.0230
 3982TIP3    H233362   5.858   6.463  17.120 -1.1910 -1.6094  0.9568
 3983TIP3   OH233363   4.494   4.798   0.263 -0.9599 -0.1474 -0.5703
 3983TIP3    H133364   4.480   4.879   0.312  0.3350 -0.2842  0.0627
 3983TIP3    H233365   4.413   4.748   0.276 -1.2258  0.4545  0.1705
 3984TIP3   OH233366   1.441   4.353   1.500 -0.2649  0.0110 -0.0553
 3984TIP3    H133367   1.346   4.344   1.489 -0.3805  0.1078  0.7822
 3984TIP3    H233368   1.462   4.292   1.571  0.4421 -0.6548 -0.8103
 3985TIP3   OH233369   2.258   5.910   5.046 -0.6330 -0.4205 -0.2491
 3985TIP3    H133370   2.257   5.997   5.087  1.6855 -1.3047  1.9063
 3985TIP3    H233371   2.245   5.849   5.118 -0.5515 -1.9343 -1.4699
 3986TIP3   OH233372   3.010   0.012   2.156  0.2515 -0.2089 -0.0390
 3986TIP3    H133373   3.001   0.084   2.092  0.8241 -0.1655 -0.0703
 3986TIP3    H233374   2.925   0.010   2.200  1.0215  2.2037  1.7794
 3987TIP3   OH233375   2.170   0.235  14.445  0.4513 -0.2366  0.0617
 3987TIP3    H133376   2.205   0.195  14.365 -0.4674 -1.5661  0.2915
 3987TIP3    H233377   2.156   0.327  14.421  2.5345 -0.0098 -0.5112
 3988TIP3   OH233378   2.957   6.526  14.790  0.0561 -0.3685 -0.2213
 3988TIP3    H133379   3.050   6.543  14.771 -0.2726  0.7301 -0.9033
 3988TIP3    H233380   2.938   6.445  14.743  0.3654  0.0429 -1.0811
 3989TIP3   OH233381   5.234   6.052   0.209 -0.8059  0.5576 -0.4678
 3989TIP3    H133382   5.149   6.082   0.242 -0.4076  0.0336  1.0928
 3989TIP3    H233383   5.275   6.007   0.283  0.7228  0.5429 -1.2744
 3990TIP3   OH233384   6.243   6.526  12.781  0.0156  0.0296  0.0798
 3990TIP3    H133385   6.294   6.605  12.762  0.0052 -0.0468 -0.2735
 3990TIP3    H233386   6.254   6.472  12.703  2.4080 -1.5961  1.3944
 3991TIP3   OH233387   1.963   4.023   5.926  0.1743 -0.2507 -0.2310
 3991TIP3    H133388   2.011   4.031   6.008  1.7250  1.3375 -1.2223
 3991TIP3    H233389   2.017   3.965   5.872 -0.8272 -1.2771 -0.1545
 3992TIP3   OH233390   6.062   4.385  11.689 -0.0971 -1.2292 -0.5828
 3992TIP3    H133391   6.149   4.410  11.720  0.3478 -2.5183 -0.7282
 3992TIP3    H233392   6.002   4.425  11.751  0.6016 -0.4428 -0.3929
 3993TIP3   OH233393   6.019   2.348  13.844 -0.3316  0.0666 -0.1602
 3993TIP3    H133394   6.081   2.352  13.917 -0.3610 -1.0043 -0.0588
 3993TIP3    H233395   6.062   2.294  13.779 -0.5391  0.5600 -0.7102
 3994TIP3   OH233396   2.858   4.548   4.929 -0.1068 -0.0560  0.4717
 3994TIP3    H133397   2.764   4.536   4.918 -0.1251 -0.3890  0.9569
 3994TIP3    H233398   2.867   4.594   5.013  0.1016  1.1434 -0.1882
 3995TIP3   OH233399   5.382   0.164  12.509 -0.9091  0.0959 -0.4743
 3995TIP3    H133400   5.310   0.167  12.572  1.6894 -1.1681  2.8627
 3995TIP3    H233401   5.434   0.241  12.528  1.2473 -1.5794  0.7959
 3996TIP3   OH233402   6.597   2.459   3.861  0.1459 -0.1208  0.2262
 3996TIP3    H133403   6.623   2.468   3.769 -1.3009  0.1263 -0.1875
 3996TIP3    H233404   6.502   2.446   3.857  0.1218 -0.5202  1.6729
 3997TIP3   OH233405   2.502   5.068  14.661 -0.1083  0.5100  0.2236
 3997TIP3    H133406   2.409   5.084  14.651 -0.0456 -0.4050 -2.7585
 3997TIP3    H233407   2.507   4.984  14.708 -0.9950 -1.3361 -2.7273
 3998TIP3   OH233408   5.183   6.610  12.440 -0.5794 -0.1112 -0.4016
 3998TIP3    H133409   5.116   6.667  12.479  0.6279  1.0565  0.0765
 3998TIP3    H233410   5.197   6.542  12.506  2.1424  2.3796  1.9368
 3999TIP3   OH233411   0.780   1.746  12.536  0.4406  0.6506  0.3762
 3999TIP3    H133412   0.873   1.729  12.552  0.4832  0.0403 -0.4428
 3999TIP3    H233413   0.739   1.659  12.540  0.3064  0.5636 -1.6511
 4000TIP3   OH233414   4.521   2.417  16.125  0.1101 -0.2219 -0.1977
 4000TIP3    H133415   4.450   2.354  16.111 -0.2228 -0.3803  1.9484
 4000TIP3    H233416   4.600   2.364  16.125 -0.0853 -0.5216  0.6808
 4001TIP3   OH233417   3.617   3.717   2.917  0.4557  0.2953  0.3017
 4001TIP3    H133418   3.577   3.644   2.964  1.4393 -1.5426 -1.5187
 4001TIP3    H233419   3.700   3.681   2.884  0.6034  1.9900 -1.3293
 4002TIP3   OH233420   6.158   3.314  13.980  0.1442 -0.3768  0.1918
 4002TIP3    H133421   6.087   3.271  13.931  1.1326  0.8185 -2.5287
 4002TIP3    H233422   6.141   3.407  13.968  1.2731 -0.0718  0.8869
 4003TIP3   OH233423   2.380   3.707   0.686  0.2892  0.3133 -0.1663
 4003TIP3    H133424   2.380   3.649   0.762  1.5077 -0.0333 -0.4171
 4003TIP3    H233425   2.313   3.773   0.706  0.1574 -0.1394  0.9191
 4004TIP3   OH233426   3.456   1.082  12.824  0.5142 -0.1479 -0.6645
 4004TIP3    H133427   3.394   1.010  12.814  0.4750  0.0353 -1.8987
 4004TIP3    H233428   3.445   1.134  12.744  2.2843 -0.1330 -0.9456
 4005TIP3   OH233429   4.959   3.561  11.877  0.1158 -0.1486 -0.1230
 4005TIP3    H133430   4.953   3.465  11.873 -1.0986 -0.1710  1.2708
 4005TIP3    H233431   4.869   3.591  11.864  0.1965  0.7034  1.1404
 4006TIP3   OH233432   2.785   2.711   0.932 -0.4361 -0.4391 -0.0627
 4006TIP3    H133433   2.765   2.657   0.855  1.4418 -0.4085 -0.6115
 4006TIP3    H233434   2.751   2.660   1.006 -0.0523 -1.6567 -0.6954
 4007TIP3   OH233435   0.762   0.734   1.528  0.5928 -0.2294 -0.3943
 4007TIP3    H133436   0.753   0.641   1.548  0.8215 -0.3169 -0.6858
 4007TIP3    H233437   0.854   0.745   1.506  0.2228 -0.3104 -2.1422
 4008TIP3   OH233438   0.147   2.044   6.215 -0.1778 -0.3428 -0.1620
 4008TIP3    H133439   0.159   1.965   6.267 -0.0861 -1.1482 -1.3537
 4008TIP3    H233440   0.212   2.105   6.248  1.8666 -1.8330 -1.2210
 4009TIP3   OH233441   3.037   1.425   0.560 -0.5317  0.5145  0.0335
 4009TIP3    H133442   3.030   1.360   0.489  0.0105  2.8577 -2.3124
 4009TIP3    H233443   3.117   1.474   0.540  0.5922  0.2403  3.2841
 4010TIP3   OH233444   0.072   1.271  17.006 -0.4650 -0.2689 -0.1362
 4010TIP3    H133445   0.127   1.348  16.996 -0.0166 -0.7070 -1.2455
 4010TIP3    H233446   0.008   1.279  16.934 -2.5751  0.7834  1.7296
 4011TIP3   OH233447   2.455   2.377  13.164 -0.1154  0.3994 -0.5571
 4011TIP3    H133448   2.400   2.448  13.198  1.5041  0.8855  1.2208
 4011TIP3    H233449   2.493   2.337  13.242  1.8333 -0.0655 -1.6769
 4012TIP3   OH233450   3.593   1.523  16.745  0.4445 -0.5811 -0.0167
 4012TIP3    H133451   3.647   1.579  16.689  1.8814 -1.5192  0.3732
 4012TIP3    H233452   3.529   1.483  16.685 -0.3519  1.1140 -0.3643
 4013TIP3   OH233453   1.499   3.090  12.801 -0.1380 -0.3373  0.0024
 4013TIP3    H133454   1.454   3.109  12.719  0.0748  0.1455 -0.0076
 4013TIP3    H233455   1.526   3.176  12.834 -0.5507 -0.4906  0.7683
 4014TIP3   OH233456   3.003   3.647   5.740  0.1339 -0.1999  0.2292
 4014TIP3    H133457   2.959   3.617   5.660  0.9919 -1.6250  0.2582
 4014TIP3    H233458   3.095   3.653   5.715  0.1111  1.8871  0.4193
 4015TIP3   OH233459   6.438   1.070   5.802  0.2113 -0.1005  0.2382
 4015TIP3    H133460   6.507   1.006   5.819  2.5286  2.0757 -0.3818
 4015TIP3    H233461   6.426   1.115   5.886 -1.9202 -1.6646  0.8722
 4016TIP3   OH233462   5.372   2.604   2.541  0.9012  1.0021 -0.0476
 4016TIP3    H133463   5.302   2.600   2.606 -0.0971 -1.1326 -1.1438
 4016TIP3    H233464   5.339   2.554   2.466  4.0334 -1.3229 -0.1206
 4017TIP3   OH233465   4.327   3.701   4.468 -0.5778 -0.0749 -0.1396
 4017TIP3    H133466   4.310   3.788   4.432  2.3708  0.6819 -0.0086
 4017TIP3    H233467   4.344   3.717   4.561  0.4457 -0.6933 -0.2063
 4018TIP3   OH233468   5.200   4.977   0.788 -0.1045  0.3206 -0.3373
 4018TIP3    H133469   5.116   4.936   0.806  0.0352 -1.0798 -2.4580
 4018TIP3    H233470   5.254   4.954   0.864 -0.6079 -1.8917 -0.5692
 4019TIP3   OH233471   4.086   6.573  10.863 -0.1644  0.3797 -0.2125
 4019TIP3    H133472   4.049   6.647  10.815 -2.2462 -0.3193  0.2074
 4019TIP3    H233473   4.020   6.504  10.856  1.3483 -1.1693  0.1214
 4020TIP3   OH233474   1.370   5.600  11.599  0.3129  0.5100 -0.3741
 4020TIP3    H133475   1.422   5.525  11.630  0.5622  0.0271 -1.8661
 4020TIP3    H233476   1.288   5.561  11.569 -0.4187  1.1160  0.7755
 4021TIP3   OH233477   5.494   1.652   0.472 -0.1128  0.6943  0.1696
 4021TIP3    H133478   5.501   1.734   0.521  0.8148  1.3475 -1.0070
 4021TIP3    H233479   5.532   1.672   0.386  0.2617 -1.0092 -0.0895
 4022TIP3   OH233480   6.009   0.879  10.347 -0.5085  0.4164 -0.5478
 4022TIP3    H133481   5.977   0.936  10.277  0.0012  2.6894  0.9715
 4022TIP3    H233482   5.931   0.832  10.378 -1.2008  1.2609 -0.9795
 4023TIP3   OH233483   0.900   5.170   5.011 -0.0173  0.2094 -0.0843
 4023TIP3    H133484   0.939   5.257   5.004  0.3309  0.0395 -0.2374
 4023TIP3    H233485   0.963   5.111   4.971 -0.7061  0.0036 -0.8987
 4024TIP3   OH233486   6.099   5.212  14.215 -0.2002  0.2621 -0.6775
 4024TIP3    H133487   6.011   5.185  14.244  0.0587  0.6596  0.5324
 4024TIP3    H233488   6.100   5.191  14.122 -0.7127 -2.0614 -0.2417
 4025TIP3   OH233489   6.235   4.190   3.513 -0.1341  0.3916 -0.3575
 4025TIP3    H133490   6.310   4.209   3.457 -0.6585  1.0714 -0.8464
 4025TIP3    H233491   6.159   4.209   3.458 -0.6762 -0.5342  0.0424
 4026TIP3   OH233492   6.580   6.252  16.314 -1.2352  0.3781 -0.1989
 4026TIP3    H133493   6.617   6.173  16.352 -0.9354  0.3885 -0.4648
 4026TIP3    H233494   6.656   6.307  16.295 -1.2537 -0.1714 -2.0586
 4027TIP3   OH233495   1.758   6.743   0.164 -0.0847 -0.3349 -0.0542
 4027TIP3    H133496   1.797   6.786   0.088 -1.1250  0.1483 -0.3246
 4027TIP3    H233497   1.778   6.802   0.237 -1.2046  0.4625 -0.3673
 4028TIP3   OH233498   6.476   5.604   0.021 -0.1400  0.1879 -0.3435
 4028TIP3    H133499   6.546   5.560   0.069  0.2251  1.5401  0.4231
 4028TIP3    H233500   6.511   5.615  -0.067 -1.4545 -3.8200 -1.5745
 4029TIP3   OH233501   0.092   2.922  12.426 -0.2625 -0.4631  0.2078
 4029TIP3    H133502   0.042   2.908  12.346  0.0764 -5.2809  0.5686
 4029TIP3    H233503   0.180   2.943  12.397 -0.3410 -1.3088 -0.6818
 4030TIP3   OH233504   4.520   3.196  14.271  0.5183  0.6977  0.3105
 4030TIP3    H133505   4.603   3.234  14.301  0.4341  1.9321 -0.9314
 4030TIP3    H233506   4.545   3.110  14.236  1.0445  0.4619  1.2436
 4031TIP3   OH233507   3.845   4.186   4.601 -0.0499  0.0291 -0.5937
 4031TIP3    H133508   3.776   4.148   4.546  1.2003 -0.0370 -2.1809
 4031TIP3    H233509   3.901   4.233   4.539  0.9820  0.6090  0.7532
 4032TIP3   OH233510   3.675   1.482  14.089  0.2832  0.3969  0.0186
 4032TIP3    H133511   3.585   1.460  14.111 -0.4787  2.1018 -1.1427
 4032TIP3    H233512   3.688   1.446  14.001 -0.3556  2.7053 -1.1106
 4033TIP3   OH233513   3.522   0.518   3.563 -0.5561  0.8600  0.9221
 4033TIP3    H133514   3.470   0.512   3.484 -0.5540 -1.4970  1.0310
 4033TIP3    H233515   3.596   0.574   3.539 -1.0032  0.8840 -0.4672
 4034TIP3   OH233516   3.985   6.287  17.143  0.0513 -0.2959  0.5129
 4034TIP3    H133517   4.005   6.199  17.111  0.6384 -0.6523  1.7863
 4034TIP3    H233518   4.032   6.293  17.227 -1.3393  0.6225  1.2652
 4035TIP3   OH233519   0.592   0.461   0.641  0.2813  0.0119  0.0244
 4035TIP3    H133520   0.595   0.405   0.564 -0.4562 -2.7227  1.8413
 4035TIP3    H233521   0.508   0.508   0.633 -0.7877 -1.7860  0.0859
 4036TIP3   OH233522   6.411   0.105   4.859  0.1234 -0.4087  0.7736
 4036TIP3    H133523   6.456   0.092   4.943 -0.4056  0.3022  1.1822
 4036TIP3    H233524   6.376   0.194   4.864  0.9763  0.0363 -0.6327
 4037TIP3   OH233525   4.271   4.800  16.908  0.2350  0.7150  0.0887
 4037TIP3    H133526   4.339   4.867  16.897  0.5948  0.4803  0.7982
 4037TIP3    H233527   4.310   4.720  16.873 -0.5100  1.0311 -1.5507
 4038TIP3   OH233528   0.999   1.646   1.959  0.2051  0.3293 -0.1358
 4038TIP3    H133529   0.981   1.739   1.945  1.6797  0.7008  0.2639
 4038TIP3    H233530   0.918   1.612   1.997 -1.0776  0.9841 -2.0890
 4039TIP3   OH233531   6.322   0.972  16.347  0.2025 -0.4345 -0.5782
 4039TIP3    H133532   6.374   0.919  16.287 -1.0583 -3.6515  0.9401
 4039TIP3    H233533   6.245   0.997  16.296 -0.2155 -1.9910 -0.7803
 4040TIP3   OH233534   2.942   3.500  16.506 -0.0592  0.5070  0.0122
 4040TIP3    H133535   2.933   3.529  16.596 -1.9519 -1.0801  0.4020
 4040TIP3    H233536   2.860   3.453  16.488 -0.8968  2.8565 -3.3312
 4041TIP3   OH233537   2.107   0.926   5.438  0.5396  0.0494 -0.0280
 4041TIP3    H133538   2.139   0.836   5.436 -0.9802 -0.4927 -1.0763
 4041TIP3    H233539   2.051   0.930   5.516  2.0033  0.6218  1.0373
 4042TIP3   OH233540   3.136   2.191  15.681  0.0895 -0.0684  0.4134
 4042TIP3    H133541   3.115   2.185  15.774 -1.6981 -1.5154 -0.0100
 4042TIP3    H233542   3.161   2.282  15.667  1.1266 -0.0041  2.4289
 4043TIP3   OH233543   0.777   3.548   1.506  0.1375  0.0810 -0.6984
 4043TIP3    H133544   0.827   3.597   1.441  4.5310 -2.7855  0.0649
 4043TIP3    H233545   0.817   3.571   1.589 -0.4855 -1.6036  0.1109
 4044TIP3   OH233546   3.022   1.538  15.115 -0.4534  0.3037  0.5688
 4044TIP3    H133547   3.100   1.571  15.070 -0.3437  0.7196  1.0570
 4044TIP3    H233548   2.949   1.572  15.064 -0.3212 -0.7592 -0.3687
 4045TIP3   OH233549   2.793   6.333   3.457 -0.4516 -0.1588  0.1197
 4045TIP3    H133550   2.729   6.332   3.386 -0.6219  1.6614  0.2104
 4045TIP3    H233551   2.742   6.356   3.535  0.1588  0.4157  0.3572
 4046TIP3   OH233552   5.957   4.815  15.681 -0.0432  0.2886 -0.1909
 4046TIP3    H133553   5.875   4.802  15.634 -0.5741  1.0348  0.5048
 4046TIP3    H233554   5.941   4.890  15.738  0.9373  0.0889  0.3758
 4047TIP3   OH233555   2.377   1.122  16.445  0.4053 -0.2990 -0.2570
 4047TIP3    H133556   2.439   1.126  16.517  0.6309 -0.2519 -0.4517
 4047TIP3    H233557   2.366   1.214  16.419  0.6795 -0.3541 -0.5786
 4048TIP3   OH233558   5.745   4.287  13.472 -0.4989  0.6697  0.5143
 4048TIP3    H133559   5.838   4.302  13.458 -0.6824  0.9963 -0.4099
 4048TIP3    H233560   5.717   4.359  13.529 -0.3713  1.1046  0.0367
 4049TIP3   OH233561   4.484   0.393  12.661 -0.0908  0.1118  0.2517
 4049TIP3    H133562   4.403   0.351  12.688 -1.4299  0.7114 -2.5193
 4049TIP3    H233563   4.478   0.400  12.566  1.4227  3.7018  0.2417
 4050TIP3   OH233564   4.745   0.228   0.421 -0.1844  0.1213  0.2275
 4050TIP3    H133565   4.817   0.266   0.369 -0.5992  0.5125 -0.0666
 4050TIP3    H233566   4.674   0.217   0.358 -0.6371  0.4444  0.6839
 4051TIP3   OH233567   1.985   0.851  14.259  0.2767 -0.0347  0.2469
 4051TIP3    H133568   1.950   0.773  14.216 -0.1312  0.2709  0.0197
 4051TIP3    H233569   2.075   0.858  14.226 -0.5382  1.1424 -1.8939
 4052TIP3   OH233570   1.902   5.123  11.855 -0.0823 -0.4371  0.6470
 4052TIP3    H133571   1.836   5.117  11.786  0.5592 -2.2657  0.1295
 4052TIP3    H233572   1.986   5.119  11.809  0.4316  1.4479  1.3295
 4053TIP3   OH233573   4.082   6.142  11.509  0.1152 -0.5135  0.0382
 4053TIP3    H133574   4.160   6.178  11.466 -1.1277 -1.4995 -3.2747
 4053TIP3    H233575   4.082   6.049  11.487 -1.3447 -0.8029  1.0930
 4054TIP3   OH233576   3.665   6.671  12.954  0.3122  0.0080 -0.5100
 4054TIP3    H133577   3.663   6.752  13.004 -0.9130 -0.7846  0.7926
 4054TIP3    H233578   3.755   6.640  12.962 -0.2301 -1.0048  2.7965
 4055TIP3   OH233579   4.680   6.095  11.517 -0.0678 -0.5501  0.5843
 4055TIP3    H133580   4.585   6.092  11.529 -0.2369 -0.4168 -0.6637
 4055TIP3    H233581   4.696   6.049  11.435  0.8671  0.0712  0.3986
 4056TIP3   OH233582   3.946   6.046  12.045 -0.7025 -0.9380 -0.1402
 4056TIP3    H133583   3.987   6.011  11.966  1.5446  0.8007  0.1757
 4056TIP3    H233584   4.019   6.065  12.104 -2.2250 -0.7909  1.7866
 4057TIP3   OH233585   0.730   2.288  13.662 -0.2142  0.1447 -0.0861
 4057TIP3    H133586   0.671   2.363  13.673 -0.3579 -0.0882  0.7380
 4057TIP3    H233587   0.671   2.212  13.657  0.0372 -0.2136  1.8122
 4058TIP3   OH233588   3.882   3.081   3.807 -0.1464  0.4075 -0.1029
 4058TIP3    H133589   3.831   3.127   3.874 -0.4330 -0.0132 -0.0232
 4058TIP3    H233590   3.944   3.028   3.857  1.4767  2.1188 -0.2199
 4059TIP3   OH233591   4.187   4.183  16.049  0.1511 -0.1161  0.1726
 4059TIP3    H133592   4.243   4.217  15.980 -0.5071  0.7483  0.0429
 4059TIP3    H233593   4.219   4.226  16.129  1.1538 -1.3973  0.4945
 4060TIP3   OH233594   6.329   2.818  15.454 -0.2799 -0.2075 -1.3492
 4060TIP3    H133595   6.288   2.742  15.496 -0.6981  0.7804  0.0909
 4060TIP3    H233596   6.335   2.793  15.362 -1.6097 -1.4688 -1.1414
 4061TIP3   OH233597   5.352   2.129  14.574  0.7667 -0.0814  0.2065
 4061TIP3    H133598   5.340   2.224  14.578 -0.4558 -0.2622  1.9777
 4061TIP3    H233599   5.263   2.093  14.571  1.1411 -1.2028  1.3470
 4062TIP3   OH233600   6.566   6.599   5.258  0.2167 -0.0844 -0.2252
 4062TIP3    H133601   6.571   6.576   5.350 -0.2405  0.3298 -0.0887
 4062TIP3    H233602   6.594   6.520   5.211 -0.9921 -0.8160  0.2327
 4063TIP3   OH233603   1.625   0.585  14.337 -0.2257 -0.2782  0.1598
 4063TIP3    H133604   1.600   0.495  14.357  0.4371 -0.7537 -1.0637
 4063TIP3    H233605   1.712   0.578  14.299 -0.6799  0.7400 -1.1401
 4064TIP3   OH233606   1.898   2.964  11.740 -0.6542  0.1722  0.8890
 4064TIP3    H133607   1.932   2.883  11.778 -1.4294 -0.4615  0.2766
 4064TIP3    H233608   1.967   2.994  11.680 -0.8079 -0.6320  0.3006
 4065TIP3   OH233609   3.270   5.121  12.517  0.0350 -0.2349 -0.3939
 4065TIP3    H133610   3.302   5.173  12.443 -0.1322 -0.2436 -0.4727
 4065TIP3    H233611   3.319   5.154  12.593  1.0164 -0.9894 -0.6893
 4066TIP3   OH233612   0.861   3.921  11.907  0.2590  0.2152  0.2854
 4066TIP3    H133613   0.928   3.863  11.943  2.3710  2.8625  0.9252
 4066TIP3    H233614   0.878   3.921  11.813 -0.1875 -0.6447  0.1890
 4067TIP3   OH233615   3.839   4.842  10.511 -0.6790 -0.0935  0.7737
 4067TIP3    H133616   3.928   4.868  10.485 -0.6210 -0.3705  0.6932
 4067TIP3    H233617   3.851   4.758  10.554 -1.0427 -0.7486 -0.3582
 4068TIP3   OH233618   5.697   1.083   1.653  0.0755  0.0471  0.3869
 4068TIP3    H133619   5.698   0.987   1.661  1.4791 -0.0378 -0.4284
 4068TIP3    H233620   5.683   1.098   1.559 -0.8355  0.6686  0.6142
 4069TIP3   OH233621   6.724   0.005   2.856  0.3652  0.1351  0.1088
 4069TIP3    H133622   6.712   0.024   2.949 -0.7465 -0.7694  0.1713
 4069TIP3    H233623   6.751  -0.087   2.854  2.0168  0.5969 -0.3906
 4070TIP3   OH233624   0.661   1.507  12.176  0.1540 -0.2407  0.9502
 4070TIP3    H133625   0.621   1.538  12.258 -2.5384 -0.1678 -0.2800
 4070TIP3    H233626   0.589   1.507  12.113  1.5940 -2.5327 -0.8610
 4071TIP3   OH233627   3.112   1.686   1.039  0.2173 -0.5852 -0.5145
 4071TIP3    H133628   3.069   1.698   1.124 -1.8000 -0.4808 -1.4990
 4071TIP3    H233629   3.068   1.610   1.001  1.2634 -0.7739 -1.3924
 4072TIP3   OH233630   2.570   5.848  16.525  0.5436  0.2244  0.0007
 4072TIP3    H133631   2.520   5.857  16.605 -0.2369  0.4776 -0.5052
 4072TIP3    H233632   2.660   5.869  16.550  0.2604  0.5546  0.7501
 4073TIP3   OH233633   5.387   3.603  13.392 -0.2244 -0.2616  0.7037
 4073TIP3    H133634   5.331   3.657  13.336  0.6679 -2.2402 -2.3352
 4073TIP3    H233635   5.422   3.664  13.457 -0.2741  2.5376 -1.7130
 4074TIP3   OH233636   2.890   3.917  12.601 -0.0337 -0.4309  0.3849
 4074TIP3    H133637   2.944   3.976  12.549 -1.1503 -1.1283 -1.6424
 4074TIP3    H233638   2.870   3.967  12.680  3.3458 -0.0709  1.1684
 4075TIP3   OH233639   0.613   5.109  14.369 -0.1971  0.3121 -0.3817
 4075TIP3    H133640   0.549   5.172  14.401 -0.7036 -0.3813  0.0081
 4075TIP3    H233641   0.613   5.121  14.274 -0.2758  0.8986 -0.3119
 4076TIP3   OH233642   5.322   2.366  15.922  0.1352  0.0421 -0.0841
 4076TIP3    H133643   5.244   2.314  15.905  1.3773 -2.3851  1.1128
 4076TIP3    H233644   5.292   2.437  15.979 -0.6909 -3.1741  3.9309
 4077TIP3   OH233645   0.278   3.875  11.419  0.2493 -0.1272  0.2014
 4077TIP3    H133646   0.336   3.903  11.490 -0.4884 -0.4771  0.9729
 4077TIP3    H233647   0.299   3.933  11.346 -0.1699  1.4268  1.2553
 4078TIP3   OH233648   6.785   6.709  12.826 -0.4766  0.1897 -0.2220
 4078TIP3    H133649   6.759   6.655  12.752 -3.5153 -1.8500  2.0913
 4078TIP3    H233650   6.881   6.702  12.829 -0.5078 -2.2960 -2.0461
 4079TIP3   OH233651   3.347   4.969   4.067 -0.0081 -0.3139  0.5403
 4079TIP3    H133652   3.331   4.912   4.142 -1.1664 -0.2336  0.3704
 4079TIP3    H233653   3.361   5.056   4.105  3.2598 -0.8599  0.9263
 4080TIP3   OH233654   4.214   5.739  13.848 -1.1535  0.6178  0.0262
 4080TIP3    H133655   4.305   5.724  13.874 -0.8364  0.0391 -1.3305
 4080TIP3    H233656   4.188   5.818  13.895 -1.2185 -1.2378  3.4699
 4081TIP3   OH233657   2.540   5.747  11.679  0.0331 -0.2611 -0.2136
 4081TIP3    H133658   2.494   5.687  11.620 -0.8575  1.3042 -1.2094
 4081TIP3    H233659   2.473   5.775  11.742  0.2617  0.1381 -0.1408
 4082TIP3   OH233660   0.082   1.403   0.171 -0.1356  0.3272 -0.1089
 4082TIP3    H133661   0.137   1.474   0.203 -0.3836  0.4164  0.1191
 4082TIP3    H233662   0.055   1.355   0.249 -0.1972  0.1469 -0.2387
 4083TIP3   OH233663   2.763   3.747  13.263  0.3128 -0.4346  0.0910
 4083TIP3    H133664   2.819   3.670  13.272  0.6895  0.0264  2.3558
 4083TIP3    H233665   2.689   3.730  13.321  0.4255  0.8963  0.6634
 4084TIP3   OH233666   2.807   0.013  12.614 -0.1940 -0.2979 -0.3942
 4084TIP3    H133667   2.842   0.029  12.526  0.2304  3.3137  0.2958
 4084TIP3    H233668   2.883  -0.014  12.665 -0.2392 -1.3407 -0.8428
 4085TIP3   OH233669   0.636   3.902   5.867 -0.1119  0.4188  0.5185
 4085TIP3    H133670   0.647   3.826   5.809 -1.8994  0.8060 -0.4016
 4085TIP3    H233671   0.625   3.864   5.954 -1.0807 -0.4062  0.0543
 4086TIP3   OH233672   4.319   5.905  17.201  0.0436  0.1506  0.5861
 4086TIP3    H133673   4.372   5.878  17.126 -1.0419 -0.3508 -0.0085
 4086TIP3    H233674   4.275   5.984  17.173 -1.0719 -0.5351  0.3489
 4087TIP3   OH233675   3.331   1.839   1.575  0.4524  0.0448 -0.2960
 4087TIP3    H133676   3.410   1.856   1.524  0.1517 -0.7025 -1.0253
 4087TIP3    H233677   3.278   1.919   1.564 -0.8420 -1.0874 -3.4950
 4088TIP3   OH233678   5.900   3.387   0.573  0.2757 -0.0026  0.0866
 4088TIP3    H133679   5.851   3.459   0.612  0.3166  0.3706 -0.5349
 4088TIP3    H233680   5.860   3.308   0.610 -1.6225  0.2343 -1.2876
 4089TIP3   OH233681   5.743   6.404   3.380  0.3805 -0.3574  0.0212
 4089TIP3    H133682   5.827   6.403   3.427  0.4447  0.3320 -0.0654
 4089TIP3    H233683   5.679   6.427   3.448  0.3077 -0.5731  0.0236
 4090TIP3   OH233684   3.207   3.237  10.676  0.0140  0.0621 -0.0062
 4090TIP3    H133685   3.282   3.249  10.618  1.9537 -0.6066  2.1658
 4090TIP3    H233686   3.192   3.143  10.677 -0.6997  0.1713 -0.2376
 4091TIP3   OH233687   1.845   5.933   4.792  0.4771 -0.0216 -0.0033
 4091TIP3    H133688   1.909   5.992   4.752  1.2120 -0.2282  0.8191
 4091TIP3    H233689   1.898   5.874   4.847 -0.1892 -1.6682 -1.0512
 4092TIP3   OH233690   0.032   4.669  14.108 -0.0830  0.0199  0.2359
 4092TIP3    H133691   0.067   4.624  14.185 -0.5616 -0.4547  0.1857
 4092TIP3    H233692   0.068   4.757  14.113  1.6271 -0.6127 -0.1515
 4093TIP3   OH233693   4.586   6.261  12.419  0.0337 -0.1098 -0.1363
 4093TIP3    H133694   4.600   6.355  12.403 -0.8117 -0.0247 -0.4158
 4093TIP3    H233695   4.504   6.257  12.468  0.7750 -0.6235  1.1005
 4094TIP3   OH233696   2.934   4.543  11.885 -0.4895 -0.0462  0.0201
 4094TIP3    H133697   3.026   4.549  11.858 -0.5819  1.2105 -0.0795
 4094TIP3    H233698   2.939   4.532  11.980 -0.2068 -2.8666 -0.2332
 4095TIP3   OH233699   0.606   4.877  16.419 -0.0951 -0.5358  0.3955
 4095TIP3    H133700   0.524   4.897  16.464  0.8310 -0.0706  1.9806
 4095TIP3    H233701   0.609   4.939  16.346 -0.6596  0.1880  0.9667
 4096TIP3   OH233702   6.531   1.059   2.970  0.0240 -0.0468 -0.4667
 4096TIP3    H133703   6.471   1.102   3.032  1.5293 -0.1468  1.1203
 4096TIP3    H233704   6.486   0.977   2.947 -0.9056  0.3427 -0.0961
 4097TIP3   OH233705   3.952   6.731  11.675  0.0053 -0.2517 -0.3329
 4097TIP3    H133706   3.958   6.764  11.765  1.1394  1.4975 -0.9876
 4097TIP3    H233707   3.859   6.716  11.661 -0.6742  2.7880  0.0862
 4098TIP3   OH233708   6.548   6.677   3.424 -0.0282  0.0822 -0.4067
 4098TIP3    H133709   6.492   6.694   3.499 -1.5906  1.1870 -1.7512
 4098TIP3    H233710   6.539   6.583   3.408 -1.8724  0.3006 -0.8341
 4099TIP3   OH233711   6.762   0.233   1.287 -0.1932 -0.5762 -0.9040
 4099TIP3    H133712   6.819   0.298   1.246  0.4100  0.3378  1.2462
 4099TIP3    H233713   6.720   0.188   1.214  2.6482 -0.7363 -2.5634
 4100TIP3   OH233714   6.166   4.447  12.981 -0.7354  0.2293  0.6385
 4100TIP3    H133715   6.095   4.503  12.948 -0.3727  0.3552  0.0546
 4100TIP3    H233716   6.176   4.380  12.914 -1.0182 -0.4163  1.2327
 4101TIP3   OH233717   5.138   5.732   5.311  0.1627  0.4893  0.4254
 4101TIP3    H133718   5.110   5.784   5.386 -0.0582 -0.2214  0.8470
 4101TIP3    H233719   5.229   5.710   5.330  0.4754  1.2720 -0.0800
 4102TIP3   OH233720   2.790   5.372  16.726  0.7466 -0.3397  0.0150
 4102TIP3    H133721   2.858   5.411  16.781  1.4676 -0.7648 -0.5625
 4102TIP3    H233722   2.837   5.319  16.662 -0.1955 -2.7280  1.1590
 4103TIP3   OH233723   5.617   3.858  16.318 -0.0276  0.0356 -0.0808
 4103TIP3    H133724   5.684   3.894  16.261  1.0509  0.0486  1.1542
 4103TIP3    H233725   5.598   3.772  16.281  1.6533 -0.5256  0.2917
 4104TIP3   OH233726   3.905   5.920  15.541  0.1385 -0.4813  0.1968
 4104TIP3    H133727   3.979   5.953  15.490  0.8420  0.8532  1.9892
 4104TIP3    H233728   3.936   5.838  15.579  1.0138  0.4309  1.5277
 4105TIP3   OH233729   5.514   3.500  13.088 -0.0739  0.3948 -0.3386
 4105TIP3    H133730   5.465   3.528  13.165  0.3522  1.8869 -0.5794
 4105TIP3    H233731   5.464   3.426  13.053  0.3157 -1.0862  1.9889
 4106TIP3   OH233732   1.718   1.980  14.544 -0.2320  0.3676 -0.3644
 4106TIP3    H133733   1.674   2.002  14.461  0.7070  0.8493 -0.7522
 4106TIP3    H233734   1.740   1.887  14.535 -1.0051  0.1657 -0.2366
 4107TIP3   OH233735   6.528   4.804  11.558 -0.0337  0.8164 -0.4952
 4107TIP3    H133736   6.588   4.735  11.529 -1.4559 -0.5152 -0.3950
 4107TIP3    H233737   6.510   4.855  11.480  1.8988  1.8266 -0.3549
 4108TIP3   OH233738   6.304   3.469  12.895 -0.1260  0.2817 -0.1830
 4108TIP3    H133739   6.399   3.484  12.902  0.0469 -0.7931  0.0117
 4108TIP3    H233740   6.284   3.487  12.803  0.1197  1.2406 -0.0589
 4109TIP3   OH233741   5.451   2.275  11.900  0.6244 -0.1642 -0.5645
 4109TIP3    H133742   5.422   2.324  11.823  3.1088 -0.1079 -1.5694
 4109TIP3    H233743   5.514   2.333  11.943 -0.7491 -0.1608  1.6301
 4110TIP3   OH233744   6.090   2.200  14.584 -0.7398  0.1476 -0.3060
 4110TIP3    H133745   6.140   2.232  14.658  0.3673  1.6045 -1.6316
 4110TIP3    H233746   6.143   2.129  14.548  0.2215  1.3787 -1.4239
 4111TIP3   OH233747   0.663   6.308  11.558  0.1367  0.9306 -0.3062
 4111TIP3    H133748   0.609   6.308  11.637  1.2639 -1.0205  0.5409
 4111TIP3    H233749   0.600   6.316  11.486 -0.9322  2.5664  0.7572
 4112TIP3   OH233750   5.889   5.022   2.349 -0.9326  0.2399 -0.2605
 4112TIP3    H133751   5.809   4.985   2.388 -0.4445 -0.7099 -0.1271
 4112TIP3    H233752   5.890   5.112   2.379 -1.5789  0.0630  0.3436
 4113TIP3   OH233753   0.104   6.488   6.145  0.3975  0.0784 -0.4501
 4113TIP3    H133754   0.115   6.393   6.137  0.0077  0.1627 -2.7104
 4113TIP3    H233755   0.009   6.501   6.144  0.4507  0.5673 -2.1656
 4114TIP3   OH233756   1.467   2.919   5.478  0.0448  0.3706  0.0694
 4114TIP3    H133757   1.536   2.922   5.411 -1.4848  2.1658 -1.5489
 4114TIP3    H233758   1.391   2.886   5.431 -1.0398  1.5908  0.9196
 4115TIP3   OH233759   5.880   0.654   6.032 -0.0696 -0.1998 -0.0633
 4115TIP3    H133760   5.912   0.667   5.943 -0.9347  2.0396 -0.1012
 4115TIP3    H233761   5.850   0.740   6.061  3.5132  0.0905  3.7615
 4116TIP3   OH233762   5.705   2.380   5.641  0.1359  0.3821  0.2733
 4116TIP3    H133763   5.678   2.321   5.712  0.3604  1.7375  1.5525
 4116TIP3    H233764   5.788   2.343   5.610  1.5462  1.2313  2.6977
 4117TIP3   OH233765   0.624   6.260   5.575  0.6034 -0.2212 -0.3212
 4117TIP3    H133766   0.665   6.193   5.520 -0.6028  0.6031 -2.3307
 4117TIP3    H233767   0.698   6.308   5.613  1.4732 -1.4193 -0.4569
 4118TIP3   OH233768   3.698   4.421  15.152 -0.4216 -0.5731 -0.4812
 4118TIP3    H133769   3.623   4.482  15.155  0.2016  0.3954 -2.5851
 4118TIP3    H233770   3.662   4.341  15.115 -0.7667 -0.6987  0.1156
 4119TIP3   OH233771   6.096   6.464  15.046 -0.2038 -0.2050  0.2237
 4119TIP3    H133772   6.046   6.464  15.127 -0.2609 -1.4258  0.2073
 4119TIP3    H233773   6.048   6.523  14.988  0.3876  1.4836  1.3692
 4120TIP3   OH233774   2.580   4.311  12.421 -0.2762 -0.5787  0.3257
 4120TIP3    H133775   2.629   4.390  12.399 -0.4155  0.3652  3.0619
 4120TIP3    H233776   2.647   4.242  12.425  0.1543 -0.1995 -0.1601
 4121TIP3   OH233777   2.243   0.130   5.389 -0.1385  0.2913  0.0229
 4121TIP3    H133778   2.209   0.094   5.471 -4.5311  2.0201 -0.7741
 4121TIP3    H233779   2.215   0.222   5.389  1.1711  0.7956 -2.7046
 4122TIP3   OH233780   4.121   2.817   3.034  1.0302  0.0197  0.2689
 4122TIP3    H133781   4.028   2.830   3.014  0.8940  0.2035  0.9846
 4122TIP3    H233782   4.137   2.724   3.017  0.4994 -0.2078  0.9777
 4123TIP3   OH233783   3.715   5.092  15.482 -0.4914  0.4805  0.1885
 4123TIP3    H133784   3.737   5.184  15.467  0.0774  0.3666  0.2816
 4123TIP3    H233785   3.736   5.078  15.574 -0.0126  0.1045  0.0238
 4124TIP3   OH233786   5.096   4.208  14.232  0.2483  0.2900 -0.1819
 4124TIP3    H133787   5.165   4.147  14.257 -0.5392 -0.3396  0.4858
 4124TIP3    H233788   5.138   4.267  14.169  0.7872 -1.4554 -1.5146
 4125TIP3   OH233789   2.388   5.697  11.906  0.3532  0.1570 -0.1797
 4125TIP3    H133790   2.339   5.777  11.921 -2.0469 -1.2579  0.0632
 4125TIP3    H233791   2.480   5.722  11.917 -0.3054  2.8478 -0.2059
 4126TIP3   OH233792   5.227   4.331   2.893  0.2389 -0.5859  0.4109
 4126TIP3    H133793   5.306   4.382   2.909 -0.5437  0.3083  1.5568
 4126TIP3    H233794   5.259   4.242   2.880  1.6261  0.1047 -1.4880
 4127TIP3   OH233795   1.699   4.494  11.064  0.4881 -0.1376 -0.2540
 4127TIP3    H133796   1.761   4.442  11.013  1.2166  0.9554 -0.5377
 4127TIP3    H233797   1.682   4.442  11.142 -1.3735 -2.2768 -1.9802
 4128TIP3   OH233798   5.707   0.406   1.295  0.0729  0.0329  0.5062
 4128TIP3    H133799   5.632   0.363   1.254 -0.8987  0.5344  1.7072
 4128TIP3    H233800   5.751   0.452   1.223  0.9767 -2.6421 -0.7870
 4129TIP3   OH233801   6.042   3.746  16.242 -0.3555 -0.2795 -0.0721
 4129TIP3    H133802   6.130   3.754  16.205 -1.4804  2.0693 -2.5804
 4129TIP3    H233803   5.985   3.733  16.166 -2.2949 -0.9643  1.4042
 4130TIP3   OH233804   4.645   2.317   0.946  0.0647  0.5223 -0.2785
 4130TIP3    H133805   4.650   2.412   0.940 -0.9687  0.5657 -0.6203
 4130TIP3    H233806   4.553   2.298   0.963  0.2926 -0.4090 -0.0020
 4131TIP3   OH233807   0.372   1.734   3.269  0.1675  0.5394 -0.0505
 4131TIP3    H133808   0.278   1.729   3.253 -0.2371 -0.9208  2.3127
 4131TIP3    H233809   0.391   1.828   3.273 -0.8004  0.8891 -2.2535
 4132TIP3   OH233810   6.398   6.141  15.323  0.0078 -0.5831  0.1506
 4132TIP3    H133811   6.482   6.128  15.279  0.8031 -1.5179  1.8568
 4132TIP3    H233812   6.344   6.067  15.296  0.7887 -1.6276  1.3591
 4133TIP3   OH233813   5.413   1.301   1.515  0.0529  0.3011 -0.0580
 4133TIP3    H133814   5.414   1.275   1.608  0.6864  1.1976  0.1984
 4133TIP3    H233815   5.331   1.349   1.505  0.1399  0.4932  0.1297
 4134TIP3   OH233816   1.474   5.931   4.046  0.2698 -0.6215 -0.0888
 4134TIP3    H133817   1.502   5.968   3.963  0.4509  0.0088  0.2449
 4134TIP3    H233818   1.460   5.838   4.028 -0.1600 -0.4004 -0.9357
 4135TIP3   OH233819   2.683   1.557   2.384 -0.6379 -0.3574 -0.5980
 4135TIP3    H133820   2.635   1.638   2.405  0.8929  0.6164 -0.7075
 4135TIP3    H233821   2.751   1.585   2.322  0.0783 -1.6859 -0.4383
 4136TIP3   OH233822   5.348   5.819   1.949 -0.1003 -0.1703 -0.3260
 4136TIP3    H133823   5.268   5.767   1.958 -0.5584  0.7300  1.2141
 4136TIP3    H233824   5.328   5.901   1.995  1.6904  0.0968  0.0409
 4137TIP3   OH233825   0.947   4.410  12.826 -0.9212 -0.0359 -0.4122
 4137TIP3    H133826   0.989   4.467  12.761 -0.6264 -0.4332 -0.5732
 4137TIP3    H233827   0.897   4.348  12.775 -1.9442  0.6045 -0.2125
 4138TIP3   OH233828   5.813   6.028   1.869  0.3448  0.2962  0.1965
 4138TIP3    H133829   5.718   6.021   1.868  0.2699  1.2382 -0.1818
 4138TIP3    H233830   5.831   6.115   1.832  1.3569  0.0068 -0.0194
 4139TIP3   OH233831   1.751   0.104   3.520 -0.3000 -0.2699  0.1530
 4139TIP3    H133832   1.706   0.156   3.587  0.5203  0.0184  0.4926
 4139TIP3    H233833   1.818   0.055   3.568  0.2817 -0.0788 -0.4490
 4140TIP3   OH233834   1.038   5.187   3.951 -0.6650  0.0911 -0.6141
 4140TIP3    H133835   0.991   5.185   4.035  0.5223 -0.4556  0.0686
 4140TIP3    H233836   1.118   5.138   3.968 -1.3636 -1.9100 -2.6761
 4141TIP3   OH233837   3.963   6.327  15.529  0.5977 -0.0787  0.3590
 4141TIP3    H133838   3.962   6.417  15.558 -0.1846 -0.2332  0.8334
 4141TIP3    H233839   4.055   6.299  15.539  0.5492  0.1800  1.7061
 4142TIP3   OH233840   4.669   5.543   1.966  0.4740  0.0122 -0.1939
 4142TIP3    H133841   4.636   5.609   1.905 -2.9712 -1.2619  0.1101
 4142TIP3    H233842   4.733   5.591   2.019  1.3635  1.9118 -2.7626
 4143TIP3   OH233843   1.414   6.469  11.991 -0.2909 -0.1718 -0.5099
 4143TIP3    H133844   1.487   6.425  11.947 -2.2584 -1.7516 -2.4631
 4143TIP3    H233845   1.347   6.401  11.999 -1.3366  1.0262  1.8535
 4144TIP3   OH233846   6.449   0.385  12.441 -0.3036 -0.3623  0.2135
 4144TIP3    H133847   6.397   0.372  12.520 -0.4587 -1.2622 -0.0197
 4144TIP3    H233848   6.434   0.306  12.389  0.1714  0.0011 -0.5031
 4145TIP3   OH233849   5.482   3.705  15.692  0.1769 -0.2448 -0.1110
 4145TIP3    H133850   5.490   3.654  15.772  0.8251  0.2887  0.1720
 4145TIP3    H233851   5.571   3.705  15.655 -0.1736 -0.7462 -0.9986
 4146TIP3   OH233852   4.198   2.290  12.523 -0.1811  0.6680  0.5028
 4146TIP3    H133853   4.196   2.280  12.618 -1.0056  2.1608  0.6763
 4146TIP3    H233854   4.222   2.382  12.509 -1.9233  1.0123 -0.6461
 4147TIP3   OH233855   3.623   0.926   6.058 -0.1305  0.6974  0.7958
 4147TIP3    H133856   3.657   0.933   5.968 -0.9835 -0.5234  0.3627
 4147TIP3    H233857   3.682   0.866   6.102 -2.0222 -2.0814 -0.1865
 4148TIP3   OH233858   6.479   2.026   2.007  0.3361 -0.0917 -0.1330
 4148TIP3    H133859   6.568   2.013   1.974 -0.1699  0.8493 -2.0411
 4148TIP3    H233860   6.423   2.006   1.931 -1.1073 -0.9669  1.1136
 4149TIP3   OH233861   3.392   5.603   5.928  0.2327 -0.0049 -0.1475
 4149TIP3    H133862   3.324   5.629   5.867 -1.5999 -1.0812  1.3111
 4149TIP3    H233863   3.365   5.641   6.012  2.1987  0.7026  0.2244
 4150TIP3   OH233864   2.871   2.526   1.525  0.1538 -0.0009  0.1879
 4150TIP3    H133865   2.918   2.602   1.559  0.5727  0.1607 -0.7121
 4150TIP3    H233866   2.890   2.456   1.587  1.4344  0.1105 -0.0415
 4151TIP3   OH233867   3.733   2.648   2.361  0.0797 -0.0843  0.4790
 4151TIP3    H133868   3.690   2.616   2.282 -0.1326 -0.9612  0.9398
 4151TIP3    H233869   3.810   2.592   2.371  1.1295  1.2063 -0.1110
 4152TIP3   OH233870   3.847   1.167  14.107  0.2803  0.0893  0.1832
 4152TIP3    H133871   3.829   1.192  14.016 -0.8191  0.5215  0.5156
 4152TIP3    H233872   3.762   1.147  14.144  0.9208 -2.5938  0.4277
 4153TIP3   OH233873   2.017   2.386  14.368 -0.3311  0.2495 -0.3319
 4153TIP3    H133874   1.967   2.378  14.287  0.2437  1.1636 -0.7927
 4153TIP3    H233875   1.952   2.413  14.433 -0.6565  0.2864 -0.6670
 4154TIP3   OH233876   4.484   3.903  15.392  0.0008 -0.2766  0.5427
 4154TIP3    H133877   4.541   3.827  15.407 -0.0348 -0.8140 -1.7046
 4154TIP3    H233878   4.543   3.978  15.396  0.4398 -0.6199  0.6146
 4155TIP3   OH233879   5.985   3.989  15.924  0.2299 -0.1644  0.0640
 4155TIP3    H133880   5.979   4.047  15.848 -0.7648  0.4415  0.5894
 4155TIP3    H233881   6.006   4.047  15.997 -0.5296 -0.4953  0.5512
 4156TIP3   OH233882   5.134   3.328   2.708  1.0879 -0.2416 -0.0048
 4156TIP3    H133883   5.113   3.420   2.698  1.2997 -0.0118  1.4467
 4156TIP3    H233884   5.079   3.283   2.645 -0.9777  0.6579  1.0842
 4157TIP3   OH233885   5.775   2.756  10.920 -0.3552  0.1031  0.1894
 4157TIP3    H133886   5.745   2.665  10.918 -1.2141  0.3533  1.0632
 4157TIP3    H233887   5.711   2.801  10.975 -0.2299  1.3466 -0.6440
 4158TIP3   OH233888   4.932   5.940  15.258  0.1002  0.4936  0.1959
 4158TIP3    H133889   5.007   5.971  15.308 -0.7801  2.0562  0.5910
 4158TIP3    H233890   4.875   5.899  15.324  0.7242 -1.0437 -0.1570
 4159TIP3   OH233891   4.197   5.817   5.026 -0.2656 -0.5277  0.0238
 4159TIP3    H133892   4.203   5.775   5.112 -1.0458  0.2195  0.4550
 4159TIP3    H233893   4.172   5.746   4.967  0.5968 -1.1166  0.3409
 4160TIP3   OH233894   4.899   6.530  16.900  1.5114 -0.9830  0.6517
 4160TIP3    H133895   4.907   6.571  16.814  1.2387 -0.3210  0.9386
 4160TIP3    H233896   4.982   6.549  16.944  1.1091 -0.1218  1.0467
 4161TIP3   OH233897   1.234   4.163  13.565 -0.0916  0.6313  0.4533
 4161TIP3    H133898   1.302   4.149  13.632 -0.3379 -0.5329  0.4878
 4161TIP3    H233899   1.183   4.236  13.597 -0.3765 -0.0913  1.7014
 4162TIP3   OH233900   0.063   0.047   4.311  0.3521  0.4574  0.1540
 4162TIP3    H133901  -0.019   0.041   4.359  1.0040 -0.9579  1.1708
 4162TIP3    H233902   0.126  -0.002   4.365  1.6688  0.8309 -0.9862
 4163TIP3   OH233903   6.765   0.742   1.922  0.4994 -0.2422  0.7413
 4163TIP3    H133904   6.807   0.723   2.006 -0.1053  0.6144  1.2495
 4163TIP3    H233905   6.837   0.773   1.867  0.6732  0.5047  1.3691
 4164TIP3   OH233906   0.968   3.718  16.087  0.7929  0.0024 -0.2911
 4164TIP3    H133907   0.982   3.764  16.170 -0.1450  0.9181 -0.6342
 4164TIP3    H233908   1.019   3.637  16.097 -0.4057 -0.5701  1.7219
 4165TIP3   OH233909   2.043   2.158  13.270 -0.3691 -0.3122 -0.5380
 4165TIP3    H133910   2.057   2.072  13.308 -0.1563  0.0666  0.2812
 4165TIP3    H233911   2.101   2.162  13.194 -0.9171 -1.1444 -1.0099
 4166TIP3   OH233912   6.204   5.147  11.401  0.0995 -0.5135  0.0001
 4166TIP3    H133913   6.215   5.231  11.356 -0.5281 -0.6569 -0.4349
 4166TIP3    H233914   6.111   5.142  11.421  0.2155 -0.8887  0.4625
 4167TIP3   OH233915   0.665   0.764   3.332  0.7627  0.4497  0.1353
 4167TIP3    H133916   0.695   0.819   3.405 -0.3692  0.2793  0.7575
 4167TIP3    H233917   0.745   0.725   3.297  1.4554  1.5164  0.4758
 4168TIP3   OH233918   3.506   2.080  11.711 -0.6695 -0.1516  0.1687
 4168TIP3    H133919   3.497   2.162  11.662  0.3015 -0.4026 -0.4617
 4168TIP3    H233920   3.601   2.066  11.717 -0.8243 -1.4366 -0.0796
 4169TIP3   OH233921   0.900   2.539  15.711 -0.5626  0.7185  0.0472
 4169TIP3    H133922   0.953   2.478  15.762  0.2360 -1.2806 -2.8856
 4169TIP3    H233923   0.824   2.487  15.684 -1.7403  2.1750  0.4442
 4170TIP3   OH233924   6.329   4.192   2.788 -0.2588 -0.5039  0.0942
 4170TIP3    H133925   6.308   4.138   2.864  0.0480 -2.2019 -0.9593
 4170TIP3    H233926   6.413   4.157   2.757 -0.7742 -0.4319 -1.4923
 4171TIP3   OH233927   0.454   0.842  11.747 -0.5061 -0.4937 -0.5656
 4171TIP3    H133928   0.447   0.926  11.701  0.2353 -1.7238 -3.0747
 4171TIP3    H233929   0.519   0.858  11.815  1.4841  0.3821 -2.5455
 4172TIP3   OH233930   2.551   6.106  16.910  0.2113  1.1033  0.6300
 4172TIP3    H133931   2.604   6.042  16.957  0.3168  0.8684  0.2033
 4172TIP3    H233932   2.522   6.060  16.831  0.8624  1.7870 -0.0352
 4173TIP3   OH233933   5.303   4.367  12.770  0.0355  0.4365 -0.0631
 4173TIP3    H133934   5.371   4.413  12.720 -2.2058  0.3141 -3.4897
 4173TIP3    H233935   5.287   4.425  12.845  1.5202  2.1847 -0.9950
 4174TIP3   OH233936   1.334   5.699   3.940  0.2938  0.6246 -0.0548
 4174TIP3    H133937   1.249   5.687   3.897  1.0796 -0.5825 -1.3693
 4174TIP3    H233938   1.397   5.658   3.880  1.9839  2.6422  0.2370
 4175TIP3   OH233939   0.816   1.160   0.267 -0.5261  0.1095 -0.4257
 4175TIP3    H133940   0.902   1.142   0.230  0.3742  2.2277  0.4726
 4175TIP3    H233941   0.805   1.095   0.337  1.6539  1.5093  1.3492
 4176TIP3   OH233942   1.395   3.000   0.590 -0.3221  0.0846  0.3241
 4176TIP3    H133943   1.455   2.945   0.640  0.4487 -0.9480 -1.6242
 4176TIP3    H233944   1.452   3.060   0.541 -0.8269 -0.6360 -1.2347
 4177TIP3   OH233945   1.141   0.534   0.687 -0.1944  0.8445  0.1972
 4177TIP3    H133946   1.233   0.550   0.669 -0.7586  3.6267 -0.5695
 4177TIP3    H233947   1.116   0.466   0.624  1.3800 -0.2303  0.6789
 4178TIP3   OH233948   0.470   3.084   1.560 -0.1526  0.2528  0.3037
 4178TIP3    H133949   0.445   3.048   1.645  1.6642  0.9221  1.1714
 4178TIP3    H233950   0.449   3.177   1.567 -1.4094  0.0641 -0.5799
 4179TIP3   OH233951   0.650   1.312   1.560  0.0936 -0.1050 -0.1549
 4179TIP3    H133952   0.619   1.278   1.644 -0.7129  0.0250 -0.3899
 4179TIP3    H233953   0.725   1.367   1.583  0.1732 -0.4482  0.4290
 4180TIP3   OH233954   3.738   4.073   3.172  0.4249  0.3604  0.5504
 4180TIP3    H133955   3.798   4.014   3.127  0.1121 -0.7286  1.5069
 4180TIP3    H233956   3.794   4.133   3.220  0.7652  1.4960 -1.1715
 4181TIP3   OH233957   1.490   3.764  15.296  0.0920  0.1218 -0.1118
 4181TIP3    H133958   1.578   3.727  15.291  0.1155 -0.1005  1.4485
 4181TIP3    H233959   1.438   3.710  15.237  0.5090 -1.2507  0.7461
 4182TIP3   OH233960   5.233   4.860   3.902 -0.5876 -0.1039  0.1101
 4182TIP3    H133961   5.153   4.862   3.848 -0.2946 -3.6761 -0.6825
 4182TIP3    H233962   5.221   4.785   3.959  0.6044  1.6252  2.8427
 4183TIP3   OH233963   0.011   5.076   2.185  0.5845  0.1416 -0.3795
 4183TIP3    H133964  -0.076   5.050   2.215  1.2880 -1.1899  0.6062
 4183TIP3    H233965  -0.006   5.148   2.124 -1.1083  0.8186  0.7988
 4184TIP3   OH233966   5.055   0.474  14.594 -0.1332 -0.0105  0.9158
 4184TIP3    H133967   5.014   0.403  14.643  0.2356 -0.7148  0.2312
 4184TIP3    H233968   4.982   0.524  14.558 -0.3941 -0.6219  0.5918
 4185TIP3   OH233969   0.564   4.423  13.660  0.0268 -0.2086 -0.2139
 4185TIP3    H133970   0.498   4.437  13.591 -0.2728  0.2497  0.1598
 4185TIP3    H233971   0.620   4.353  13.626 -0.0570  0.0850 -0.9729
 4186TIP3   OH233972   2.062   5.117  13.246  0.0311  0.3588  0.6607
 4186TIP3    H133973   2.005   5.170  13.301 -0.1330  0.2923  0.5517
 4186TIP3    H233974   2.008   5.045  13.216  0.7032 -0.8474  2.2033
 4187TIP3   OH233975   4.336   4.073  15.808 -0.4711  1.2395 -0.5791
 4187TIP3    H133976   4.298   4.128  15.740 -1.8028 -1.2507 -2.0247
 4187TIP3    H233977   4.306   3.985  15.786  1.0365 -0.0045  1.9181
 4188TIP3   OH233978   5.845   2.377   6.200  0.5203 -0.2184  0.5401
 4188TIP3    H133979   5.767   2.381   6.255  0.7333  0.1629  0.8188
 4188TIP3    H233980   5.890   2.297   6.227 -0.7329 -1.4769 -0.9378
 4189TIP3   OH233981   3.775   5.101   2.943 -0.0854 -0.3645  0.3617
 4189TIP3    H133982   3.701   5.095   3.003 -0.2338  0.9278  0.3545
 4189TIP3    H233983   3.738   5.139   2.863  0.2887 -1.1850 -0.2104
 4190TIP3   OH233984   2.620   2.288   0.664  0.0304  0.2766 -0.0241
 4190TIP3    H133985   2.552   2.286   0.597 -0.6958 -0.4179  0.6992
 4190TIP3    H233986   2.653   2.198   0.668 -0.3684  0.1515  0.9462
 4191TIP3   OH233987   5.878   3.291   5.311  0.0626  0.5882  0.6279
 4191TIP3    H133988   5.899   3.249   5.227 -0.3213  0.5254  0.5641
 4191TIP3    H233989   5.835   3.222   5.362  0.9757  0.3977  1.1627
 4192TIP3   OH233990   0.494   2.674   1.170 -0.6529 -0.1204 -0.4923
 4192TIP3    H133991   0.551   2.726   1.226 -1.4978  0.5820 -0.2560
 4192TIP3    H233992   0.408   2.680   1.212 -0.6053 -2.5328  0.1211
 4193TIP3   OH233993   1.916   1.633  12.178 -0.2197 -0.2476 -0.7609
 4193TIP3    H133994   1.888   1.607  12.090 -0.9197  0.0237 -0.6262
 4193TIP3    H233995   1.846   1.602  12.235 -0.1384  0.2494 -0.3896
 4194TIP3   OH233996   0.455   1.854  15.481 -0.1110 -0.1044 -0.3966
 4194TIP3    H133997   0.425   1.797  15.410 -1.2420  1.6607 -1.4100
 4194TIP3    H233998   0.550   1.860  15.468 -0.3427  0.5212 -2.0801
 4195TIP3   OH233999   3.626   6.440   3.296 -0.0573  0.3858 -0.2234
 4195TIP3    H134000   3.591   6.355   3.270  0.3547 -0.5672  2.0895
 4195TIP3    H234001   3.690   6.462   3.228  1.3747 -2.1957  0.1484
 4196TIP3   OH234002   4.805   5.793   5.719 -0.4036  0.5439 -0.2341
 4196TIP3    H134003   4.731   5.854   5.714  0.0071  1.0150 -0.6783
 4196TIP3    H234004   4.839   5.804   5.807 -0.5770  0.6776 -0.1834
 4197TIP3   OH234005   5.340   3.468  12.132  0.4431 -0.5353 -0.1027
 4197TIP3    H134006   5.337   3.465  12.036  0.8759  1.3070 -0.2009
 4197TIP3    H234007   5.336   3.376  12.158 -0.1694 -1.0575 -1.8605
 4198TIP3   OH234008   1.834   1.246  13.729  0.2533  0.4889  0.2617
 4198TIP3    H134009   1.889   1.324  13.721 -0.9469  1.2013 -1.4719
 4198TIP3    H234010   1.827   1.212  13.640 -0.1298 -1.0088  0.8322
 4199TIP3   OH234011   3.661   3.282   6.361 -0.0603  0.2260 -0.1212
 4199TIP3    H134012   3.712   3.204   6.335 -1.3619 -0.9636  0.7719
 4199TIP3    H234013   3.723   3.336   6.410  0.1165 -1.7502  1.9844
 4200TIP3   OH234014   3.840   6.733   1.846  0.0279 -0.2594 -0.4606
 4200TIP3    H134015   3.854   6.638   1.850  2.0686  0.0048 -0.0179
 4200TIP3    H234016   3.822   6.759   1.936  2.5984  0.1175  0.0217
 4201TIP3   OH234017   4.779   3.023  15.713 -0.2875  0.0560  0.0604
 4201TIP3    H134018   4.815   3.097  15.664  0.0699 -0.1885 -0.0512
 4201TIP3    H234019   4.688   3.016  15.684 -0.3008  0.4062  0.0195
 4202TIP3   OH234020   4.540   5.270   1.828  0.3058 -0.1577  0.5499
 4202TIP3    H134021   4.547   5.245   1.736  1.6499 -1.0834  0.8710
 4202TIP3    H234022   4.451   5.248   1.853 -0.0476  0.0419 -0.5119
 4203TIP3   OH234023   3.346   0.301   2.731 -0.5310  0.4432  0.0636
 4203TIP3    H134024   3.338   0.283   2.825 -1.9228  2.2821  0.3671
 4203TIP3    H234025   3.310   0.224   2.688 -2.4619  0.6706  1.1522
 4204TIP3   OH234026   6.667   2.244   4.533  0.1296 -0.7227  0.0331
 4204TIP3    H134027   6.698   2.159   4.504  1.1364 -1.6262  3.3006
 4204TIP3    H234028   6.586   2.226   4.580  0.3810  0.0720  0.8140
 4205TIP3   OH234029   0.580   2.095   4.904 -0.2862  0.1891  0.1873
 4205TIP3    H134030   0.589   2.145   4.823  0.5299  0.8175  0.6422
 4205TIP3    H234031   0.669   2.067   4.925 -0.6029 -0.6536  0.4470
 4206TIP3   OH234032   1.585   1.379  16.438  0.1408  0.0538 -0.4518
 4206TIP3    H134033   1.564   1.300  16.489  0.4243 -0.3612 -0.9711
 4206TIP3    H234034   1.500   1.420  16.423  0.0361  0.1177  0.2428
 4207TIP3   OH234035   6.113   0.364   1.696 -0.1198  0.0330  0.1458
 4207TIP3    H134036   6.046   0.298   1.683 -0.3884  0.1553  0.8559
 4207TIP3    H234037   6.177   0.323   1.754 -1.5795  1.1927  2.7840
 4208TIP3   OH234038   0.097   1.083   3.965  0.2121  0.2556  0.0627
 4208TIP3    H134039   0.191   1.086   3.983 -0.0790  0.6854  1.6745
 4208TIP3    H234040   0.057   1.131   4.037 -1.1940  0.9485 -1.1357
 4209TIP3   OH234041   4.268   4.785  14.547  0.2498 -0.0652 -0.4305
 4209TIP3    H134042   4.313   4.755  14.627 -1.4976  0.5039  0.8140
 4209TIP3    H234043   4.223   4.707  14.514  0.1524 -0.0662 -0.2950
 4210TIP3   OH234044   4.090   6.507   3.812 -0.2622 -0.2423 -0.4866
 4210TIP3    H134045   3.997   6.525   3.829 -0.1186 -0.8264  1.0776
 4210TIP3    H234046   4.136   6.556   3.879  0.4187 -1.8235  0.2434
 4211TIP3   OH234047   5.272   4.257   5.529  0.2964 -0.0609 -0.2733
 4211TIP3    H134048   5.304   4.227   5.444 -0.6102  1.7517 -1.3415
 4211TIP3    H234049   5.345   4.306   5.567  0.1678  0.5484 -0.7962
 4212TIP3   OH234050   5.688   3.513  16.589 -0.1395 -0.4906  0.1750
 4212TIP3    H134051   5.644   3.589  16.628  0.5609 -0.8618  1.7701
 4212TIP3    H234052   5.634   3.438  16.616 -0.3900 -0.6521 -0.7336
 4213TIP3   OH234053   0.751   6.756   4.022 -0.8782  0.3744  0.2285
 4213TIP3    H134054   0.677   6.698   4.041 -0.1899 -0.4818  0.3376
 4213TIP3    H234055   0.768   6.742   3.928 -2.7429  2.8120 -0.5714
 4214TIP3   OH234056   0.552   2.747   4.744 -0.2427  0.3018  0.8101
 4214TIP3    H134057   0.548   2.716   4.834  0.2448 -0.9452  0.4161
 4214TIP3    H234058   0.544   2.842   4.752  0.1093  0.2447  2.1891
 4215TIP3   OH234059   2.761   4.263  10.574  0.1861 -0.0504  0.0995
 4215TIP3    H134060   2.719   4.349  10.574  0.6537  0.2029 -1.4616
 4215TIP3    H234061   2.846   4.277  10.615  0.6012  0.4285 -0.8976
 4216TIP3   OH234062   3.478   1.819   1.011 -0.6142  0.1144 -0.0611
 4216TIP3    H134063   3.566   1.838   0.979 -1.4030  1.1722 -1.7294
 4216TIP3    H234064   3.440   1.762   0.944 -2.0155  1.6621 -0.6561
 4217TIP3   OH234065   4.011   4.293   3.711 -0.3069  0.3260 -0.3065
 4217TIP3    H134066   4.073   4.365   3.695  0.9904 -1.1612 -2.4087
 4217TIP3    H234067   4.036   4.259   3.797  0.6163  0.9005 -0.3294
 4218TIP3   OH234068   0.496   0.679  13.258 -0.0347  0.1891  0.8165
 4218TIP3    H134069   0.505   0.657  13.351  0.4633  0.9184  0.9575
 4218TIP3    H234070   0.545   0.761  13.249 -1.1880  0.8325  0.1875
 4219TIP3   OH234071   2.870   3.847  16.518 -0.0394 -0.4757  0.0636
 4219TIP3    H134072   2.869   3.769  16.462  1.0447  0.0082 -0.6643
 4219TIP3    H234073   2.809   3.908  16.476  2.3307  0.7273 -1.9398
 4220TIP3   OH234074   2.094   1.322  16.487 -0.0111  0.1050  0.3597
 4220TIP3    H134075   2.067   1.233  16.511 -3.2042  0.6040 -0.9468
 4220TIP3    H234076   2.187   1.326  16.512 -0.2784 -2.8713  2.3687
 4221TIP3   OH234077   4.565   5.330  14.295  0.6120 -0.6844  0.4040
 4221TIP3    H134078   4.642   5.274  14.281  0.1180 -1.0451 -0.9644
 4221TIP3    H234079   4.573   5.399  14.229  0.8707  0.5163  1.6535
 4222TIP3   OH234080   5.696   3.604  11.975  0.1853 -0.2040 -0.9432
 4222TIP3    H134081   5.645   3.573  11.900 -0.7909  0.6667 -0.6580
 4222TIP3    H234082   5.652   3.684  12.003  2.7917  1.7124 -1.8593
 4223TIP3   OH234083   6.540   4.453   2.095 -0.0915  0.5175 -0.3409
 4223TIP3    H134084   6.476   4.393   2.132  0.2701  0.7363  0.6713
 4223TIP3    H234085   6.491   4.534   2.079 -0.0215  0.7836  0.7145
 4224TIP3   OH234086   6.345   5.980  13.594  0.4493  0.1325  0.1151
 4224TIP3    H134087   6.426   6.030  13.607  1.3383 -1.5379  1.2877
 4224TIP3    H234088   6.276   6.038  13.627  1.3246  0.9537  0.5645
 4225TIP3   OH234089   3.176   4.715   2.721 -0.5419 -0.8327 -0.3621
 4225TIP3    H134090   3.265   4.750   2.722 -0.6162 -0.6010 -1.1439
 4225TIP3    H234091   3.185   4.626   2.755  0.2370 -1.3370 -1.7715
 4226TIP3   OH234092   4.534   0.834  12.086  0.1030  0.3893  0.4012
 4226TIP3    H134093   4.481   0.807  12.011 -1.2558  1.9915  0.7164
 4226TIP3    H234094   4.576   0.915  12.057  0.5443  0.3601  0.9491
 4227TIP3   OH234095   3.870   5.241   5.700  0.4480 -0.3176  0.2015
 4227TIP3    H134096   3.800   5.231   5.764  1.5192  0.3576  1.5393
 4227TIP3    H234097   3.948   5.260   5.752  1.4374 -0.0485 -1.2958
 4228TIP3   OH234098   0.883   5.972   3.752  0.0006 -0.3787 -0.9099
 4228TIP3    H134099   0.790   5.991   3.751 -0.1056 -0.7509  0.3110
 4228TIP3    H234100   0.923   6.042   3.701 -0.9652 -0.3958 -1.7104
 4229TIP3   OH234101   6.465   2.403   2.751 -0.2392 -0.3469 -0.0937
 4229TIP3    H134102   6.501   2.437   2.669 -1.2975  0.7013 -0.1467
 4229TIP3    H234103   6.491   2.311   2.752  1.7915  0.1809 -0.4671
 4230TIP3   OH234104   3.859   0.961   3.966 -0.5252 -0.2030 -0.0407
 4230TIP3    H134105   3.853   0.879   4.014  0.1956 -1.3198 -1.7386
 4230TIP3    H234106   3.948   0.992   3.981  0.8370 -2.1938 -2.9576
 4231TIP3   OH234107   0.700   2.627  16.276  0.6070 -0.2166  0.8237
 4231TIP3    H134108   0.686   2.593  16.365 -2.6432 -0.0272  0.4994
 4231TIP3    H234109   0.650   2.568  16.220  0.7886  0.9692 -0.6227
 4232TIP3   OH234110   2.615   1.130   4.426  0.2414 -0.2578  0.2658
 4232TIP3    H134111   2.590   1.051   4.378  0.6444 -0.6284  0.6575
 4232TIP3    H234112   2.710   1.126   4.431  0.2977  0.4945 -0.1063
 4233TIP3   OH234113   2.833   4.051   4.470 -0.3573  0.2328  0.2363
 4233TIP3    H134114   2.865   3.971   4.510 -0.1038 -0.0348 -0.4908
 4233TIP3    H234115   2.773   4.022   4.401  1.8155  0.5274 -1.9006
 4234TIP3   OH234116   1.892   3.909  12.491  0.0465  0.6366  0.0089
 4234TIP3    H134117   1.815   3.962  12.512  0.2490  0.6558  0.7191
 4234TIP3    H234118   1.947   3.914  12.569 -0.1585 -1.0245  0.2965
 4235TIP3   OH234119   3.084   6.170   2.891  0.4277  0.2692 -0.1432
 4235TIP3    H134120   3.159   6.142   2.837 -0.9586 -1.9038 -1.1080
 4235TIP3    H234121   3.090   6.115   2.969 -1.1388 -1.3519 -1.0838
 4236TIP3   OH234122   0.087   1.837   5.281 -0.6328 -0.5702  0.1598
 4236TIP3    H134123   0.003   1.802   5.253 -0.5887 -0.6162  0.0857
 4236TIP3    H234124   0.148   1.814   5.211  0.1155 -3.2143  1.5777
 4237TIP3   OH234125   0.268   2.602  12.443 -0.1513 -0.5014 -0.1228
 4237TIP3    H134126   0.249   2.636  12.356 -1.4208  0.7489  0.6094
 4237TIP3    H234127   0.352   2.643  12.466 -1.2027  1.5128  0.3677
 4238TIP3   OH234128   3.231   1.538   5.559 -0.5443  0.8944  0.4470
 4238TIP3    H134129   3.226   1.542   5.655 -0.7831 -2.6450  0.7361
 4238TIP3    H234130   3.319   1.505   5.542 -1.3465 -0.9780 -0.3234
 4239TIP3   OH234131   3.542   3.227   4.822 -0.3668  0.0285 -0.0196
 4239TIP3    H134132   3.631   3.245   4.852 -0.6435  1.1537  0.1553
 4239TIP3    H234133   3.533   3.131   4.829  1.1682 -0.2161 -1.0163
 4240TIP3   OH234134   5.977   5.284   4.008 -0.7457 -0.4740  0.0524
 4240TIP3    H134135   5.994   5.250   4.095  2.4012 -1.0990 -0.7047
 4240TIP3    H234136   5.906   5.229   3.974 -1.7516 -0.4604  2.0122
 4241TIP3   OH234137   2.567   6.527   0.299  0.3933 -0.1291  0.1626
 4241TIP3    H134138   2.568   6.496   0.389 -2.4715 -0.1062  0.2764
 4241TIP3    H234139   2.575   6.622   0.306  3.7708 -0.2966  0.1013
 4242TIP3   OH234140   0.221   0.280  11.806  0.1709 -0.0897  0.5293
 4242TIP3    H134141   0.236   0.374  11.819  0.2143  0.0019 -0.1378
 4242TIP3    H234142   0.171   0.275  11.724 -1.1847 -0.5544  1.3533
 4243TIP3   OH234143   2.808   6.223  13.774  0.1146 -0.3984 -0.1176
 4243TIP3    H134144   2.804   6.146  13.717 -1.9369  0.5738 -1.4017
 4243TIP3    H234145   2.756   6.289  13.728  2.1065  1.9198  0.7421
 4244TIP3   OH234146   0.622   1.734   5.914  0.1892 -0.1514 -0.3743
 4244TIP3    H134147   0.713   1.723   5.943  0.0492  1.1541  0.6639
 4244TIP3    H234148   0.572   1.746   5.995 -0.9467 -0.9778 -0.9259
 4245TIP3   OH234149   2.598   4.696  11.184 -0.2699  0.1751 -0.4156
 4245TIP3    H134150   2.611   4.608  11.148  0.0601  0.5171 -1.1351
 4245TIP3    H234151   2.537   4.738  11.124 -1.0834  0.1636  0.3875
 4246TIP3   OH234152   6.717   4.582   0.050 -0.2670 -0.2362  0.3381
 4246TIP3    H134153   6.755   4.630  -0.024  2.8865  0.1779  2.0257
 4246TIP3    H234154   6.785   4.519   0.075 -1.4383 -0.7328  2.5512
 4247TIP3   OH234155   5.861   0.246   4.036 -0.2592  0.4818 -0.2504
 4247TIP3    H134156   5.766   0.242   4.026 -0.2829  0.4161 -0.0172
 4247TIP3    H234157   5.885   0.160   4.071  0.4419 -1.3387 -4.5149
 4248TIP3   OH234158   5.366   6.017   0.495 -0.1360  0.2684  0.8373
 4248TIP3    H134159   5.378   5.952   0.563 -0.6169  1.3006  1.9565
 4248TIP3    H234160   5.291   6.070   0.525 -0.5531  0.5762 -0.6353
 4249TIP3   OH234161   2.590   0.491   5.761  0.2924 -0.4182  0.2094
 4249TIP3    H134162   2.630   0.422   5.709 -2.3788 -1.7949 -0.1704
 4249TIP3    H234163   2.593   0.568   5.705 -0.2048 -1.2270 -0.9551
 4250TIP3   OH234164   4.301   3.662   1.820 -0.3120  0.3199 -0.4875
 4250TIP3    H134165   4.205   3.668   1.818 -0.4525 -1.4213 -1.5267
 4250TIP3    H234166   4.331   3.751   1.840 -2.1866  0.3159  3.1044
 4251TIP3   OH234167   0.763   6.544   6.666  0.0920 -0.0873  0.5300
 4251TIP3    H134168   0.728   6.492   6.738 -0.5143  0.1335  0.3985
 4251TIP3    H234169   0.800   6.622   6.708  1.4256 -0.8187  0.7759
 4252TIP3   OH234170   5.151   6.345  16.973 -0.0658  0.3844  0.3360
 4252TIP3    H134171   5.208   6.272  16.998  0.1221  1.0254  1.8848
 4252TIP3    H234172   5.068   6.304  16.950  0.8723 -0.5566 -1.7556
 4253TIP3   OH234173   0.632   6.472   4.491  0.4041 -0.2170  0.1063
 4253TIP3    H134174   0.676   6.543   4.444 -0.3353  0.8175  0.9389
 4253TIP3    H234175   0.615   6.406   4.423 -1.2752  1.5233 -1.2889
 4254TIP3   OH234176   3.844   4.485   6.061 -0.3574 -0.3445 -0.1280
 4254TIP3    H134177   3.876   4.435   6.137  2.1968  0.3144 -0.6706
 4254TIP3    H234178   3.845   4.421   5.990 -3.4445 -1.1569  0.4257
 4255TIP3   OH234179   6.184   2.731   1.723  0.3191  0.1516 -0.3802
 4255TIP3    H134180   6.108   2.673   1.724  0.7734 -0.4425 -0.0441
 4255TIP3    H234181   6.259   2.673   1.708  1.0391  0.2992  2.1320
 4256TIP3   OH234182   1.149   2.534  12.173 -0.3113 -0.0386  0.2684
 4256TIP3    H134183   1.165   2.478  12.097  0.1008  1.1794 -0.5680
 4256TIP3    H234184   1.185   2.619  12.149 -0.7626  0.5608  1.5799
 4257TIP3   OH234185   3.983   3.436   3.919 -0.3705 -0.3435  0.4302
 4257TIP3    H134186   4.077   3.456   3.921 -0.5075  0.3285  1.8272
 4257TIP3    H234187   3.954   3.466   3.833  0.4502  0.7657  0.5082
 4258TIP3   OH234188   1.953   0.090  11.828 -0.1507  0.1598 -0.5096
 4258TIP3    H134189   1.982   0.009  11.786 -0.3867 -1.9942  3.1012
 4258TIP3    H234190   1.867   0.070  11.864 -0.2274  2.0340  0.4799
 4259TIP3   OH234191   1.663   0.921  14.235  0.4647 -0.2022 -0.0265
 4259TIP3    H134192   1.703   1.004  14.209  1.7914 -1.2216 -1.4249
 4259TIP3    H234193   1.718   0.889  14.307 -1.2423  1.0285  1.9341
 4260TIP3   OH234194   1.491   1.785  11.273 -0.2198  0.0641  0.2250
 4260TIP3    H134195   1.445   1.846  11.216  0.5708  0.5824  0.1266
 4260TIP3    H234196   1.539   1.728  11.212 -0.3940 -0.2121  0.3417
 4261TIP3   OH234197   0.983   1.969   4.700  0.1034 -0.6295  0.4444
 4261TIP3    H134198   0.908   1.989   4.643  0.0150  1.2388  1.1233
 4261TIP3    H234199   1.007   1.880   4.677  0.7823  0.3283 -3.3347
 4262TIP3   OH234200   1.286   1.924   2.381  0.2290 -0.2362  0.2911
 4262TIP3    H134201   1.270   1.979   2.457  0.9660 -1.0345  1.0408
 4262TIP3    H234202   1.299   1.986   2.309 -0.7506  0.5157  0.7511
 4263TIP3   OH234203   5.107   4.341  17.005 -0.4173  0.3570  0.7896
 4263TIP3    H134204   5.068   4.378  17.085  0.7118  1.4419  0.8668
 4263TIP3    H234205   5.130   4.251  17.030  1.8363  1.2812  2.4298
 4264TIP3   OH234206   0.325   4.078  16.663  0.0055 -0.0865 -0.6141
 4264TIP3    H134207   0.398   4.137  16.682 -0.1698 -0.5701  1.8900
 4264TIP3    H234208   0.331   4.062  16.568  0.8591  2.8302 -1.1481
 4265TIP3   OH234209   1.260   2.391   5.872 -0.1453 -0.2722 -0.1941
 4265TIP3    H134210   1.174   2.350   5.881 -0.3567  0.4280  1.1076
 4265TIP3    H234211   1.241   2.483   5.853  0.2847  0.1456  1.2832
 4266TIP3   OH234212   3.874   3.987  11.071 -0.1248 -0.7620  0.6358
 4266TIP3    H134213   3.945   3.927  11.047  0.0423 -0.2870 -0.0997
 4266TIP3    H234214   3.840   3.952  11.152 -0.7507 -2.4989 -0.3262
 4267TIP3   OH234215   5.907   1.044   2.681  0.3467  0.1690  0.0436
 4267TIP3    H134216   5.921   1.083   2.767 -1.7380 -0.3802  0.6847
 4267TIP3    H234217   5.814   1.058   2.663  0.6496 -0.0643 -1.9767
 4268TIP3   OH234218   4.075   2.542  11.181  0.0910 -0.2671  0.7554
 4268TIP3    H134219   4.020   2.512  11.109  1.7553 -0.7481 -0.3769
 4268TIP3    H234220   4.079   2.467  11.241  2.1892 -1.5288 -0.8305
 4269TIP3   OH234221   0.939   1.812   5.954 -0.3227  0.7230 -0.0606
 4269TIP3    H134222   0.982   1.795   5.870 -0.9128  0.2715 -0.2760
 4269TIP3    H234223   0.996   1.876   5.997  0.7028 -0.0310 -0.2386
 4270TIP3   OH234224   5.737   1.832   4.764 -0.1822 -0.3993 -0.0254
 4270TIP3    H134225   5.701   1.813   4.678  0.6209  0.0866 -0.4787
 4270TIP3    H234226   5.745   1.927   4.766  1.5378 -0.5101 -0.1467
 4271TIP3   OH234227   2.482   6.504   1.895  0.1996 -0.6321 -0.7342
 4271TIP3    H134228   2.550   6.571   1.891 -1.7263  1.6577  1.5114
 4271TIP3    H234229   2.402   6.548   1.867 -0.7243 -2.7368 -1.6362
 4272TIP3   OH234230   6.469   3.758  12.287 -0.0774 -0.2333 -0.3618
 4272TIP3    H134231   6.394   3.802  12.247  0.1504  0.6905  0.1850
 4272TIP3    H234232   6.445   3.750  12.380  0.9590  1.1526  0.0626
 4273TIP3   OH234233   6.029   4.828  13.409  0.1359 -0.4478  0.0568
 4273TIP3    H134234   6.090   4.758  13.388  1.1077  1.1309 -2.9681
 4273TIP3    H234235   6.083   4.897  13.447 -0.0040  0.2944 -1.0308
 4274TIP3   OH234236   0.816   0.931   4.376  0.4692 -0.1884  0.4850
 4274TIP3    H134237   0.893   0.945   4.430  1.3481 -0.3952 -0.6827
 4274TIP3    H234238   0.746   0.909   4.439  1.5915 -1.0338  1.4729
 4275TIP3   OH234239   2.104   2.290  13.558  0.1516 -0.3052  0.3290
 4275TIP3    H134240   2.070   2.245  13.481  0.8769 -1.0361  0.4156
 4275TIP3    H234241   2.122   2.220  13.621  0.8956  0.1342  0.6260
 4276TIP3   OH234242   0.949   2.281  15.098  0.6683  0.0245 -0.3530
 4276TIP3    H134243   0.891   2.285  15.021 -2.0023  1.2553  1.5719
 4276TIP3    H234244   0.951   2.189  15.122 -0.3100 -0.0641 -0.5853
 4277TIP3   OH234245   3.381   3.418  14.358  0.2612  0.1235  0.2995
 4277TIP3    H134246   3.414   3.330  14.344  0.3524  0.1301  0.4663
 4277TIP3    H234247   3.458   3.475  14.346  0.4494  0.0948  1.2638
 4278TIP3   OH234248   4.718   2.025  17.131 -0.6465  0.1042 -0.6686
 4278TIP3    H134249   4.742   2.118  17.138 -0.4192 -0.0123  0.1267
 4278TIP3    H234250   4.668   2.020  17.049  1.2289  0.5303 -1.9179
 4279TIP3   OH234251   5.013   0.527  10.967 -0.8400 -0.2929  0.6019
 4279TIP3    H134252   4.921   0.523  10.943 -0.5060 -0.1864 -0.7766
 4279TIP3    H234253   5.036   0.619  10.959 -0.3266 -0.4819 -0.2773
 4280TIP3   OH234254   2.649   5.102  10.844 -0.6210  0.7882 -0.4234
 4280TIP3    H134255   2.600   5.135  10.769 -1.3207  2.5343  0.7401
 4280TIP3    H234256   2.619   5.012  10.855 -1.5621  0.9750 -1.3717
 4281TIP3   OH234257   2.567   5.060   3.984  0.0220  0.1416 -0.4022
 4281TIP3    H134258   2.560   4.968   3.959  1.7960  0.1448 -1.0207
 4281TIP3    H234259   2.497   5.103   3.936 -0.5766 -0.8123 -0.4174
 4282TIP3   OH234260   3.766   0.073  11.306 -0.0359  0.6901  0.4556
 4282TIP3    H134261   3.681   0.095  11.343 -0.1517 -1.3011  1.4999
 4282TIP3    H234262   3.758   0.093  11.212 -1.7897  0.1982  0.4736
 4283TIP3   OH234263   2.654   0.763  14.977 -0.2446 -0.5428  0.7612
 4283TIP3    H134264   2.694   0.687  15.019  1.8013  0.5106  0.8487
 4283TIP3    H234265   2.618   0.728  14.895  2.7428 -1.2981 -0.3772
 4284TIP3   OH234266   3.290   0.868   0.343  0.4877 -0.4280 -0.7852
 4284TIP3    H134267   3.372   0.860   0.391  0.6188  0.9786 -0.7158
 4284TIP3    H234268   3.290   0.959   0.311 -1.6566  0.0615  0.3880
 4285TIP3   OH234269   3.025   6.747  14.448  0.2599  0.2723  0.2641
 4285TIP3    H134270   2.952   6.769  14.506 -0.2772  1.4788 -0.8287
 4285TIP3    H234271   2.983   6.722  14.366  1.0542  2.2254 -0.8013
 4286TIP3   OH234272   3.627   1.108  11.013  0.1466  0.4498 -0.8831
 4286TIP3    H134273   3.658   1.131  10.926 -2.5913  0.4302 -1.9678
 4286TIP3    H234274   3.600   1.016  11.006 -1.3706  0.8343 -0.4427
 4287TIP3   OH234275   6.380   2.089   0.004 -0.1897  0.1506  1.2163
 4287TIP3    H134276   6.363   2.176   0.042 -0.7103  0.3465  0.5447
 4287TIP3    H234277   6.295   2.046   0.003 -0.3132  0.3983 -0.3406
 4288TIP3   OH234278   5.779   6.685   4.032 -0.0113  0.3632 -0.1266
 4288TIP3    H134279   5.845   6.618   4.050  0.2250  0.9334  1.3333
 4288TIP3    H234280   5.785   6.744   4.108 -0.4893  1.7985 -1.1759
 4289TIP3   OH234281   5.497   2.137   1.531 -0.1719  0.0043 -0.1294
 4289TIP3    H134282   5.415   2.096   1.560  0.7426 -2.1870 -0.4210
 4289TIP3    H234283   5.563   2.102   1.591  1.0521 -1.0380 -1.9633
 4290TIP3   OH234284   3.826   0.415  13.606  0.6795 -0.5872  0.4903
 4290TIP3    H134285   3.805   0.386  13.517 -3.0935 -1.0476  1.3830
 4290TIP3    H234286   3.881   0.346  13.641  0.5821 -1.3752 -0.8308
 4291TIP3   OH234287   4.016   2.725  15.014  0.1658  0.4136  0.3412
 4291TIP3    H134288   3.970   2.801  14.978  0.5664  2.1067  3.1226
 4291TIP3    H234289   4.102   2.727  14.972 -0.6074  0.0639 -1.3350
 4292TIP3   OH234290   3.824   4.492  11.672  0.4773  0.3821  0.3191
 4292TIP3    H134291   3.907   4.533  11.699  1.3871 -2.4430  2.2774
 4292TIP3    H234292   3.769   4.499  11.750  0.3569 -1.2438  0.4043
 4293TIP3   OH234293   3.673   0.216   0.351  0.0997  0.0669  0.1857
 4293TIP3    H134294   3.739   0.157   0.317 -0.2276  0.6938 -1.6515
 4293TIP3    H234295   3.603   0.215   0.286 -0.1179  2.0942  0.3049
 4294TIP3   OH234296   0.159   0.315   0.682  0.0881 -0.1466 -0.8820
 4294TIP3    H134297   0.224   0.256   0.719  1.0705  1.9548  0.9175
 4294TIP3    H234298   0.210   0.383   0.639 -0.9687  0.4720 -1.1967
 4295TIP3   OH234299   0.641   3.707   4.311 -0.2045 -0.1144 -0.2789
 4295TIP3    H134300   0.676   3.630   4.356  1.0807  1.0313  0.7859
 4295TIP3    H234301   0.552   3.717   4.345  0.4261  0.1911  1.3721
 4296TIP3   OH234302   1.686   3.744   3.847 -0.0216  0.5156 -0.0959
 4296TIP3    H134303   1.718   3.834   3.860  1.3908  0.0934 -0.4482
 4296TIP3    H234304   1.752   3.704   3.791  0.5950 -1.4314  1.8820
 4297TIP3   OH234305   6.565   1.766  15.483  0.0834  0.2297  0.1548
 4297TIP3    H134306   6.646   1.727  15.515 -0.9698 -0.0621  2.6624
 4297TIP3    H234307   6.503   1.693  15.478  0.0182  0.3631 -2.1757
 4298TIP3   OH234308   3.961   5.918  14.609  0.2611 -0.8155  0.2787
 4298TIP3    H134309   3.982   5.930  14.516 -2.3761  1.3609 -0.1505
 4298TIP3    H234310   4.042   5.941  14.655  1.5310 -1.6215 -1.4159
 4299TIP3   OH234311   5.976   6.476  11.795 -0.2050 -0.1713 -0.2568
 4299TIP3    H134312   5.990   6.542  11.727  0.8541 -0.8470 -0.7178
 4299TIP3    H234313   6.058   6.427  11.799 -0.4927 -0.5930  1.0331
 4300TIP3   OH234314   6.587   4.917  16.239 -0.5089 -0.4232  0.2712
 4300TIP3    H134315   6.533   4.920  16.317  1.3679 -1.1190  1.6664
 4300TIP3    H234316   6.589   4.824  16.215 -0.4801 -0.3119 -0.1702
 4301TIP3   OH234317   5.698   6.201  12.389 -0.4795 -0.1078 -0.3766
 4301TIP3    H134318   5.709   6.280  12.442  0.4700 -0.6646  0.2900
 4301TIP3    H234319   5.650   6.231  12.311 -0.8086  0.9635  0.2169
 4302TIP3   OH234320   4.428   0.231   5.554 -0.4946 -0.1723  0.4279
 4302TIP3    H134321   4.441   0.300   5.489 -1.5032  1.0377  1.4661
 4302TIP3    H234322   4.410   0.278   5.636  1.3215 -1.6286  1.7634
 4303TIP3   OH234323   0.306   5.392   1.351  0.3999 -0.1607 -0.5448
 4303TIP3    H134324   0.323   5.343   1.431  3.1909  0.5975 -0.5628
 4303TIP3    H234325   0.211   5.391   1.342  0.0402 -0.9429  2.3289
 4304TIP3   OH234326   5.137   3.960   5.547  0.1500 -0.0225 -0.0373
 4304TIP3    H134327   5.201   3.968   5.475  0.9802 -1.2084  0.5264
 4304TIP3    H234328   5.135   3.866   5.566 -1.9881 -0.0466 -0.2007
 4305TIP3   OH234329   4.408   6.225   1.692 -0.0846  0.1683 -0.3834
 4305TIP3    H134330   4.465   6.266   1.626  0.1015  0.2374 -0.1799
 4305TIP3    H234331   4.332   6.283   1.697  0.5985  1.0108  0.5861
 4306TIP3   OH234332   4.654   1.954  11.282  0.5177 -0.1616  0.5073
 4306TIP3    H134333   4.642   1.948  11.187  0.3173 -1.8129  0.6077
 4306TIP3    H234334   4.565   1.951  11.317  0.6355 -0.5058  0.7808
 4307TIP3   OH234335   1.316   4.057   1.225  0.4393 -0.2613  0.3556
 4307TIP3    H134336   1.411   4.046   1.232  0.3059 -2.3594 -0.3322
 4307TIP3    H234337   1.303   4.111   1.147  1.0624 -0.1320  0.3399
 4308TIP3   OH234338   3.392   3.225  10.480 -0.1138 -0.0048  0.3642
 4308TIP3    H134339   3.460   3.158  10.483 -1.4562 -1.4151  0.6579
 4308TIP3    H234340   3.421   3.287  10.412 -0.5531 -2.8651 -2.6792
 4309TIP3   OH234341   5.797   2.878   0.780  0.1239  0.4254 -0.1467
 4309TIP3    H134342   5.850   2.834   0.713  0.2582  0.2941  0.0413
 4309TIP3    H234343   5.855   2.883   0.856  0.6844  2.3988 -0.6608
 4310TIP3   OH234344   6.462   5.255  13.019 -0.0920 -0.4964  0.1419
 4310TIP3    H134345   6.380   5.281  13.061 -0.9118 -0.8352 -1.1852
 4310TIP3    H234346   6.479   5.324  12.955  1.0487 -0.0691  0.8823
 4311TIP3   OH234347   6.783   2.775   1.013 -0.4703  0.0919 -0.2996
 4311TIP3    H134348   6.698   2.794   0.973 -0.2266  0.0446 -0.8457
 4311TIP3    H234349   6.789   2.835   1.087 -1.1290 -0.1354 -0.0508
 4312TIP3   OH234350   0.513   4.283  17.204 -0.2514 -0.1720 -0.5691
 4312TIP3    H134351   0.431   4.233  17.209 -1.4560  1.7853  1.0937
 4312TIP3    H234352   0.515   4.316  17.114 -1.7921  0.4112 -0.4340
 4313TIP3   OH234353   2.879   6.602   0.557 -0.0932  0.4058 -0.1332
 4313TIP3    H134354   2.907   6.512   0.541 -0.5239  0.2500 -0.0353
 4313TIP3    H234355   2.784   6.596   0.568 -0.0908  0.8328  0.1650
 4314TIP3   OH234356   0.318   5.756  13.742  0.7239 -0.1825 -0.0104
 4314TIP3    H134357   0.351   5.666  13.744 -0.8189 -0.8755 -2.2427
 4314TIP3    H234358   0.232   5.749  13.702 -0.3415  2.0784  1.6680
 4315TIP3   OH234359   4.861   5.441   0.835  0.1930  0.2541  0.0709
 4315TIP3    H134360   4.955   5.451   0.826  0.1053  0.2043 -1.0575
 4315TIP3    H234361   4.849   5.403   0.923  1.0963  1.6973  0.8542
 4316TIP3   OH234362   2.446   3.027   5.483  0.9118 -0.2397  0.4677
 4316TIP3    H134363   2.357   3.060   5.478  1.0597  0.1509  0.3988
 4316TIP3    H234364   2.491   3.065   5.408  0.4752 -2.5074 -1.0525
 4317TIP3   OH234365   4.592   6.326   1.487  0.5217  0.1827 -0.7677
 4317TIP3    H134366   4.611   6.405   1.437 -1.4363  2.1171  1.2918
 4317TIP3    H234367   4.671   6.310   1.538  0.3520  1.9097  0.0903
 4318TIP3   OH234368   4.581   3.654  13.570 -0.4925  0.0450  0.2916
 4318TIP3    H134369   4.629   3.725  13.527 -1.4824  0.5966  0.0731
 4318TIP3    H234370   4.539   3.606  13.499 -0.9267  0.0622  0.5321
 4319TIP3   OH234371   3.356   2.345   1.882  0.7506  0.3199  0.1585
 4319TIP3    H134372   3.306   2.372   1.805 -0.1049 -0.7508  0.3096
 4319TIP3    H234373   3.444   2.327   1.849  0.5758  0.5456 -0.4447
 4320TIP3   OH234374   1.426   1.134  11.079 -0.4015  0.2053  1.0555
 4320TIP3    H134375   1.445   1.049  11.119  0.5594  0.5846  1.4229
 4320TIP3    H234376   1.347   1.164  11.123 -0.1512 -0.0265  1.6763
 4321TIP3   OH234377   2.429   4.861  12.838  0.1873  0.1436 -0.1785
 4321TIP3    H134378   2.516   4.894  12.818  0.1540  0.8855  0.8880
 4321TIP3    H234379   2.412   4.797  12.768  0.9680  1.0587 -1.2478
 4322TIP3   OH234380   6.085   6.217   3.285  0.4147 -0.2094 -0.4325
 4322TIP3    H134381   6.133   6.174   3.356  1.5238 -1.9204 -2.1346
 4322TIP3    H234382   6.108   6.310   3.293  0.5769 -0.3703  1.3502
 4323TIP3   OH234383   4.699   0.649  15.874 -0.0382 -0.4650 -0.2560
 4323TIP3    H134384   4.785   0.647  15.916 -0.0330 -0.6227 -0.2723
 4323TIP3    H234385   4.637   0.638  15.946 -0.0221 -0.9375 -0.3096
 4324TIP3   OH234386   4.146   5.995   5.300 -0.2116 -0.1330 -0.2651
 4324TIP3    H134387   4.071   6.034   5.253  0.0152 -1.6408 -1.9528
 4324TIP3    H234388   4.141   5.902   5.280 -0.2272 -0.9339  2.9758
 4325TIP3   OH234389   0.370   4.818  13.143 -0.4485  0.6163  0.3618
 4325TIP3    H134390   0.390   4.830  13.050 -0.8480  0.7304  0.2887
 4325TIP3    H234391   0.282   4.854  13.154 -1.2550 -1.2032  0.3671
 4326TIP3   OH234392   4.544   5.013  16.341  0.3492 -0.0495  0.1426
 4326TIP3    H134393   4.504   4.962  16.271  0.7502  0.8722 -0.7809
 4326TIP3    H234394   4.471   5.065  16.377  0.4440  0.6909 -0.6983
 4327TIP3   OH234395   6.623   4.498  11.982 -0.6363 -0.3811  0.5338
 4327TIP3    H134396   6.566   4.568  12.015 -1.2322 -1.1381  1.1568
 4327TIP3    H234397   6.712   4.533  11.993 -0.9358  0.4107  0.5144
 4328TIP3   OH234398   5.742   6.155  16.250 -0.3361  0.7039 -0.2964
 4328TIP3    H134399   5.829   6.195  16.243 -0.2243  0.8163  1.2411
 4328TIP3    H234400   5.753   6.067  16.214  0.3737  0.7863 -0.2948
 4329TIP3   OH234401   6.116   0.736  12.399  0.8370 -0.2206 -0.0073
 4329TIP3    H134402   6.184   0.801  12.416 -0.6625  1.0533  1.5555
 4329TIP3    H234403   6.129   0.670  12.467 -0.3134  0.7910  1.2637
 4330TIP3   OH234404   1.522   1.983  14.338  0.1523  0.5626 -0.7573
 4330TIP3    H134405   1.451   1.926  14.365  0.1490  1.0171  0.2225
 4330TIP3    H234406   1.483   2.071  14.335  0.6800  0.8308 -0.1088
 4331TIP3   OH234407   5.177   6.360   6.049 -0.3818 -0.3121  0.7258
 4331TIP3    H134408   5.202   6.300   5.979 -1.1751 -0.5502  0.6316
 4331TIP3    H234409   5.219   6.324   6.127  2.0541  0.9850  0.1046
 4332TIP3   OH234410   6.610   6.707  15.806 -0.1812  0.1502  0.1159
 4332TIP3    H134411   6.625   6.616  15.833  0.5294  0.6050  1.3677
 4332TIP3    H234412   6.560   6.701  15.725 -1.8557 -1.3291  1.1930
 4333TIP3   OH234413   5.660   4.426  17.152 -0.3132  0.5705 -0.0128
 4333TIP3    H134414   5.619   4.432  17.239 -0.4595 -2.8494  0.2766
 4333TIP3    H234415   5.586   4.414  17.092 -0.0505 -1.2437 -0.0276
 4334TIP3   OH234416   4.559   1.502   1.912  0.1733  0.0899 -0.0461
 4334TIP3    H134417   4.640   1.467   1.950 -0.0323  1.1246  1.4439
 4334TIP3    H234418   4.496   1.430   1.917  0.4387 -0.0935  0.6582
 4335TIP3   OH234419   5.701   2.857  13.610  0.7703 -0.4071  0.1842
 4335TIP3    H134420   5.731   2.947  13.616  1.2837 -0.4492 -1.3057
 4335TIP3    H234421   5.781   2.805  13.611  0.4865 -0.8459  0.8612
 4336TIP3   OH234422   6.725   0.445  13.516  0.6221 -0.0051  0.7518
 4336TIP3    H134423   6.777   0.509  13.564  2.7504 -0.5438 -0.6644
 4336TIP3    H234424   6.764   0.361  13.538  1.1370 -0.3299 -1.2278
 4337TIP3   OH234425   6.002   4.077  11.661 -0.2104  0.1452 -0.3230
 4337TIP3    H134426   6.003   4.172  11.654  0.8143  0.1021 -0.8796
 4337TIP3    H234427   6.014   4.060  11.755 -0.5917  0.5602 -0.1952
 4338TIP3   OH234428   4.847   1.201  11.192 -0.2350 -0.3104 -0.3265
 4338TIP3    H134429   4.890   1.229  11.273 -0.3107  0.5390 -0.5690
 4338TIP3    H234430   4.753   1.203  11.212 -0.3139  0.9565 -0.7407
 4339TIP3   OH234431   5.454   2.559  12.032 -0.1893 -0.2312  0.4586
 4339TIP3    H134432   5.536   2.582  12.074 -0.4488 -0.3333  1.0204
 4339TIP3    H234433   5.439   2.628  11.967 -0.1044  0.2527  0.9573
 4340TIP3   OH234434   3.110   0.537   3.878  0.0357 -0.8721  0.0457
 4340TIP3    H134435   3.093   0.469   3.943 -0.7220  0.8121  1.7080
 4340TIP3    H234436   3.187   0.584   3.912 -0.6684  0.3379  0.0322
 4341TIP3   OH234437   4.740   2.704   0.240 -0.0555  0.1190 -0.0724
 4341TIP3    H134438   4.671   2.759   0.277 -1.4412 -1.1069 -0.7449
 4341TIP3    H234439   4.789   2.672   0.316 -0.1711  1.0574  0.4103
 4342TIP3   OH234440   2.273   6.094   1.573 -0.4916  0.5806  0.3476
 4342TIP3    H134441   2.178   6.105   1.567 -0.3470  0.8559 -2.8221
 4342TIP3    H234442   2.305   6.109   1.484  2.5515  0.5135  1.3186
 4343TIP3   OH234443   3.790   5.427  15.080  0.6178 -0.1864  0.3135
 4343TIP3    H134444   3.824   5.492  15.019  1.7621 -0.6450  0.4391
 4343TIP3    H234445   3.781   5.475  15.163 -2.2440  0.8172 -0.4298
 4344TIP3   OH234446   3.572   2.027   2.394 -0.5672 -0.1074 -0.4120
 4344TIP3    H134447   3.596   1.966   2.325  0.0029  0.7477 -0.9920
 4344TIP3    H234448   3.620   2.107   2.373 -0.2516  0.1265  1.0673
 4345TIP3   OH234449   4.360   6.347  12.551  0.2513  0.7049  0.5509
 4345TIP3    H134450   4.391   6.437  12.540  1.9356  0.0294 -0.7433
 4345TIP3    H234451   4.345   6.338  12.645  1.9651  1.7614  0.9661
 4346TIP3   OH234452   4.024   4.274  13.603 -0.0164  0.6406  0.5344
 4346TIP3    H134453   4.040   4.197  13.657 -0.2545  0.3067  0.1376
 4346TIP3    H234454   3.988   4.339  13.663 -0.0081  0.3735  0.8286
 4347TIP3   OH234455   1.499   0.852   1.026 -0.0214 -0.4467 -0.0521
 4347TIP3    H134456   1.428   0.850   1.089 -2.1898 -2.1373 -2.3342
 4347TIP3    H234457   1.529   0.943   1.025 -1.4848  0.0923  1.6686
 4348TIP3   OH234458   6.120   2.444  13.021 -0.5408 -0.2979 -0.6920
 4348TIP3    H134459   6.154   2.355  13.010 -1.3354 -0.5487 -1.2657
 4348TIP3    H234460   6.177   2.484  13.086 -0.4871 -1.3965 -0.0453
 4349TIP3   OH234461   1.213   5.174   0.483  0.0137 -0.0356 -0.2098
 4349TIP3    H134462   1.167   5.129   0.413 -0.7346  0.6425 -0.1692
 4349TIP3    H234463   1.301   5.191   0.448 -0.0897 -0.4324 -0.6661
 4350TIP3   OH234464   2.354   3.735   5.765  0.2473 -0.2791 -0.2428
 4350TIP3    H134465   2.407   3.659   5.791 -1.1859 -0.9971  0.7619
 4350TIP3    H234466   2.386   3.758   5.679  1.8394 -0.9914  0.1211
 4351TIP3   OH234467   5.876   1.630  14.677  0.1059 -0.6091  0.2921
 4351TIP3    H134468   5.830   1.713  14.692  0.0486 -0.3821 -1.0587
 4351TIP3    H234469   5.969   1.653  14.681  0.0888 -0.4198 -0.3934
 4352TIP3   OH234470   0.919   6.121   5.698 -0.1105 -0.0349  0.0744
 4352TIP3    H134471   0.856   6.053   5.675 -1.1386  0.4468  1.3325
 4352TIP3    H234472   0.998   6.074   5.722 -0.8387 -0.8089  1.0293
 4353TIP3   OH234473   4.812   3.347   3.662  0.7419 -0.2953  0.0519
 4353TIP3    H134474   4.873   3.397   3.608 -0.8259  0.7443 -0.8289
 4353TIP3    H234475   4.733   3.339   3.608  0.3213 -2.2033  0.8853
 4354TIP3   OH234476   1.762   6.090   2.799 -0.1691 -0.2143  0.1365
 4354TIP3    H134477   1.830   6.156   2.784 -0.2327 -0.1815 -0.0085
 4354TIP3    H234478   1.781   6.055   2.886 -0.4896  0.4186  0.4666
 4355TIP3   OH234479   0.861   5.890   1.447 -0.1939  0.6997  0.2869
 4355TIP3    H134480   0.792   5.837   1.405  2.2216 -2.1032 -0.5005
 4355TIP3    H234481   0.845   5.979   1.417 -1.4345 -0.4278 -2.7568
 4356TIP3   OH234482   6.294   6.747   5.230 -0.4777  0.1105  0.1623
 4356TIP3    H134483   6.255   6.786   5.152  0.2038 -1.1509 -0.8627
 4356TIP3    H234484   6.254   6.660   5.236 -0.1536  0.0026  0.9349
 4357TIP3   OH234485   5.173   2.192   6.108  0.1533  0.0066 -0.4392
 4357TIP3    H134486   5.139   2.248   6.178  1.2396 -0.8594  0.8315
 4357TIP3    H234487   5.268   2.205   6.111  0.2044  0.0983 -1.9073
 4358TIP3   OH234488   2.725   1.293  14.766  0.4778  0.2684  0.2391
 4358TIP3    H134489   2.737   1.231  14.838 -1.9620 -1.3470 -0.6209
 4358TIP3    H234490   2.673   1.365  14.804 -0.1086 -0.1895  0.3233
 4359TIP3   OH234491   1.523   4.208   4.541  0.3251  0.1504 -0.0410
 4359TIP3    H134492   1.501   4.161   4.460  0.2015  2.3236 -1.3432
 4359TIP3    H234493   1.617   4.224   4.534  0.0166  1.8925 -0.6736
 4360TIP3   OH234494   5.776   1.499  15.774  0.1750  0.5362  0.1998
 4360TIP3    H134495   5.844   1.534  15.833  0.9572 -1.4830  0.5776
 4360TIP3    H234496   5.785   1.404  15.781 -1.8818  0.2294 -0.7383
 4361TIP3   OH234497   1.124   1.393  14.379 -0.6025 -0.3473  0.1882
 4361TIP3    H134498   1.070   1.461  14.419 -0.0139 -0.0286  0.4516
 4361TIP3    H234499   1.186   1.441  14.324 -0.5628 -0.7064 -0.0846
 4362TIP3   OH234500   5.944   0.061  12.531  0.3187  0.5965 -0.6394
 4362TIP3    H134501   5.854   0.087  12.550  0.9036  1.1696  1.6256
 4362TIP3    H234502   5.937  -0.026  12.492 -1.2094  0.7190 -0.6819
 4363TIP3   OH234503   0.694   6.638   2.025  0.0984  0.2403 -0.4935
 4363TIP3    H134504   0.723   6.584   2.098 -0.9373 -2.0305 -1.6416
 4363TIP3    H234505   0.626   6.585   1.982  0.3181  1.6917 -2.8007
 4364TIP3   OH234506   1.728   6.316  14.971  0.3563 -0.5957  0.0133
 4364TIP3    H134507   1.741   6.224  14.946 -2.3951 -0.7559 -1.1651
 4364TIP3    H234508   1.773   6.366  14.903 -1.1378 -1.1053 -1.4074
 4365TIP3   OH234509   2.835   6.019  13.090  0.4291  0.2857 -0.3811
 4365TIP3    H134510   2.777   5.974  13.028 -0.2368  1.6126 -0.7658
 4365TIP3    H234511   2.923   5.996  13.060  0.1424 -1.5804  0.0729
 4366TIP3   OH234512   2.735   2.161   4.742 -0.6357  0.4337  0.2363
 4366TIP3    H134513   2.739   2.226   4.812  0.2173 -0.3738  0.9703
 4366TIP3    H234514   2.720   2.211   4.662  2.4582  1.8207  0.3955
 4367TIP3   OH234515   2.176   4.532  12.038  0.0035  0.1475 -0.3687
 4367TIP3    H134516   2.196   4.616  12.078  0.1631 -0.0600 -0.0032
 4367TIP3    H234517   2.105   4.550  11.976 -0.6839  0.3650  0.4617
 4368TIP3   OH234518   2.044   2.637   0.047  0.3798 -0.4345  0.2740
 4368TIP3    H134519   1.951   2.641   0.071  0.1311 -0.0319 -0.6988
 4368TIP3    H234520   2.082   2.715   0.086 -0.3083  0.9808 -1.6805
 4369TIP3   OH234521   1.993   1.482   4.502 -0.2405  0.5399  0.1348
 4369TIP3    H134522   2.013   1.398   4.543 -1.2814 -0.1648 -0.7583
 4369TIP3    H234523   2.079   1.522   4.486  0.3399 -0.9624 -0.6914
 4370TIP3   OH234524   2.290   5.672   0.672 -0.1973 -0.1937 -0.5035
 4370TIP3    H134525   2.339   5.648   0.751 -1.1543 -0.4841  0.0060
 4370TIP3    H234526   2.225   5.735   0.703 -0.3929 -0.0918 -1.1193
 4371TIP3   OH234527   2.835   0.196   4.513  0.6957  0.4715  0.0437
 4371TIP3    H134528   2.903   0.174   4.449  0.8285  0.8875  0.0357
 4371TIP3    H234529   2.818   0.290   4.498 -1.2763 -0.0133 -1.2989
 4372TIP3   OH234530   1.803   1.444  16.872  0.4271  0.7626 -0.7456
 4372TIP3    H134531   1.814   1.529  16.830  2.1400  1.4162  0.8725
 4372TIP3    H234532   1.719   1.449  16.916  0.4939  1.6059 -0.6996
 4373TIP3   OH234533   6.435   4.214   3.962  0.1105 -0.4189  0.0333
 4373TIP3    H134534   6.529   4.217   3.980  0.2925  0.9429 -0.9246
 4373TIP3    H234535   6.400   4.293   4.004 -0.4288 -0.3864 -0.4613
 4374TIP3   OH234536   2.715   2.640  14.639  0.3093  0.3051  0.1692
 4374TIP3    H134537   2.746   2.600  14.720  1.7613  0.9531 -0.0280
 4374TIP3    H234538   2.760   2.725  14.635  0.9684 -0.0742 -1.7159
 4375TIP3   OH234539   0.010   3.512   0.977  0.4250 -0.5676  0.5612
 4375TIP3    H134540  -0.034   3.433   0.948 -0.5333  1.3224 -3.8792
 4375TIP3    H234541   0.100   3.502   0.947  0.4329 -0.1734  0.4472
 4376TIP3   OH234542   0.489   2.048   2.511 -0.0185  0.4096  0.2099
 4376TIP3    H134543   0.394   2.052   2.517 -0.0130  2.4884 -0.4979
 4376TIP3    H234544   0.519   2.061   2.601 -0.3972  2.2228  0.1084
 4377TIP3   OH234545   3.630   1.486   6.429 -0.2332  0.0320 -0.0047
 4377TIP3    H134546   3.612   1.456   6.340  1.0360 -2.8789  0.5853
 4377TIP3    H234547   3.725   1.485   6.437 -0.3337 -1.1851  1.7370
 4378TIP3   OH234548   0.992   6.400  16.220  0.1334  0.6015 -0.0830
 4378TIP3    H134549   0.984   6.425  16.312  3.1422  1.2775  0.0787
 4378TIP3    H234550   0.949   6.315  16.214  0.3044  0.3209  2.0392
 4379TIP3   OH234551   3.503   0.477   5.752 -0.0181 -0.0056  0.5418
 4379TIP3    H134552   3.533   0.517   5.834 -2.8459  0.5336  1.3993
 4379TIP3    H234553   3.453   0.400   5.779  0.2041 -0.6600 -0.7978
 4380TIP3   OH234554   1.613   6.751   1.886 -0.3339  0.1040 -0.3213
 4380TIP3    H134555   1.622   6.659   1.909 -0.9721 -0.0887 -0.8212
 4380TIP3    H234556   1.518   6.766   1.883 -0.3539 -0.0978 -3.6158
 4381TIP3   OH234557   3.073   1.412  16.418  0.0530  0.1076  0.2097
 4381TIP3    H134558   3.139   1.363  16.369  0.4794 -0.2611  1.1189
 4381TIP3    H234559   3.124   1.462  16.482 -0.4784  0.6475  0.2129
 4382TIP3   OH234560   3.962   5.519  16.891  0.3188 -0.2553  0.4547
 4382TIP3    H134561   3.948   5.443  16.947  0.4295 -0.0618  0.7498
 4382TIP3    H234562   3.890   5.516  16.828 -0.6533  0.3207  1.4968
 4383TIP3   OH234563   6.320   4.490  17.037  1.0215  0.2449 -0.2107
 4383TIP3    H134564   6.379   4.486  17.113  0.8719  1.7948  0.0044
 4383TIP3    H234565   6.262   4.415  17.049 -0.1844  1.4470  2.2226
 4384TIP3   OH234566   5.163   3.541  15.462 -0.6769  0.5283  0.3089
 4384TIP3    H134567   5.249   3.502  15.478 -0.7404  0.6078  0.8742
 4384TIP3    H234568   5.147   3.595  15.539 -0.9883  0.9583 -0.0561
 4385TIP3   OH234569   0.055   0.498  15.726 -0.8663 -0.1753  0.0554
 4385TIP3    H134570   0.021   0.434  15.788 -2.0514  0.0902 -0.2912
 4385TIP3    H234571  -0.018   0.558  15.711  0.4931  1.8709  1.1279
 4386TIP3   OH234572   5.912   6.756  16.125 -0.0240  0.2522  0.9109
 4386TIP3    H134573   5.870   6.776  16.042  0.7214 -0.3059  0.3883
 4386TIP3    H234574   5.943   6.840  16.158 -0.3646  0.4785  0.6505
 4387TIP3   OH234575   5.090   4.219  15.838 -0.0931  0.2682 -0.2683
 4387TIP3    H134576   5.037   4.160  15.784 -0.6375 -0.2724  0.8197
 4387TIP3    H234577   5.179   4.210  15.804 -0.4332 -0.0172 -1.0970
 4388TIP3   OH234578   3.079   6.008   4.047  0.2282  0.8016 -0.1116
 4388TIP3    H134579   2.995   5.965   4.061 -0.0813  1.6153  0.6472
 4388TIP3    H234580   3.121   6.007   4.134  0.4734  1.4662 -0.2132
 4389TIP3   OH234581   4.360   0.845   2.767  0.3532 -0.1386  0.0488
 4389TIP3    H134582   4.305   0.923   2.772 -0.7084 -0.7450 -1.4446
 4389TIP3    H234583   4.447   0.877   2.743  0.8199  0.8700  2.7765
 4390TIP3   OH234584   2.545   1.523  15.889 -0.1890 -0.3488 -0.4743
 4390TIP3    H134585   2.546   1.458  15.959 -0.5204 -0.5772 -0.6775
 4390TIP3    H234586   2.637   1.539  15.869 -0.0810 -0.0169  0.2513
 4391TIP3   OH234587   5.816   0.649   2.339 -0.1110  0.2246 -0.7412
 4391TIP3    H134588   5.895   0.596   2.336 -0.0808  0.1427  0.7298
 4391TIP3    H234589   5.788   0.645   2.430 -1.6584  0.4835 -1.1761
 4392TIP3   OH234590   3.637   1.232   0.895 -0.0961  0.2515 -0.2913
 4392TIP3    H134591   3.714   1.267   0.940  0.3964 -1.9124  0.6269
 4392TIP3    H234592   3.599   1.170   0.956 -0.5283 -1.3416 -2.1019
 4393TIP3   OH234593   4.844   5.995  11.061 -0.1071  0.1678 -0.5404
 4393TIP3    H134594   4.796   6.067  11.102  1.4205  1.2968 -0.6505
 4393TIP3    H234595   4.777   5.942  11.018 -1.3749  0.9015  0.4631
 4394TIP3   OH234596   2.299   1.188  14.479  0.1113 -0.0693  0.5865
 4394TIP3    H134597   2.374   1.213  14.533 -0.2020  0.9830  0.5547
 4394TIP3    H234598   2.251   1.124  14.532 -0.2141  0.9744  1.5751
 4395TIP3   OH234599   6.258   2.011  16.351  0.4131 -0.3576  0.9278
 4395TIP3    H134600   6.335   1.969  16.312 -1.1402 -1.4301 -1.2342
 4395TIP3    H234601   6.200   1.938  16.372 -2.9116  0.3690 -4.0808
 4396TIP3   OH234602   0.864   0.123   4.744 -0.5595  0.0485  0.0571
 4396TIP3    H134603   0.837   0.050   4.799  1.3591 -0.9880 -0.3044
 4396TIP3    H234604   0.946   0.095   4.704 -0.2992  1.9949 -0.9248
 4397TIP3   OH234605   2.104   0.502   1.078 -0.1525  0.2675 -0.2060
 4397TIP3    H134606   2.010   0.488   1.078 -0.2594  0.8418 -1.6822
 4397TIP3    H234607   2.123   0.542   1.163 -0.9132 -1.6876  0.9543
 4398TIP3   OH234608   3.901   3.085   4.128  0.2075 -0.3359 -0.0890
 4398TIP3    H134609   3.806   3.085   4.122  0.1397 -0.4763  0.8080
 4398TIP3    H234610   3.920   3.114   4.217  1.0142 -0.0243 -0.3497
 4399TIP3   OH234611   5.518   5.124   1.863 -0.7984 -0.0351 -0.6178
 4399TIP3    H134612   5.575   5.048   1.860 -1.6988 -0.7038 -1.3293
 4399TIP3    H234613   5.577   5.198   1.874  0.3544 -0.5552 -2.8268
 4400TIP3   OH234614   2.206   0.451   3.203 -0.0297  0.1401 -0.1243
 4400TIP3    H134615   2.167   0.453   3.290  0.5723  0.0297  0.1509
 4400TIP3    H234616   2.297   0.476   3.216 -0.2531  1.4699 -0.9073
 4401TIP3   OH234617   6.614   3.206  13.940 -0.1544  0.1942  0.2208
 4401TIP3    H134618   6.666   3.234  13.865  0.8180  0.2492  0.8992
 4401TIP3    H234619   6.677   3.199  14.012 -0.7641 -1.5008  0.6382
 4402TIP3   OH234620   0.957   3.467   5.938  0.2199 -0.1663 -0.1280
 4402TIP3    H134621   0.943   3.561   5.952  0.0002 -0.2930  0.5218
 4402TIP3    H234622   0.942   3.428   6.024 -2.0587 -1.0847 -0.8899
 4403TIP3   OH234623   5.452   6.629  14.741 -0.0349  0.2736 -0.4633
 4403TIP3    H134624   5.541   6.628  14.705  0.1800  0.1213  0.0755
 4403TIP3    H234625   5.400   6.582  14.675  0.4300 -0.3497 -0.3968
 4404TIP3   OH234626   0.926   5.000   5.488  0.6894 -0.0219  0.9573
 4404TIP3    H134627   0.968   4.958   5.413 -0.2230 -1.0764  1.0027
 4404TIP3    H234628   0.852   5.048   5.451 -0.5392 -1.5873  1.2596
 4405TIP3   OH234629   5.377   1.090   0.343  0.5231  0.6183  0.7973
 4405TIP3    H134630   5.387   1.066   0.435  0.5586 -1.5756  0.2879
 4405TIP3    H234631   5.282   1.086   0.327  0.6750 -1.9133  0.1132
 4406TIP3   OH234632   5.483   4.759   1.780 -0.3406 -0.8657 -0.0771
 4406TIP3    H134633   5.412   4.805   1.824 -0.5067  1.1041 -2.1667
 4406TIP3    H234634   5.562   4.801   1.812 -0.3325 -0.8494 -0.1175
 4407TIP3   OH234635   1.345   1.396  13.195  0.6153 -0.1311  0.6164
 4407TIP3    H134636   1.293   1.435  13.265  0.1281 -3.0135  2.0417
 4407TIP3    H234637   1.380   1.470  13.146 -2.5002  1.9677  1.2858
 4408TIP3   OH234638   4.649   6.025   1.354 -0.0022 -1.1648 -0.4271
 4408TIP3    H134639   4.733   6.071   1.349 -0.2764 -0.6573 -0.3696
 4408TIP3    H234640   4.592   6.083   1.404 -0.5316 -1.2925 -0.8738
 4409TIP3   OH234641   2.607   5.445   2.109  0.3060 -0.5535  0.2475
 4409TIP3    H134642   2.618   5.464   2.202  2.5524 -2.2056  0.4049
 4409TIP3    H234643   2.666   5.506   2.066 -0.3893 -0.1014 -0.0777
 4410TIP3   OH234644   1.644   4.792   1.632 -0.6701 -0.0179 -0.5057
 4410TIP3    H134645   1.707   4.807   1.702 -1.4522  1.7253 -0.1175
 4410TIP3    H234646   1.559   4.787   1.676 -0.9864 -0.8025 -1.1642
 4411TIP3   OH234647   2.935   0.231  15.745  0.1556 -0.1213 -0.0537
 4411TIP3    H134648   2.950   0.151  15.695  1.0720 -0.2648  0.4326
 4411TIP3    H234649   2.841   0.233  15.761 -0.4519  0.7075 -3.0977
 4412TIP3   OH234650   3.872   3.912   4.853  0.1961 -0.0845  0.0815
 4412TIP3    H134651   3.936   3.974   4.887 -2.1193  0.6264  3.6044
 4412TIP3    H234652   3.830   3.958   4.781  2.3399  0.0874 -1.1400
 4413TIP3   OH234653   0.883   6.149   1.328  0.0386  0.7145 -0.1289
 4413TIP3    H134654   0.789   6.152   1.312 -0.4496 -0.8830  1.9408
 4413TIP3    H234655   0.904   6.235   1.364 -1.0437  0.4935  1.1224
 4414TIP3   OH234656   2.909   4.203  16.786  0.0095 -0.0724  0.7619
 4414TIP3    H134657   2.823   4.244  16.787  0.3691  0.7056  0.5842
 4414TIP3    H234658   2.910   4.149  16.865  0.3766  2.1113  2.3505
 4415TIP3   OH234659   5.200   4.241   1.809  0.8241  0.1759  0.5888
 4415TIP3    H134660   5.195   4.174   1.877 -1.3454  0.4729  0.8059
 4415TIP3    H234661   5.263   4.207   1.745  0.7219 -1.4634  1.3207
 4416TIP3   OH234662   3.673   6.712   3.011 -0.0404 -0.2563 -0.0780
 4416TIP3    H134663   3.684   6.659   2.931 -2.3628 -0.4434 -0.3212
 4416TIP3    H234664   3.579   6.722   3.021  0.2349  0.7822  2.0167
 4417TIP3   OH234665   6.333   0.139  12.306 -0.4135 -0.3580 -0.2743
 4417TIP3    H134666   6.401   0.088  12.261 -1.2038 -1.4473 -0.2742
 4417TIP3    H234667   6.263   0.076  12.323 -1.9438  0.9835 -1.3098
 4418TIP3   OH234668   6.648   5.904   4.901  0.3103 -0.0570 -0.1023
 4418TIP3    H134669   6.634   5.938   4.990  1.8810 -0.0952  0.1932
 4418TIP3    H234670   6.658   5.981   4.846  1.2128 -0.0157  0.1021
 4419TIP3   OH234671   2.379   5.441   5.020  0.7384  0.0976 -0.5604
 4419TIP3    H134672   2.284   5.450   5.009  0.7308  1.2157  0.2913
 4419TIP3    H234673   2.389   5.362   5.073  0.2558  0.3072 -0.1531
 4420TIP3   OH234674   5.679   6.714  10.835  0.1948  0.0021  0.4240
 4420TIP3    H134675   5.753   6.697  10.893 -0.1150  1.6581  1.3659
 4420TIP3    H234676   5.701   6.667  10.755  2.1446  0.2174  0.7703
 4421TIP3   OH234677   0.884   1.644  14.820 -0.1783  0.2295  0.4012
 4421TIP3    H134678   0.801   1.657  14.867 -0.5002 -2.1570  0.6528
 4421TIP3    H234679   0.862   1.584  14.749  1.0514  0.8333 -0.5249
 4422TIP3   OH234680   5.814   3.965   6.473 -0.3074  0.5159  0.0037
 4422TIP3    H134681   5.858   3.903   6.532  0.0967  0.1307 -0.6858
 4422TIP3    H234682   5.837   4.051   6.507 -0.4236  0.2993  0.6514
 4423TIP3   OH234683   3.498   6.465  13.092 -0.5255  0.5309 -0.0923
 4423TIP3    H134684   3.542   6.466  13.177 -0.6972  2.4802  0.0085
 4423TIP3    H234685   3.546   6.530  13.040 -1.3285  0.4048 -1.0046
 4424TIP3   OH234686   3.504   3.833   6.199 -0.4953  0.4204 -0.4300
 4424TIP3    H134687   3.518   3.757   6.255  1.0274  2.1739  1.7927
 4424TIP3    H234688   3.415   3.823   6.166 -0.6391 -1.8502  0.4882
 4425TIP3   OH234689   2.632   4.956  15.257 -0.1989 -0.4590 -0.2715
 4425TIP3    H134690   2.631   5.014  15.181  0.4565 -2.0839 -1.5606
 4425TIP3    H234691   2.696   4.889  15.236  0.6604 -0.4984  2.1055
 4426TIP3   OH234692   2.414   6.173   6.925  0.2406 -0.1654  0.0673
 4426TIP3    H134693   2.407   6.188   6.831 -1.1048 -2.3423 -0.2405
 4426TIP3    H234694   2.487   6.112   6.934 -0.1402 -0.5858  0.3494
 4427TIP3   OH234695   5.659   5.338   1.651  0.5071  0.2829 -0.5142
 4427TIP3    H134696   5.689   5.396   1.581  0.6422  1.0445  0.1670
 4427TIP3    H234697   5.651   5.394   1.728 -1.7395 -0.0657 -0.4070
 4428TIP3   OH234698   6.147   6.054  15.722 -0.4966 -0.7515  0.5973
 4428TIP3    H134699   6.214   6.099  15.773 -0.2563  1.6069 -1.6054
 4428TIP3    H234700   6.176   5.962  15.721  2.6902  0.1395 -0.1636
 4429TIP3   OH234701   0.656   3.171  16.465 -0.6594  0.8415  0.1904
 4429TIP3    H134702   0.630   3.216  16.546 -1.7485  1.1722 -0.3182
 4429TIP3    H234703   0.633   3.232  16.395 -0.9534  0.0331 -0.4418
 4430TIP3   OH234704   6.194   2.777   0.069 -0.1380  0.1476  0.2704
 4430TIP3    H134705   6.165   2.867   0.060 -1.0504  0.0274  1.7355
 4430TIP3    H234706   6.278   2.774   0.024 -0.7441  1.3771 -0.9922
 4431TIP3   OH234707   4.411   0.921  11.310  0.7877 -0.2125 -0.2252
 4431TIP3    H134708   4.355   0.992  11.281 -4.1718 -3.2391  0.8208
 4431TIP3    H234709   4.402   0.920  11.405  4.0349  0.0429  0.1945
 4432TIP3   OH234710   2.900   1.851   4.054 -0.9796 -0.4414 -0.3327
 4432TIP3    H134711   2.889   1.762   4.087  1.1998 -0.3700  0.7422
 4432TIP3    H234712   2.870   1.907   4.125 -1.1066 -0.3001 -0.4969
 4433TIP3   OH234713   0.194   4.375   1.777  0.1234 -0.4757  0.2787
 4433TIP3    H134714   0.099   4.387   1.780  0.1863 -0.1089  2.0533
 4433TIP3    H234715   0.209   4.314   1.705 -1.4465 -0.4994 -0.0539
 4434TIP3   OH234716   5.881   2.184   0.146 -0.3940  0.5214  0.2958
 4434TIP3    H134717   5.967   2.178   0.186  0.2708 -0.1206 -1.1620
 4434TIP3    H234718   5.825   2.129   0.201  0.2806  0.3632  0.8398
 4435TIP3   OH234719   6.439   5.032   2.972 -0.2287 -0.2719  0.1008
 4435TIP3    H134720   6.451   5.020   3.066 -0.6682 -0.4615  0.1353
 4435TIP3    H234721   6.498   4.970   2.931  0.9027  0.6853  0.2350
 4436TIP3   OH234722   0.539   6.475   0.953  0.0715 -0.1350  0.1074
 4436TIP3    H134723   0.573   6.564   0.958 -1.0166  0.4453 -1.8801
 4436TIP3    H234724   0.445   6.486   0.937  0.0235 -1.6150 -0.8390
 4437TIP3   OH234725   5.203   4.848  16.506 -0.7491  0.9360 -0.2903
 4437TIP3    H134726   5.269   4.912  16.531 -0.5054  0.2394  0.9152
 4437TIP3    H234727   5.186   4.866  16.413  1.3981  0.9039 -0.7438
 4438TIP3   OH234728   0.147   2.706  12.108 -0.0219  0.0223  0.3291
 4438TIP3    H134729   0.183   2.630  12.062 -0.0127 -0.3417  0.9310
 4438TIP3    H234730   0.053   2.689  12.113 -0.2704  0.8266 -0.9685
 4439TIP3   OH234731   6.155   2.228   2.007 -0.0942 -0.1751  0.0111
 4439TIP3    H134732   6.121   2.315   2.030  0.2767 -0.1001  0.2860
 4439TIP3    H234733   6.175   2.234   1.914 -0.4270 -0.0848 -0.0564
 4440TIP3   OH234734   0.110   4.427   1.044 -0.4668  0.2236  0.4232
 4440TIP3    H134735   0.194   4.389   1.067  0.1066  0.1264 -1.6226
 4440TIP3    H234736   0.077   4.372   0.972 -1.3662  1.3695 -0.0882
 4441TIP3   OH234737   0.948   3.606   1.031  0.8875  0.2429 -0.1190
 4441TIP3    H134738   0.860   3.572   1.043  0.0094  1.1478 -3.2375
 4441TIP3    H234739   1.004   3.528   1.029 -0.0735 -0.4647  0.0454
 4442TIP3   OH234740   3.099   1.831   4.755  0.1090 -0.1258 -0.1357
 4442TIP3    H134741   3.172   1.777   4.786  0.1458 -0.0545 -0.0990
 4442TIP3    H234742   3.022   1.773   4.762 -0.1183  0.3266  1.4169
 4443TIP3   OH234743   2.149   4.287   4.390  0.3316 -0.6090 -0.4867
 4443TIP3    H134744   2.102   4.211   4.356  0.0601 -0.2986 -0.8247
 4443TIP3    H234745   2.203   4.253   4.461  1.3635 -1.3846 -1.6088
 4444TIP3   OH234746   1.276   1.074  15.168  0.3502  0.2932  0.0220
 4444TIP3    H134747   1.334   1.059  15.243 -1.3496  0.4279  1.4339
 4444TIP3    H234748   1.247   1.165  15.178 -1.0418 -0.1315  0.0731
 4445TIP3   OH234749   6.513   5.561   1.033  0.0452 -0.1749 -0.1140
 4445TIP3    H134750   6.469   5.476   1.028  2.9347 -1.9129  1.3630
 4445TIP3    H234751   6.449   5.619   1.075 -1.9252 -1.6280 -0.9690
 4446TIP3   OH234752   4.796   4.886  11.862 -0.5070 -0.2276 -0.4688
 4446TIP3    H134753   4.774   4.942  11.788 -1.4767 -0.6401 -0.5037
 4446TIP3    H234754   4.803   4.946  11.936  1.8464  0.3985 -1.0902
 4447TIP3   OH234755   6.785   4.568   3.348  0.0088 -0.1205 -0.3033
 4447TIP3    H134756   6.862   4.607   3.305 -0.3993 -0.4864 -1.4002
 4447TIP3    H234757   6.817   4.540   3.434  0.3934  2.3378  0.4228
 4448TIP3   OH234758   2.455   0.147  16.376  0.4150  0.3499  0.3098
 4448TIP3    H134759   2.519   0.190  16.432 -0.3663  2.5834 -0.4138
 4448TIP3    H234760   2.497   0.141  16.291  1.0420 -1.7191  0.6865
 4449TIP3   OH234761   1.316   4.381  16.413  0.5960  0.1546 -0.1130
 4449TIP3    H134762   1.387   4.344  16.360  1.1776 -0.1250  0.8337
 4449TIP3    H234763   1.239   4.329  16.390  0.3376  1.3581 -2.1932
 4450TIP3   OH234764   0.287   0.931  16.422 -0.6007 -0.2362  0.5830
 4450TIP3    H134765   0.374   0.899  16.443 -0.7290 -0.0801  1.4056
 4450TIP3    H234766   0.280   0.924  16.327  0.6749  0.7026  0.3996
 4451TIP3   OH234767   3.524   2.976   3.806 -0.2818  0.3341  0.7000
 4451TIP3    H134768   3.464   3.021   3.865  0.1021  0.9061  0.6732
 4451TIP3    H234769   3.556   3.045   3.747 -1.5390 -0.4212 -0.9513
 4452TIP3   OH234770   6.461   2.942  16.470  0.0780  0.0164 -0.0456
 4452TIP3    H134771   6.538   2.996  16.453 -0.6853  1.0469 -0.3267
 4452TIP3    H234772   6.429   2.918  16.383  0.6245 -1.2632  0.0683
 4453TIP3   OH234773   2.859   5.583  11.216 -0.1294 -0.7523 -0.3066
 4453TIP3    H134774   2.923   5.537  11.163 -1.0623  0.0072 -2.2003
 4453TIP3    H234775   2.900   5.668  11.235  0.0103 -0.8350 -0.2401
 4454TIP3   OH234776   5.562   6.275  14.930 -0.7263 -0.1367 -0.6736
 4454TIP3    H134777   5.643   6.236  14.897 -0.1636  0.1539  0.2995
 4454TIP3    H234778   5.503   6.276  14.855 -0.4640 -2.0327 -0.9549
 4455TIP3   OH234779   1.487   1.204   1.657 -0.4376  0.2817  0.4907
 4455TIP3    H134780   1.549   1.261   1.701 -0.5851 -0.1904  1.3466
 4455TIP3    H234781   1.402   1.247   1.669 -0.5074  0.0460  0.8742
 4456TIP3   OH234782   3.144   2.449  13.162  0.2532  0.4740 -0.5534
 4456TIP3    H134783   3.105   2.370  13.198  2.6909 -1.1448 -1.2183
 4456TIP3    H234784   3.229   2.456  13.205  0.7795  1.8074 -1.7126
 4457TIP3   OH234785   3.673   6.453  15.030 -0.4318 -0.0583 -0.0484
 4457TIP3    H134786   3.683   6.515  15.103  1.0259  0.5985 -0.7796
 4457TIP3    H234787   3.751   6.398  15.034 -0.3737 -0.0593 -1.0708
 4458TIP3   OH234788   1.837   5.690  11.793  0.0603 -0.0631  0.3914
 4458TIP3    H134789   1.774   5.753  11.828  1.8897  1.7308  0.6330
 4458TIP3    H234790   1.801   5.663  11.709 -0.5774  1.6783  0.0707
 4459TIP3   OH234791   3.419   2.716   3.333  0.1457  0.2902 -0.2156
 4459TIP3    H134792   3.341   2.665   3.312  0.1167  0.6058 -0.8987
 4459TIP3    H234793   3.388   2.781   3.397  0.4489 -1.2954  1.6201
 4460TIP3   OH234794   3.860   0.030  14.197 -0.3486 -0.4100  0.2076
 4460TIP3    H134795   3.920   0.018  14.271 -1.7014 -0.0673  1.4073
 4460TIP3    H234796   3.883  -0.041  14.136  1.9320  0.3243  0.1245
 4461TIP3   OH234797   4.330   5.892   1.114 -0.4311 -0.1858 -0.2216
 4461TIP3    H134798   4.250   5.851   1.147 -0.3507 -0.6066 -0.5383
 4461TIP3    H234799   4.302   5.938   1.035 -0.3383 -0.4325 -0.3986
 4462TIP3   OH234800   6.356   1.300  14.969 -0.2892 -0.0386  0.0135
 4462TIP3    H134801   6.327   1.339  14.886 -1.4571 -1.2508 -0.1695
 4462TIP3    H234802   6.390   1.214  14.944  2.0023  0.6684  0.4526
 4463TIP3   OH234803   5.349   1.541  14.580 -0.4328 -0.2835  0.0319
 4463TIP3    H134804   5.290   1.498  14.518 -0.5380 -2.7041  1.6641
 4463TIP3    H234805   5.410   1.471  14.607  2.1170  1.6716 -0.2843
 4464TIP3   OH234806   6.532   3.981  13.682 -0.6429 -0.2595 -0.5556
 4464TIP3    H134807   6.530   3.885  13.685  1.7855 -0.4968 -2.7656
 4464TIP3    H234808   6.447   4.008  13.718 -0.7081 -3.1252  1.8423
 4465TIP3   OH234809   4.665   1.981   4.383 -0.1137  0.3043  0.3800
 4465TIP3    H134810   4.690   1.950   4.296 -0.5476 -0.7256  0.6047
 4465TIP3    H234811   4.657   2.076   4.374  2.5524  0.5547 -0.0244
 4466TIP3   OH234812   0.173   5.139   1.832  0.2017 -0.0494 -0.8257
 4466TIP3    H134813   0.142   5.055   1.865  1.1064  0.1026  0.4553
 4466TIP3    H234814   0.130   5.204   1.887 -0.2367  0.3284 -1.5974
 4467TIP3   OH234815   5.177   2.538   3.332 -0.0349  0.0530  0.0539
 4467TIP3    H134816   5.259   2.490   3.326 -0.5900 -0.8359 -0.6682
 4467TIP3    H234817   5.109   2.473   3.310 -0.9606  0.6655  1.0088
 4468TIP3   OH234818   2.368   4.701  15.126  0.2759  0.0014  0.0247
 4468TIP3    H134819   2.328   4.786  15.110  0.2785  0.2180  1.1207
 4468TIP3    H234820   2.306   4.638  15.089  0.1744  0.4543 -0.6021
 4469TIP3   OH234821   0.211   1.331  14.612  0.8748 -0.2688  0.9455
 4469TIP3    H134822   0.191   1.404  14.670  0.2423  0.9713 -0.7258
 4469TIP3    H234823   0.277   1.366  14.552 -0.3495 -0.6031 -0.6716
 4470TIP3   OH234824   3.912   1.661  16.835  0.1152 -0.2007  0.3801
 4470TIP3    H134825   3.930   1.690  16.925  2.1022 -1.2581  0.3952
 4470TIP3    H234826   3.898   1.742  16.786  2.8808  0.7225  0.9227
 4471TIP3   OH234827   0.862   0.258  15.888 -0.0379  0.9630  0.3502
 4471TIP3    H134828   0.950   0.268  15.926  0.3164  1.6956 -0.6146
 4471TIP3    H234829   0.838   0.167  15.907  1.1861  0.5720  0.1190
 4472TIP3   OH234830   3.955   6.630  13.668 -0.2669  0.5529  0.5322
 4472TIP3    H134831   4.043   6.654  13.638 -1.2284  1.1160 -2.0917
 4472TIP3    H234832   3.940   6.543  13.631 -1.5048  1.2704 -0.7527
 4473TIP3   OH234833   1.361   4.346  13.374 -0.0988  0.7127  0.1084
 4473TIP3    H134834   1.325   4.297  13.448 -0.3690  0.5429 -0.1336
 4473TIP3    H234835   1.418   4.284  13.329 -2.4823 -0.2671 -1.7504
 4474TIP3   OH234836   0.923   3.988   1.218 -0.4089 -0.2856  0.1859
 4474TIP3    H134837   0.926   4.021   1.308  0.0185  0.6223 -0.1533
 4474TIP3    H234838   0.833   3.955   1.208 -0.5303 -0.1791  0.8602
 4475TIP3   OH234839   3.039   4.791  13.095 -0.0948  0.1411 -0.1502
 4475TIP3    H134840   3.081   4.768  13.012  2.2481 -2.2094  1.5081
 4475TIP3    H234841   3.058   4.884  13.107 -0.7065  0.5987 -2.2946
 4476TIP3   OH234842   5.579   2.973  16.616 -0.3390 -0.1582 -0.1415
 4476TIP3    H134843   5.668   2.982  16.650 -1.0469  1.1714  1.5349
 4476TIP3    H234844   5.588   2.917  16.539  1.9756  0.1751 -0.1844
 4477TIP3   OH234845   2.274   2.858   1.231 -0.0929  0.4332 -0.4899
 4477TIP3    H134846   2.309   2.910   1.304 -2.8167  1.6975  0.0283
 4477TIP3    H234847   2.222   2.789   1.272 -3.4841  2.4361 -1.0336
 4478TIP3   OH234848   4.465   4.390  12.100  0.6827 -0.7123 -0.2559
 4478TIP3    H134849   4.549   4.410  12.142  1.1092 -1.6365 -0.6302
 4478TIP3    H234850   4.486   4.386  12.006 -0.1049  0.5900 -0.5088
 4479TIP3   OH234851   0.108   0.488   4.671 -0.3058 -0.0962 -0.1895
 4479TIP3    H134852   0.105   0.552   4.742 -1.7335  0.0006 -0.3075
 4479TIP3    H234853   0.176   0.427   4.697 -1.1709 -0.3829  1.5715
 4480TIP3   OH234854   3.647   1.491  12.196  0.6989 -0.0288 -0.2423
 4480TIP3    H134855   3.737   1.467  12.217  0.4712  0.7590  1.9388
 4480TIP3    H234856   3.609   1.412  12.159  1.8413 -0.8716  0.3097
 4481TIP3   OH234857   5.226   0.664   1.501  0.8325 -0.0032  0.7301
 4481TIP3    H134858   5.143   0.617   1.497  1.4074 -1.0209 -3.0745
 4481TIP3    H234859   5.227   0.719   1.422  3.6500  0.1409  0.7403
 4482TIP3   OH234860   2.646   0.771  11.909  0.0920 -0.0160  0.2333
 4482TIP3    H134861   2.660   0.823  11.988 -0.3037  1.1218 -0.4396
 4482TIP3    H234862   2.581   0.819  11.858 -0.5436 -1.3353 -0.2571
 4483TIP3   OH234863   6.452   3.900   2.458  0.8206 -0.5111  0.2015
 4483TIP3    H134864   6.399   3.827   2.490 -0.3556  0.0210 -0.4567
 4483TIP3    H234865   6.450   3.965   2.528 -2.1105  0.8363 -0.9827
 4484TIP3   OH234866   2.182   4.714   0.024 -0.1894  0.2631  0.4220
 4484TIP3    H134867   2.207   4.658   0.097  0.0834  0.1249  0.2229
 4484TIP3    H234868   2.265   4.750  -0.008 -0.2149 -0.3971 -0.4038
 4485TIP3   OH234869   5.752   0.831   0.430  0.3904 -0.6198  0.4372
 4485TIP3    H134870   5.843   0.860   0.422 -0.4338  1.9109 -1.0463
 4485TIP3    H234871   5.709   0.901   0.479 -0.7580 -1.8831  1.3091
 4486TIP3   OH234872   1.034   2.826  11.416  0.2562  0.0224 -0.1927
 4486TIP3    H134873   0.969   2.872  11.363  1.5104  0.3834 -1.4794
 4486TIP3    H234874   1.102   2.891  11.433  0.0111 -0.1521  1.7068
 4487TIP3   OH234875   4.833   4.114  14.235  0.0642 -0.5043  0.0303
 4487TIP3    H134876   4.807   4.039  14.182  0.3704 -1.0044  0.5787
 4487TIP3    H234877   4.926   4.127  14.214  0.3941 -1.1689  0.9630
 4488TIP3   OH234878   5.723   1.998   2.461 -0.3360  0.0187 -0.3693
 4488TIP3    H134879   5.634   1.980   2.491  0.0061  1.0709  1.4088
 4488TIP3    H234880   5.719   2.086   2.424  0.2522  0.7865  1.2711
 4489TIP3   OH234881   6.293   1.815   0.914  0.2678 -1.0355 -0.1468
 4489TIP3    H134882   6.211   1.792   0.957  0.1853  1.3783  1.1672
 4489TIP3    H234883   6.358   1.815   0.984  0.2576  2.3763  0.0211
 4490TIP3   OH234884   0.723   6.749  12.609 -0.0345  0.3479  0.0770
 4490TIP3    H134885   0.713   6.743  12.514  0.9894  0.8810 -0.0672
 4490TIP3    H234886   0.794   6.811  12.623  0.3470 -0.2982  1.1734
 4491TIP3   OH234887   6.521   2.804  13.336 -0.3060 -0.5037 -0.0643
 4491TIP3    H134888   6.529   2.899  13.325 -0.3470 -0.5562 -0.6172
 4491TIP3    H234889   6.453   2.779  13.273 -0.3126 -0.8939  0.0966
 4492TIP3   OH234890   6.646   3.373  11.282  0.0306  0.7451  0.3085
 4492TIP3    H134891   6.715   3.306  11.280 -0.6400  0.0706 -1.3308
 4492TIP3    H234892   6.585   3.342  11.349 -0.0555 -0.0755 -0.1382
 4493TIP3   OH234893   3.459   4.561   1.551 -0.1019  0.4708 -0.4380
 4493TIP3    H134894   3.552   4.585   1.558 -0.5021  1.8577  0.3590
 4493TIP3    H234895   3.412   4.639   1.579 -1.5268 -0.1958 -0.9166
 4494TIP3   OH234896   3.780   4.069   4.246  0.5920 -0.3337 -0.4041
 4494TIP3    H134897   3.696   4.029   4.222  0.0201  0.7128 -0.2078
 4494TIP3    H234898   3.773   4.159   4.213  2.4666 -0.8004 -2.2554
 4495TIP3   OH234899   1.373   6.521  12.626 -0.6536  0.2478 -0.0077
 4495TIP3    H134900   1.277   6.531  12.629 -0.7299 -0.4575  0.0657
 4495TIP3    H234901   1.394   6.471  12.705 -0.2678  0.0320 -0.2465
 4496TIP3   OH234902   1.757   4.325   2.458  0.6459  0.4797 -0.1142
 4496TIP3    H134903   1.765   4.231   2.438 -0.9337  0.7107 -2.1117
 4496TIP3    H234904   1.845   4.360   2.445  1.5364 -0.8696  1.8025
 4497TIP3   OH234905   4.402   4.156   4.121  0.3130 -0.1449 -0.8445
 4497TIP3    H134906   4.386   4.240   4.165 -0.6097 -0.7723  0.0867
 4497TIP3    H234907   4.464   4.111   4.178 -1.9103 -1.5134  0.6567
 4498TIP3   OH234908   0.468   6.495  16.783  0.3362 -0.7923 -0.0489
 4498TIP3    H134909   0.382   6.476  16.745  1.3082 -1.2681 -2.1611
 4498TIP3    H234910   0.475   6.591  16.779  0.0241 -0.7720 -0.1465
 4499TIP3   OH234911   4.956   1.051  17.081  0.5977  0.0318  0.4052
 4499TIP3    H134912   4.875   1.001  17.067  1.3163 -1.5292  1.5095
 4499TIP3    H234913   4.963   1.060  17.176 -0.0108  3.2031  0.2264
 4500TIP3   OH234914   5.042   6.512  13.403  0.1736  0.0510 -0.5689
 4500TIP3    H134915   5.101   6.468  13.341  0.8230 -0.8773  0.6797
 4500TIP3    H234916   5.052   6.605  13.381  0.9135 -0.2007 -1.4117
 4501TIP3   OH234917   6.607   4.826   5.774  0.0836  0.0741 -0.3573
 4501TIP3    H134918   6.566   4.883   5.839 -0.2442 -0.5591  0.0091
 4501TIP3    H234919   6.664   4.883   5.723 -0.9635  0.9124 -0.6245
 4502TIP3   OH234920   1.095   3.102   2.387  0.1604  0.5963 -0.0690
 4502TIP3    H134921   1.133   3.081   2.302 -0.8577  1.5458 -0.8020
 4502TIP3    H234922   1.087   3.198   2.387  1.6948  0.7858  1.8052
 4503TIP3   OH234923   2.982   3.280  11.109 -0.4734 -0.0313 -0.0287
 4503TIP3    H134924   3.015   3.326  11.031  0.1030  1.7826  1.2160
 4503TIP3    H234925   3.039   3.204  11.118 -1.2288 -0.8862 -1.9613
 4504TIP3   OH234926   6.134   5.785   3.474  0.5648 -0.0838  0.5823
 4504TIP3    H134927   6.212   5.791   3.419 -0.3955  0.8652 -0.7386
 4504TIP3    H234928   6.154   5.841   3.549  0.8209  0.8970 -0.1957
 4505TIP3   OH234929   2.657   0.006   1.439  0.0400 -0.3333  0.4066
 4505TIP3    H134930   2.618   0.044   1.518 -1.1451  0.1675 -0.3991
 4505TIP3    H234931   2.583  -0.032   1.392  0.7830 -0.8980 -0.3240
 4506TIP3   OH234932   0.616   0.287   4.572 -0.0774 -0.5648  0.2422
 4506TIP3    H134933   0.661   0.211   4.537  0.0462  0.5386 -2.2105
 4506TIP3    H234934   0.532   0.289   4.525 -1.7413 -1.1962  2.9454
 4507TIP3   OH234935   1.966   5.942   3.348 -0.1236  0.1860 -0.0957
 4507TIP3    H134936   1.994   5.851   3.360  1.5091  0.6979  0.2777
 4507TIP3    H234937   1.879   5.945   3.387  0.6595 -0.7406  1.8963
 4508TIP3   OH234938   1.017   0.998   1.392  0.2357 -0.7951  0.4679
 4508TIP3    H134939   1.003   0.907   1.366 -1.9690 -0.3651 -0.0664
 4508TIP3    H234940   0.966   1.008   1.473 -1.8245  0.5731 -0.8933
 4509TIP3   OH234941   6.217   0.636   0.974  0.3212  0.0630 -0.7153
 4509TIP3    H134942   6.198   0.726   1.000 -0.8388 -0.5918  0.8906
 4509TIP3    H234943   6.185   0.630   0.884  0.6212  1.3000 -0.9222
 4510TIP3   OH234944   2.701   0.149   4.799  0.2040  0.0637  0.0746
 4510TIP3    H134945   2.716   0.203   4.877  1.1784  0.3714 -0.3170
 4510TIP3    H234946   2.694   0.212   4.727  2.8943 -0.3372 -0.6304
 4511TIP3   OH234947   6.126   1.072   5.286 -0.3142  0.0719 -0.0378
 4511TIP3    H134948   6.133   1.140   5.352 -1.8809  0.5770 -0.3500
 4511TIP3    H234949   6.205   1.082   5.232  0.4747  0.3028  1.1279
 4512TIP3   OH234950   5.198   5.326   5.884 -0.5311 -0.2270 -0.1084
 4512TIP3    H134951   5.165   5.277   5.959  0.1133 -1.5014 -0.6259
 4512TIP3    H234952   5.136   5.399   5.873  0.6304  1.3866  3.0612
 4513TIP3   OH234953   4.189   4.246   4.815 -0.0451 -0.0310  0.0454
 4513TIP3    H134954   4.249   4.316   4.840 -0.8772  1.5316 -2.0927
 4513TIP3    H234955   4.229   4.204   4.739 -0.5773 -0.4733 -0.0032
 4514TIP3   OH234956   4.416   0.773   0.005 -0.0046 -0.7706 -0.0866
 4514TIP3    H134957   4.476   0.720   0.056 -0.4851 -1.0462  0.1983
 4514TIP3    H234958   4.334   0.771   0.054  0.1339  0.7475  0.2675
 4515TIP3   OH234959   3.499   2.775  16.166 -0.0403 -0.9922 -0.1027
 4515TIP3    H134960   3.425   2.721  16.139 -0.6459 -0.5936  0.6855
 4515TIP3    H234961   3.466   2.823  16.242  1.0607 -0.8651  0.3117
 4516TIP3   OH234962   0.178   3.655  14.781  0.2760 -0.9656 -0.1315
 4516TIP3    H134963   0.216   3.728  14.733  0.8339 -1.3156 -0.2318
 4516TIP3    H234964   0.142   3.598  14.713  0.3183 -1.0516 -0.0814
 4517TIP3   OH234965   3.612   5.377   2.828 -0.1696 -0.4399  0.2561
 4517TIP3    H134966   3.602   5.473   2.825 -0.5782 -0.5027 -0.8522
 4517TIP3    H234967   3.522   5.344   2.829 -0.0382 -0.8298 -0.2939
 4518TIP3   OH234968   5.022   1.232   4.255  0.2268  0.0272  0.4764
 4518TIP3    H134969   5.003   1.150   4.208 -0.7222 -0.2608  1.3049
 4518TIP3    H234970   5.112   1.252   4.233  0.2154 -0.8020 -0.4138
 4519TIP3   OH234971   2.471   0.655  15.411 -0.2545  0.0064 -0.1819
 4519TIP3    H134972   2.511   0.596  15.348  1.0792  0.7562 -0.0798
 4519TIP3    H234973   2.527   0.649  15.489 -0.0025  1.4594 -0.2143
 4520TIP3   OH234974   3.811   3.775   3.824  0.3441  0.3215  0.0625
 4520TIP3    H134975   3.860   3.709   3.773  0.7874  1.2880 -0.7929
 4520TIP3    H234976   3.722   3.740   3.827  0.4677 -0.1134 -0.7752
 4521TIP3   OH234977   4.873   3.818   2.694 -0.2777 -0.3095  0.0294
 4521TIP3    H134978   4.880   3.857   2.781  5.9734 -2.1696  0.8596
 4521TIP3    H234979   4.896   3.889   2.634 -1.2461  0.1636  0.2031
 4522TIP3   OH234980   2.399   4.813  16.878 -0.0458 -0.2723  0.3808
 4522TIP3    H134981   2.437   4.901  16.882  0.7506 -0.6302  0.6939
 4522TIP3    H234982   2.333   4.820  16.809 -0.3834  0.7203  0.7748
 4523TIP3   OH234983   3.713   0.154   3.205  0.4636  0.0292 -0.4246
 4523TIP3    H134984   3.709   0.071   3.156 -3.3041 -0.2847  0.0885
 4523TIP3    H234985   3.729   0.220   3.138  2.4714 -0.9542 -0.9980
 4524TIP3   OH234986   4.367   1.116  10.567 -0.1704 -0.1942  0.2403
 4524TIP3    H134987   4.293   1.150  10.618 -1.0100 -0.4207 -0.7917
 4524TIP3    H234988   4.428   1.083  10.633 -1.3425 -0.7223  1.1035
 4525TIP3   OH234989   5.029   1.761   3.926  0.0685  0.2543 -0.2497
 4525TIP3    H134990   4.982   1.686   3.961 -0.3971  0.5994 -0.1258
 4525TIP3    H234991   5.071   1.728   3.847 -1.3847  0.2307 -1.0514
 4526TIP3   OH234992   4.392   0.320  10.526 -0.6570  0.6939 -0.1829
 4526TIP3    H134993   4.348   0.382  10.466 -3.1294  1.2927  2.0400
 4526TIP3    H234994   4.334   0.244  10.528 -0.1876  0.3475  0.7946
 4527TIP3   OH234995   5.414   1.676  10.074  0.3681 -0.5196 -0.1139
 4527TIP3    H134996   5.398   1.616  10.147  2.0756 -1.0465 -0.1283
 4527TIP3    H234997   5.357   1.644  10.004 -0.3282 -0.8085  0.5743
 4528TIP3   OH234998   2.009   1.851   2.283 -0.1717 -0.0128  0.0410
 4528TIP3    H134999   2.090   1.902   2.283 -0.4404  0.4900 -1.8371
 4528TIP3    H235000   1.939   1.916   2.290 -0.4835 -0.2099 -1.1052
 4529TIP3   OH235001   4.627   4.481  16.147 -0.2508  0.6660  0.0868
 4529TIP3    H135002   4.669   4.425  16.212 -1.4064 -0.0697  0.2227
 4529TIP3    H235003   4.644   4.438  16.064 -1.3395 -0.0492  0.2126
 4530TIP3   OH235004   5.901   6.019   2.129  0.3392 -0.0577  0.2325
 4530TIP3    H135005   5.859   6.100   2.158  0.6290  0.7129 -1.3709
 4530TIP3    H235006   5.864   6.002   2.042  1.8952 -0.4254 -0.3961
 4531TIP3   OH235007   3.662   1.483  13.498 -0.0377 -0.3155  0.0078
 4531TIP3    H135008   3.643   1.542  13.426  0.8633  0.0908  0.0821
 4531TIP3    H235009   3.634   1.397  13.468 -0.4259 -0.0089 -0.5008
 4532TIP3   OH235010   3.770   6.323   5.602 -0.1559 -0.5264 -0.0839
 4532TIP3    H135011   3.811   6.303   5.687  0.6519  1.1224 -0.0490
 4532TIP3    H235012   3.789   6.416   5.588  0.6619 -1.0096 -2.5813
 4533TIP3   OH235013   4.036   1.811  11.821 -0.2210 -0.3639  0.0805
 4533TIP3    H135014   4.105   1.810  11.888  0.2011  1.7815 -0.2379
 4533TIP3    H235015   3.958   1.777  11.866 -0.1834  1.8313  2.0283
 4534TIP3   OH235016   5.360   0.963   1.005  0.4857  0.4328 -0.1876
 4534TIP3    H135017   5.286   0.923   0.960 -0.3740  1.5929  0.1601
 4534TIP3    H235018   5.392   0.895   1.064 -0.8202  0.1951  0.2681
 4535TIP3   OH235019   1.532   2.214   3.774  0.0453  0.0318  0.1929
 4535TIP3    H135020   1.521   2.273   3.848  0.4318  0.6866 -0.2638
 4535TIP3    H235021   1.605   2.250   3.724 -0.1278 -0.4671 -0.4427
 4536TIP3   OH235022   5.379   5.911   3.996 -0.0145  0.2075  0.0787
 4536TIP3    H135023   5.445   5.979   3.982  0.4052 -0.2939 -0.4464
 4536TIP3    H235024   5.416   5.856   4.066  0.7041 -0.7567 -1.0126
 4537TIP3   OH235025   6.187   4.847   5.449  0.0532 -0.4253  0.3416
 4537TIP3    H135026   6.244   4.773   5.429  0.6584  0.6615 -2.4000
 4537TIP3    H235027   6.226   4.921   5.403 -1.6232  1.1863  1.3499
 4538TIP3   OH235028   2.266   3.941   3.064 -0.1783 -0.0095  0.4178
 4538TIP3    H135029   2.263   3.867   3.125  2.7681 -0.1186  0.5665
 4538TIP3    H235030   2.359   3.954   3.046 -0.7879  1.6415 -2.1354
 4539TIP3   OH235031   1.666   5.904   1.997  0.0073 -0.3703  0.5439
 4539TIP3    H135032   1.712   5.979   2.033  0.1248  0.0359 -0.4209
 4539TIP3    H235033   1.578   5.936   1.978  0.4892 -0.0331 -1.2605
 4540TIP3   OH235034   2.686   3.404  11.510  0.7148  0.0397 -0.1492
 4540TIP3    H135035   2.619   3.426  11.446  0.8861 -0.6579 -0.5714
 4540TIP3    H235036   2.637   3.378  11.588  0.4997  1.6655  0.3045
 4541TIP3   OH235037   2.095   2.722  14.676  0.1278 -0.2985  0.1501
 4541TIP3    H135038   2.183   2.758  14.682  0.7033 -1.8793  3.0509
 4541TIP3    H235039   2.076   2.721  14.582  1.2063  4.4232 -0.3648
 4542TIP3   OH235040   4.606   6.785  13.866  0.1929 -0.3472  1.1230
 4542TIP3    H135041   4.618   6.691  13.860 -0.7061 -0.4493  0.7673
 4542TIP3    H235042   4.694   6.822  13.854  0.4943 -1.1229  0.9149
 4543TIP3   OH235043   3.813   1.613  11.540  0.0404  1.1093 -0.2884
 4543TIP3    H135044   3.837   1.568  11.459  0.1641  0.3030  0.1973
 4543TIP3    H235045   3.860   1.697  11.534 -0.1840  1.1904 -1.1822
 4544TIP3   OH235046   4.034   2.734  13.591  0.1333  0.0341  0.2539
 4544TIP3    H135047   4.117   2.731  13.639  1.4362 -0.5456 -1.8940
 4544TIP3    H235048   3.984   2.661  13.626  1.5639 -1.1643 -0.0965
 4545TIP3   OH235049   6.179   3.099  10.607  0.2896 -0.5298  0.0370
 4545TIP3    H135050   6.100   3.145  10.576  0.4035 -0.1543  0.3007
 4545TIP3    H235051   6.166   3.008  10.580 -0.1590 -0.4362 -0.0675
 4546TIP3   OH235052   2.863   5.721  16.923  0.1285 -0.3526 -0.0217
 4546TIP3    H135053   2.955   5.725  16.895  0.1292 -2.8813 -0.6326
 4546TIP3    H235054   2.816   5.690  16.845 -0.9061 -1.1837  0.9067
 4547TIP3   OH235055   2.039   0.696  11.422  0.5003  0.1367  0.8263
 4547TIP3    H135056   2.099   0.756  11.467  0.6512 -0.5176  1.5161
 4547TIP3    H235057   2.079   0.683  11.335  2.3606 -1.6608  1.8587
 4548TIP3   OH235058   2.409   4.562   0.974 -0.9689 -0.8079 -0.1664
 4548TIP3    H135059   2.328   4.576   0.924 -1.4725 -1.9518  0.2656
 4548TIP3    H235060   2.378   4.543   1.063 -0.1917 -0.6869  0.1342
 4549TIP3   OH235061   1.523   5.810  11.053  0.4732  0.1947  0.2898
 4549TIP3    H135062   1.584   5.850  10.991 -0.0280  1.5102  0.6123
 4549TIP3    H235063   1.439   5.810  11.006  0.3915 -0.1196  0.4374
 4550TIP3   OH235064   4.141   5.831  15.227 -0.0701  0.3620 -0.4601
 4550TIP3    H135065   4.145   5.917  15.186  0.0050  0.7010  0.2399
 4550TIP3    H235066   4.203   5.836  15.300 -0.2320 -0.2075 -0.2742
 4551TIP3   OH235067   5.014   0.560  14.136  0.1916 -0.3314 -0.3911
 4551TIP3    H135068   5.107   0.579  14.127  0.2262 -1.2984 -2.9355
 4551TIP3    H235069   5.008   0.465  14.125 -0.9076 -0.6499  2.2532
 4552TIP3   OH235070   2.124   1.256   1.246  0.4245 -0.0147 -0.0916
 4552TIP3    H135071   2.171   1.197   1.306  1.9646 -2.1824 -3.1845
 4552TIP3    H235072   2.048   1.206   1.217  0.6467  0.2807 -1.2382
 4553TIP3   OH235073   1.842   4.291   0.738 -0.0725  0.2573  0.0635
 4553TIP3    H135074   1.769   4.234   0.761 -0.3989 -0.0638 -1.6953
 4553TIP3    H235075   1.803   4.379   0.736 -0.0367  0.2945  0.6861
 4554TIP3   OH235076   5.233   5.266  16.711  0.2082  0.2734  0.3406
 4554TIP3    H135077   5.251   5.352  16.750 -0.7449  0.9635 -0.6642
 4554TIP3    H235078   5.142   5.247  16.736 -0.3970  0.6889 -1.3766
 4555TIP3   OH235079   3.798   0.873  12.701 -0.2027 -0.5172 -0.2311
 4555TIP3    H135080   3.885   0.844  12.675 -0.7098 -1.6775 -0.7572
 4555TIP3    H235081   3.793   0.857  12.795 -0.0768 -1.1174 -0.3222
 4556TIP3   OH235082   3.628   0.961  15.390 -0.1078  0.2464 -0.7224
 4556TIP3    H135083   3.570   0.885  15.384 -0.3368  0.2752  0.7075
 4556TIP3    H235084   3.660   0.974  15.301 -0.4974 -1.1830 -1.0961
 4557TIP3   OH235085   2.644   5.905   5.549  0.4473  0.0229 -0.2990
 4557TIP3    H135086   2.576   5.891   5.615  0.8287  0.0706  0.1112
 4557TIP3    H235087   2.597   5.914   5.466 -0.0328 -0.0921 -0.0385
 4558TIP3   OH235088   4.917   6.094   0.569  0.2566  0.0535  0.0608
 4558TIP3    H135089   4.920   6.189   0.583 -1.0360  0.4239 -1.7420
 4558TIP3    H235090   4.983   6.059   0.628  0.9721  2.1031  0.5719
 4559TIP3   OH235091   3.044   6.464  13.556 -0.2687  0.1626 -0.4287
 4559TIP3    H135092   2.989   6.489  13.631  0.8035 -2.0567  1.2167
 4559TIP3    H235093   3.107   6.535  13.549 -0.9023  0.8202  0.2249
 4560TIP3   OH235094   1.643   4.462  12.198 -0.1492 -0.0066  0.8638
 4560TIP3    H135095   1.603   4.456  12.285  0.7925  0.2025  1.3262
 4560TIP3    H235096   1.695   4.383  12.189  1.1559  0.7798  1.2302
 4561TIP3   OH235097   1.777   4.822   0.657 -0.4554  0.2794  0.2572
 4561TIP3    H135098   1.713   4.847   0.590  1.7087  1.3258 -1.5327
 4561TIP3    H235099   1.800   4.904   0.701  0.4040  0.0792  0.1905
 4562TIP3   OH235100   4.154   5.315   1.061 -0.1655  0.2500 -0.3454
 4562TIP3    H135101   4.086   5.345   1.120 -0.9236  2.1315 -2.0327
 4562TIP3    H235102   4.110   5.305   0.976  1.9573  4.2923 -2.2312
 4563TIP3   OH235103   3.346   1.812  16.501  0.2838 -0.4353 -0.0934
 4563TIP3    H135104   3.392   1.829  16.583 -0.0159 -0.5112  0.0906
 4563TIP3    H235105   3.402   1.749  16.456  0.5693 -0.2127 -0.0539
 4564TIP3   OH235106   4.576   4.891   1.505  0.4287 -0.5029 -0.0775
 4564TIP3    H135107   4.512   4.820   1.493  0.6948 -0.4220 -2.2659
 4564TIP3    H235108   4.554   4.927   1.591 -2.1534 -0.8080 -0.5142
 4565TIP3   OH235109   6.269   1.316   0.483 -0.4828 -0.5701 -0.0536
 4565TIP3    H135110   6.312   1.398   0.507  0.4958 -0.5779 -1.6448
 4565TIP3    H235111   6.186   1.343   0.443  0.2861 -0.2584 -1.5088
 4566TIP3   OH235112   1.335   3.926  16.386  0.1047  0.1896  0.1123
 4566TIP3    H135113   1.342   3.931  16.481  1.0720  0.6004  0.0322
 4566TIP3    H235114   1.421   3.894  16.358 -1.1852 -3.3109 -0.4141
 4567TIP3   OH235115   1.451   0.388  12.822  0.0503  0.3116 -0.3393
 4567TIP3    H135116   1.366   0.396  12.866 -0.0065  0.6053 -0.4960
 4567TIP3    H235117   1.446   0.305  12.775  0.0527  0.0712  0.0831
 4568TIP3   OH235118   4.347   0.790  15.656 -0.8551 -0.2638  0.1278
 4568TIP3    H135119   4.291   0.867  15.649  0.0946  0.6381  1.7428
 4568TIP3    H235120   4.433   0.825  15.680  0.6418 -1.5421 -2.8329
 4569TIP3   OH235121   2.794   3.410  12.667 -0.0921  0.0106  0.3403
 4569TIP3    H135122   2.865   3.390  12.727  0.4428 -0.3051 -0.3721
 4569TIP3    H235123   2.837   3.448  12.590 -0.8847  1.6803  0.6868
 4570TIP3   OH235124   2.618   4.913  12.656  0.0777 -0.2513 -0.3209
 4570TIP3    H135125   2.659   4.851  12.596  1.1456  0.0342  0.0944
 4570TIP3    H235126   2.530   4.925  12.621  0.0881 -1.4456 -0.8097
 4571TIP3   OH235127   5.156   0.149  13.751  0.4345  0.1921  0.1872
 4571TIP3    H135128   5.116   0.185  13.672  0.1683 -0.7941 -0.1410
 4571TIP3    H235129   5.236   0.108  13.721  0.0593 -0.6669  0.3366
 4572TIP3   OH235130   1.086   5.583  10.610  0.0268 -0.8829 -0.0667
 4572TIP3    H135131   1.124   5.668  10.630 -0.1608 -0.8509  0.1601
 4572TIP3    H235132   1.135   5.551  10.535  0.6076 -0.9099  0.3205
 4573TIP3   OH235133   5.228   4.998  16.280  0.0599  0.2517  0.4924
 4573TIP3    H135134   5.212   5.092  16.285 -1.4385  0.1278 -0.9557
 4573TIP3    H235135   5.291   4.987  16.209  1.4462  0.2382  1.6840
 4574TIP3   OH235136   3.160   0.432   6.227 -0.7310  0.7492 -0.0151
 4574TIP3    H135137   3.145   0.340   6.205 -0.8046  0.6780  0.3307
 4574TIP3    H235138   3.132   0.440   6.318  0.8624  0.7268  0.5052
 4575TIP3   OH235139   1.789   4.265   5.531  0.1698  0.0594 -1.0639
 4575TIP3    H135140   1.776   4.351   5.491 -2.9747  0.4563  0.4864
 4575TIP3    H235141   1.701   4.234   5.552  1.2736 -0.2284  5.1222
 4576TIP3   OH235142   2.110   4.130  16.128 -0.3134  0.3591 -0.6202
 4576TIP3    H135143   2.070   4.213  16.104 -0.8005  0.0039 -1.0659
 4576TIP3    H235144   2.039   4.078  16.165  0.1395  0.3945  0.3218
 4577TIP3   OH235145   2.251   3.191  14.235  0.6619  0.2216  0.2723
 4577TIP3    H135146   2.234   3.182  14.141 -0.0385  2.6177  0.1052
 4577TIP3    H235147   2.313   3.120  14.255 -0.2114 -1.1857 -1.6763
 4578TIP3   OH235148   4.136   0.574  12.508 -0.4453  0.6303 -0.4962
 4578TIP3    H135149   4.087   0.574  12.426  0.4257  1.8654 -1.0415
 4578TIP3    H235150   4.225   0.599  12.483  0.5193 -1.5463  0.4617
 4579TIP3   OH235151   0.267   6.390   3.666 -0.1366  0.2819  0.2296
 4579TIP3    H135152   0.273   6.329   3.592  0.5157 -0.7106  1.0587
 4579TIP3    H235153   0.205   6.349   3.726  1.3815 -0.3413  1.4507
 4580TIP3   OH235154   1.163   2.187   1.966  0.1536  0.1393 -0.5288
 4580TIP3    H135155   1.102   2.260   1.959 -0.1712 -0.0088  0.6173
 4580TIP3    H235156   1.116   2.121   2.017  0.7531 -0.5399 -0.8330
 4581TIP3   OH235157   5.332   5.864  16.079 -0.1360  0.1865  0.1000
 4581TIP3    H135158   5.307   5.916  16.003 -0.4035 -1.6801 -1.1675
 4581TIP3    H235159   5.287   5.906  16.153 -0.9005  1.3075 -0.9582
 4582TIP3   OH235160   0.616   5.842   0.755 -0.1365  0.0955 -0.2655
 4582TIP3    H135161   0.687   5.778   0.754 -1.0978 -1.1574 -3.5314
 4582TIP3    H235162   0.549   5.804   0.811  0.5246 -0.2030  0.3364
 4583TIP3   OH235163   3.496   3.250  16.115 -0.3629  0.2943  0.0924
 4583TIP3    H135164   3.536   3.325  16.158 -0.2921 -0.7325  1.8873
 4583TIP3    H235165   3.409   3.243  16.155  0.2109 -1.5028  1.1334
 4584TIP3   OH235166   5.781   1.171   5.454 -0.3008 -0.4483  0.3214
 4584TIP3    H135167   5.757   1.092   5.405 -2.1412  0.0918  0.2511
 4584TIP3    H235168   5.777   1.145   5.546 -1.5425 -0.3195  0.3248
 4585TIP3   OH235169   2.142   1.505  13.452  0.0803  0.0835  0.0576
 4585TIP3    H135170   2.105   1.528  13.367 -2.1748  0.5612  1.0957
 4585TIP3    H235171   2.230   1.473  13.432 -0.5362 -0.2442 -2.4909
 4586TIP3   OH235172   5.753   2.537   5.308 -0.1241 -0.1453  0.9547
 4586TIP3    H135173   5.689   2.479   5.349  0.5355 -0.7801  1.1162
 4586TIP3    H235174   5.824   2.543   5.372 -0.4918  1.4468  1.2604
 4587TIP3   OH235175   1.738   1.175   5.519  0.3123 -0.2017 -0.5624
 4587TIP3    H135176   1.809   1.162   5.455  0.8772  1.3689 -0.2919
 4587TIP3    H235177   1.781   1.217   5.593 -1.0553  1.5877 -0.7456
 4588TIP3   OH235178   4.967   3.712  13.608 -0.0434 -0.4419  0.1446
 4588TIP3    H135179   4.985   3.637  13.665  0.9689  0.2776  0.8219
 4588TIP3    H235180   5.054   3.737  13.574 -0.4492  0.0298 -0.5750
 4589TIP3   OH235181   2.336   3.974  11.611  0.7112 -0.1253 -0.2851
 4589TIP3    H135182   2.260   3.928  11.647  1.0852 -1.6369 -1.3027
 4589TIP3    H235183   2.400   3.975  11.682  0.9748 -1.9397 -0.4507
 4590TIP3   OH235184   0.809   5.186   5.276 -0.1132  0.6373 -0.0353
 4590TIP3    H135185   0.721   5.149   5.281  0.9139 -2.1821 -0.8660
 4590TIP3    H235186   0.836   5.174   5.185  0.8965  2.1600  0.0161
 4591TIP3   OH235187   0.236   5.707   3.753 -0.4099  0.2141  0.0721
 4591TIP3    H135188   0.277   5.770   3.812 -0.5407 -0.7500  1.2509
 4591TIP3    H235189   0.307   5.676   3.698 -0.3606  1.4213 -0.5630
 4592TIP3   OH235190   0.805   0.785   2.912  0.3037  0.0075 -0.7880
 4592TIP3    H135191   0.768   0.740   2.837  0.2446 -1.4502  0.0849
 4592TIP3    H235192   0.732   0.795   2.973  0.4492  0.7820 -0.7277
 4593TIP3   OH235193   2.957   4.901  14.273  0.7582  0.1206  0.4668
 4593TIP3    H135194   2.877   4.916  14.223  0.8679 -0.9239 -0.0334
 4593TIP3    H235195   2.994   4.989  14.285  0.1137  0.4992 -0.2420
 4594TIP3   OH235196   6.244   6.465  13.504  0.4048  0.2129 -0.0500
 4594TIP3    H135197   6.308   6.410  13.458  1.3507  1.2380  0.0024
 4594TIP3    H235198   6.178   6.485  13.439 -0.1449 -1.2428  0.0158
 4595TIP3   OH235199   0.431   0.230  11.564 -0.1320  0.2391 -0.2207
 4595TIP3    H135200   0.434   0.231  11.660 -0.6777  0.0728 -0.1990
 4595TIP3    H235201   0.340   0.249  11.543  0.0009  0.3442 -0.7110
 4596TIP3   OH235202   2.876   5.848  12.739  0.1280 -0.1013  0.3557
 4596TIP3    H135203   2.829   5.825  12.659  0.2606 -0.9891  0.5310
 4596TIP3    H235204   2.813   5.835  12.809 -0.2622  1.5008  0.3428
 4597TIP3   OH235205   5.805   5.089   3.195  0.1239  0.1715 -0.0087
 4597TIP3    H135206   5.719   5.107   3.232  0.6361 -1.7836  2.4466
 4597TIP3    H235207   5.813   4.993   3.197  2.0222  0.2615 -0.9308
 4598TIP3   OH235208   4.189   5.050   3.850 -0.4505 -0.3793 -0.6921
 4598TIP3    H135209   4.215   4.981   3.912  0.1983 -1.0803 -1.7064
 4598TIP3    H235210   4.106   5.018   3.813 -0.3799 -0.3985 -0.8340
 4599TIP3   OH235211   5.856   4.256  14.216 -0.0882 -0.1666  0.0083
 4599TIP3    H135212   5.918   4.224  14.282 -1.0016 -0.7766  0.6014
 4599TIP3    H235213   5.911   4.290  14.146  0.9352 -1.4860  0.1221
 4600TIP3   OH235214   2.960   0.285   3.036 -0.0162  0.2862 -0.4679
 4600TIP3    H135215   3.008   0.229   2.975  1.4084  2.1507 -1.1692
 4600TIP3    H235216   2.901   0.336   2.980 -0.3489  0.4065 -0.0119
 4601TIP3   OH235217   5.341   6.503  11.760  0.3138 -0.0902  0.6432
 4601TIP3    H135218   5.386   6.555  11.826 -0.7029 -0.2790  1.5154
 4601TIP3    H235219   5.248   6.514  11.780 -0.0249 -0.0346 -0.8570
 4602TIP3   OH235220   1.145   4.568   4.036  0.5989 -0.1031 -0.0559
 4602TIP3    H135221   1.122   4.555   3.944 -1.0110 -1.0154  0.4328
 4602TIP3    H235222   1.147   4.480   4.073  0.9903  0.2660  0.8421
 4603TIP3   OH235223   4.872   1.815   6.153 -0.7006  0.5558  0.2953
 4603TIP3    H135224   4.914   1.760   6.219 -0.8948  0.5086  0.3814
 4603TIP3    H235225   4.801   1.762   6.118 -0.3662  0.4423 -0.2241
 4604TIP3   OH235226   5.635   1.243  14.339 -0.1133  0.2808 -0.4796
 4604TIP3    H135227   5.591   1.214  14.259  0.7680 -1.8282 -0.2601
 4604TIP3    H235228   5.728   1.246  14.315  0.1233 -0.0804  0.3790
 4605TIP3   OH235229   5.464   4.368  14.094 -0.2846 -0.2510 -0.2931
 4605TIP3    H135230   5.420   4.421  14.161 -1.5718 -1.3901 -0.1871
 4605TIP3    H235231   5.515   4.304  14.144 -1.0375 -0.9351 -0.3820
 4606TIP3   OH235232   3.644   1.871   5.671 -0.2441  0.6711  0.1223
 4606TIP3    H135233   3.640   1.959   5.635 -0.1306  0.9057  0.6746
 4606TIP3    H235234   3.728   1.836   5.640 -0.2813  0.7609 -0.0805
 4607TIP3   OH235235   0.406   3.882  12.403 -0.2101 -0.2110  0.6745
 4607TIP3    H135236   0.390   3.789  12.384  0.2021  0.1130 -1.5484
 4607TIP3    H235237   0.331   3.928  12.365  1.2136  0.5716 -1.3911
 4608TIP3   OH235238   3.796   2.989   2.208 -0.6629  0.3792  0.1341
 4608TIP3    H135239   3.786   2.900   2.240  0.7995  0.5686  1.2353
 4608TIP3    H235240   3.736   2.995   2.134 -0.4675 -1.6615 -0.2523
 4609TIP3   OH235241   5.076   2.595  12.277 -0.4356 -0.0591  0.3956
 4609TIP3    H135242   5.162   2.599  12.319 -0.5793 -1.1359  0.8091
 4609TIP3    H235243   5.079   2.665  12.211  0.2531  0.8259  1.3180
 4610TIP3   OH235244   6.643   2.331  14.041 -0.2335  0.2512  0.3051
 4610TIP3    H135245   6.604   2.243  14.037 -1.7960  0.8536  1.4764
 4610TIP3    H235246   6.613   2.373  13.961  0.1232 -0.1068 -0.0241
 4611TIP3   OH235247   1.761   4.535   5.425 -0.1259 -0.0124 -0.2139
 4611TIP3    H135248   1.740   4.597   5.355  1.5288  0.3045 -0.4733
 4611TIP3    H235249   1.720   4.572   5.503  0.6442  1.3316 -0.4095
 4612TIP3   OH235250   0.163   2.988   5.312  0.1161 -0.0728  0.0449
 4612TIP3    H135251   0.116   2.910   5.342  0.4571  0.3140  1.6648
 4612TIP3    H235252   0.253   2.974   5.339  0.2231  0.7739  0.1607
 4613TIP3   OH235253   1.597   5.483  16.425  0.4789  0.0136  0.1377
 4613TIP3    H135254   1.595   5.548  16.496 -0.3944  0.9734 -0.7342
 4613TIP3    H235255   1.547   5.523  16.354  1.1864 -1.0050 -0.9735
 4614TIP3   OH235256   0.081   0.463  13.833  0.1082 -0.1931  0.0841
 4614TIP3    H135257   0.166   0.427  13.858  0.0586  0.1155  0.7374
 4614TIP3    H235258   0.098   0.513  13.754  0.2831 -1.1739 -0.5150
 4615TIP3   OH235259   1.399   2.099  11.745  0.4831  0.2203  0.1470
 4615TIP3    H135260   1.419   2.043  11.670 -0.6173 -0.8340  0.6021
 4615TIP3    H235261   1.379   2.184  11.707  0.2859 -0.2060 -0.7301
 4616TIP3   OH235262   4.319   3.854   4.738 -0.2270  0.1535 -0.0552
 4616TIP3    H135263   4.370   3.935   4.733 -0.8832  0.5873  0.1469
 4616TIP3    H235264   4.236   3.876   4.697 -0.1607 -0.6298 -0.6252
 4617TIP3   OH235265   2.639   0.231   5.318 -0.1281  0.9718 -0.4084
 4617TIP3    H135266   2.564   0.171   5.314 -0.6931  1.7125 -1.3254
 4617TIP3    H235267   2.708   0.188   5.269 -0.2781  0.7201 -0.3965
 4618TIP3   OH235268   1.315   3.437  13.900 -0.6019  0.0213 -0.4730
 4618TIP3    H135269   1.292   3.347  13.881  1.3056 -0.0250 -3.1120
 4618TIP3    H235270   1.363   3.433  13.983  0.3280 -1.5824 -1.0541
 4619TIP3   OH235271   3.081   5.210  13.534  0.1750  0.1747 -0.0613
 4619TIP3    H135272   3.145   5.146  13.502  1.3353 -1.0902  4.1827
 4619TIP3    H235273   3.119   5.295  13.513  1.0464 -0.5092 -1.4003
 4620TIP3   OH235274   2.891   5.132   1.090  0.3317  0.6169  0.6992
 4620TIP3    H135275   2.814   5.125   1.033 -0.2072 -2.1344  1.5926
 4620TIP3    H235276   2.933   5.046   1.083  2.3489  1.4558  1.6316
 4621TIP3   OH235277   2.144   1.777   6.312  0.9714 -0.4717 -0.0080
 4621TIP3    H135278   2.057   1.738   6.316 -0.5348  2.5315 -0.7622
 4621TIP3    H235279   2.198   1.720   6.367 -1.6408 -1.9473  1.2300
 4622TIP3   OH235280   6.773   6.580   3.020 -0.6263 -0.2573  0.0359
 4622TIP3    H135281   6.800   6.505   2.966 -0.3964  0.2550 -0.5634
 4622TIP3    H235282   6.703   6.545   3.074 -0.6886 -0.8534 -0.4128
 4623TIP3   OH235283   0.275   2.776  12.747 -0.0454  0.0494 -0.0500
 4623TIP3    H135284   0.329   2.698  12.760  0.9103  0.7440  0.2424
 4623TIP3    H235285   0.263   2.782  12.652 -1.0607 -1.0605 -0.0107
 4624TIP3   OH235286   1.293   1.793  15.038  0.2313 -0.4079  0.1050
 4624TIP3    H135287   1.352   1.723  15.065 -0.2076 -0.2934  1.4547
 4624TIP3    H235288   1.206   1.753  15.043 -0.0845  0.3708  1.5111
 4625TIP3   OH235289   6.739   4.779  15.627  0.1835  0.4404 -0.0817
 4625TIP3    H135290   6.789   4.708  15.587  0.4714  0.4538  0.2470
 4625TIP3    H235291   6.768   4.780  15.719 -0.7517  0.1518  0.2325
 4626TIP3   OH235292   2.230   1.762  12.884  0.0945  0.8466 -0.1598
 4626TIP3    H135293   2.274   1.778  12.801 -0.2174  0.2776 -0.4378
 4626TIP3    H235294   2.290   1.706  12.933 -0.4957 -0.2969 -0.7133
 4627TIP3   OH235295   3.329   1.709   1.245  0.1181  0.7923 -0.5266
 4627TIP3    H135296   3.401   1.759   1.207 -0.9840  1.2432 -2.1211
 4627TIP3    H235297   3.266   1.699   1.174 -1.7277  0.9992  0.9859
 4628TIP3   OH235298   3.662   4.112   1.576  0.3152  0.4321 -0.5490
 4628TIP3    H135299   3.658   4.195   1.624 -1.0069  0.6269 -0.9509
 4628TIP3    H235300   3.678   4.046   1.643  2.3704  1.0744 -0.3322
 4629TIP3   OH235301   4.859   0.776  15.235  0.0759 -0.0113 -0.2380
 4629TIP3    H135302   4.950   0.759  15.256 -0.4802 -1.2445  1.3611
 4629TIP3    H235303   4.820   0.805  15.318 -0.8025  1.4646 -1.1120
 4630TIP3   OH235304   6.310   1.167   1.360 -0.2843  0.9322 -0.4378
 4630TIP3    H135305   6.367   1.093   1.384 -1.3814 -0.1379 -0.9965
 4630TIP3    H235306   6.257   1.183   1.438  1.8655  3.0764  0.7053
 4631TIP3   OH235307   2.338   6.065  16.118 -0.0038 -0.3008 -0.0761
 4631TIP3    H135308   2.383   6.001  16.174  0.2437  0.1187  0.2136
 4631TIP3    H235309   2.282   6.114  16.179 -0.5832 -0.5806 -0.3781
 4632TIP3   OH235310   5.365   6.108  16.203  0.7965 -0.3466 -0.6046
 4632TIP3    H135311   5.396   6.168  16.271  0.7733  0.0876 -0.9802
 4632TIP3    H235312   5.272   6.097  16.221  0.7329 -0.0170 -0.7291
 4633TIP3   OH235313   6.675   3.805  11.080 -0.0494 -0.3562  0.4914
 4633TIP3    H135314   6.759   3.851  11.075  0.0200 -0.6273 -2.1100
 4633TIP3    H235315   6.610   3.875  11.089  0.3816 -0.1040  1.8291
 4634TIP3   OH235316   6.651   3.983  11.419  0.3740  0.4063 -0.0624
 4634TIP3    H135317   6.688   4.037  11.489  2.6253  1.8796 -2.2200
 4634TIP3    H235318   6.703   3.903  11.421  1.3963  1.0235 -0.8638
 4635TIP3   OH235319   1.087   2.732   3.090 -0.2826  0.3352  0.9510
 4635TIP3    H135320   1.107   2.821   3.061  2.1026 -0.2723  0.5149
 4635TIP3    H235321   1.094   2.679   3.011  1.2743 -0.6237  1.6830
 4636TIP3   OH235322   0.793   4.212  11.337  0.0735  0.0744 -0.0532
 4636TIP3    H135323   0.757   4.252  11.257 -1.4629 -0.9224  0.1019
 4636TIP3    H235324   0.888   4.224  11.328 -0.2036  2.2869 -0.7636
 4637TIP3   OH235325   1.251   2.586  13.521  0.2223  0.1129 -0.2144
 4637TIP3    H135326   1.193   2.633  13.461 -0.5109 -0.1330  0.2792
 4637TIP3    H235327   1.287   2.515  13.468  1.0199  0.9755 -0.8480
 4638TIP3   OH235328   1.535   3.862   0.734 -0.0142  0.2542  0.3096
 4638TIP3    H135329   1.590   3.844   0.657  1.1585 -0.4525  1.2681
 4638TIP3    H235330   1.509   3.953   0.723  1.2730  0.5901 -0.2511
 4639TIP3   OH235331   1.054   0.533   5.712  0.7846  0.2083  0.5322
 4639TIP3    H135332   1.068   0.503   5.801  3.4936  0.1098  0.1609
 4639TIP3    H235333   1.049   0.628   5.719  1.5137  0.2363  0.7591
 4640TIP3   OH235334   1.941   5.571  15.544 -0.1270  0.9448 -0.7110
 4640TIP3    H135335   1.853   5.609  15.547 -0.3241  0.4961 -0.7136
 4640TIP3    H235336   1.994   5.630  15.598 -0.3085  1.5170 -1.1472
 4641TIP3   OH235337   6.164   6.763   1.087  0.0299 -0.6887 -0.2687
 4641TIP3    H135338   6.070   6.759   1.070  0.2376  0.2642 -1.8348
 4641TIP3    H235339   6.191   6.850   1.056  1.3191 -0.6637  0.8029
 4642TIP3   OH235340   2.689   5.707  12.590  0.0598  0.4085  0.1969
 4642TIP3    H135341   2.595   5.695  12.575 -0.9021  2.8799  3.2194
 4642TIP3    H235342   2.710   5.645  12.660  0.8274 -0.3887 -0.7131
 4643TIP3   OH235343   6.409   0.494   5.653 -0.1868  0.0857  0.0125
 4643TIP3    H135344   6.372   0.531   5.733 -0.6682 -0.6525  0.1512
 4643TIP3    H235345   6.333   0.463   5.604  0.1760 -0.4597 -0.2173
 4644TIP3   OH235346   4.052   5.426   2.629 -0.1385 -0.2101  0.3790
 4644TIP3    H135347   4.081   5.338   2.608  0.2451 -0.3005  1.2740
 4644TIP3    H235348   4.025   5.422   2.721  0.6678  0.7947  0.6748
 4645TIP3   OH235349   5.694   5.398  10.696  0.0608 -0.0677 -0.0236
 4645TIP3    H135350   5.617   5.404  10.640 -0.2315 -1.1938  0.2279
 4645TIP3    H235351   5.734   5.314  10.674 -0.6709 -1.0564  2.1766
 4646TIP3   OH235352   1.507   5.394  12.627 -0.1660 -0.5029 -0.1434
 4646TIP3    H135353   1.418   5.381  12.657 -1.0971  0.7197 -2.1453
 4646TIP3    H235354   1.550   5.440  12.699 -1.0426 -1.3747  0.9656
 4647TIP3   OH235355   4.628   2.678  12.334 -0.0261  0.2600 -0.4516
 4647TIP3    H135356   4.602   2.649  12.247  0.1867  0.0558 -0.4465
 4647TIP3    H235357   4.593   2.767  12.340 -0.2795  0.1772 -0.6390
 4648TIP3   OH235358   4.803   0.262  16.548  0.0008  0.6457 -0.6134
 4648TIP3    H135359   4.861   0.306  16.610  1.5085 -0.2553 -1.3283
 4648TIP3    H235360   4.758   0.196  16.600  2.1500 -0.9346 -0.6043
 4649TIP3   OH235361   0.798   2.113  14.881  0.0016  0.3753 -0.0999
 4649TIP3    H135362   0.757   2.166  14.813  0.5200  2.0699  0.8396
 4649TIP3    H235363   0.733   2.046  14.902 -0.5190  0.3663 -1.6079
 4650TIP3   OH235364   3.925   4.134  11.419 -1.1011  1.5312  0.0639
 4650TIP3    H135365   3.957   4.216  11.456  1.8109  0.0981  1.0652
 4650TIP3    H235366   3.953   4.068  11.483 -0.4038 -0.5482 -2.2633
 4651TIP3   OH235367   3.872   0.384   1.507  0.1944  0.1201  0.6181
 4651TIP3    H135368   3.923   0.308   1.533 -1.3443 -1.0107  0.5102
 4651TIP3    H235369   3.829   0.413   1.588  0.0390  0.2875  0.4772
 4652TIP3   OH235370   2.239   0.173  15.955  0.0665  0.1702  0.0969
 4652TIP3    H135371   2.308   0.108  15.971  0.4041  0.6746  0.6899
 4652TIP3    H235372   2.278   0.257  15.980 -0.1264  0.7081 -1.3238
 4653TIP3   OH235373   3.223   5.528   6.437  0.2880 -0.0531  0.0994
 4653TIP3    H135374   3.231   5.567   6.524  2.0161  2.6121 -1.1362
 4653TIP3    H235375   3.129   5.526   6.420 -0.2131 -1.8854  2.4499
 4654TIP3   OH235376   0.833   4.652   4.047 -0.6037 -0.0751 -0.0118
 4654TIP3    H135377   0.888   4.646   4.125 -0.3692  0.1996 -0.1540
 4654TIP3    H235378   0.876   4.718   3.993 -0.0485 -1.1548 -0.9327
 4655TIP3   OH235379   3.208   5.045   5.307  0.0029  0.3730  0.4212
 4655TIP3    H135380   3.266   5.120   5.291  0.1686  0.0233 -0.7204
 4655TIP3    H235381   3.203   5.039   5.402  1.1756  0.9235  0.5403
 4656TIP3   OH235382   0.899   2.737   0.565  0.2192 -0.6088  0.4791
 4656TIP3    H135383   0.943   2.810   0.522  2.6074 -1.5901  1.0594
 4656TIP3    H235384   0.847   2.695   0.496  1.1240 -0.0493 -0.5770
 4657TIP3   OH235385   2.214   1.477  14.387  0.3296  0.0449 -0.0840
 4657TIP3    H135386   2.222   1.383  14.398  4.3443  0.0131 -1.7592
 4657TIP3    H235387   2.121   1.491  14.369 -0.3931 -3.5604  0.1740
 4658TIP3   OH235388   4.344   2.219  14.425 -0.6304 -0.1653  0.5240
 4658TIP3    H135389   4.314   2.309  14.413  1.9404  1.0116  2.0057
 4658TIP3    H235390   4.279   2.178  14.481 -0.4911  1.6540  2.1001
 4659TIP3   OH235391   6.191   6.292  11.081  0.0502  0.3100 -0.6904
 4659TIP3    H135392   6.258   6.341  11.034  1.6636  1.2031  2.2482
 4659TIP3    H235393   6.235   6.211  11.109 -0.4126  0.3827  0.3079
 4660TIP3   OH235394   2.966   1.030  12.915  0.4775 -0.1018  0.4337
 4660TIP3    H135395   3.027   1.046  12.842 -0.3357  1.9671  0.1413
 4660TIP3    H235396   3.008   0.961  12.967  2.6133  0.6086 -0.2536
 4661TIP3   OH235397   0.684   5.621   4.580 -0.5965 -0.0436  0.2210
 4661TIP3    H135398   0.761   5.612   4.524  0.6203 -1.4641  1.9776
 4661TIP3    H235399   0.677   5.715   4.597 -0.2677  0.2708 -1.2889
 4662TIP3   OH235400   1.948   1.134  15.959  0.3393  0.0050  0.9049
 4662TIP3    H135401   1.933   1.189  15.882  1.2314  0.8180  1.2941
 4662TIP3    H235402   1.961   1.197  16.030  0.7433 -0.7248  1.4793
 4663TIP3   OH235403   6.779   5.267  17.081  0.4796  0.2139 -0.0555
 4663TIP3    H135404   6.742   5.295  16.997  0.2186  2.2182  0.6898
 4663TIP3    H235405   6.850   5.208  17.057  0.4723  0.8245 -1.6983
 4664TIP3   OH235406   6.696   0.703  14.016  0.5572  0.5101 -0.0387
 4664TIP3    H135407   6.765   0.657  13.968 -0.4111 -1.4843  0.3717
 4664TIP3    H235408   6.706   0.673  14.106  0.4240  1.8284  0.4368
 4665TIP3   OH235409   2.793   3.132  14.055  0.0160 -0.2391  0.8137
 4665TIP3    H135410   2.766   3.220  14.080 -0.1485 -0.3607  1.0757
 4665TIP3    H235411   2.755   3.119  13.968  2.2544  0.9290 -0.4128
 4666TIP3   OH235412   5.364   4.909  16.024  0.0393  0.3717  0.4723
 4666TIP3    H135413   5.375   4.819  16.054 -0.7291  0.2046  0.2921
 4666TIP3    H235414   5.376   4.905  15.929  0.4422  0.5353  0.5172
 4667TIP3   OH235415   3.457   0.291  16.662 -0.4483  0.1339  0.3937
 4667TIP3    H135416   3.459   0.336  16.747  0.0695  2.5648 -0.8183
 4667TIP3    H235417   3.375   0.241  16.663 -0.9690  0.9459  1.9012
 4668TIP3   OH235418   3.487   2.266  14.023 -0.4240  0.0135  0.1245
 4668TIP3    H135419   3.427   2.249  13.951 -0.8389 -2.1969  0.8887
 4668TIP3    H235420   3.574   2.248  13.987 -0.3445  1.4997 -0.4993
 4669TIP3   OH235421   6.543   2.126  12.060 -0.9661 -0.0830 -0.2248
 4669TIP3    H135422   6.599   2.049  12.060  0.1444  0.7022  0.2330
 4669TIP3    H235423   6.454   2.091  12.070 -0.3070 -1.2163  2.8444
 4670TIP3   OH235424   4.693   2.532   0.665  0.3350  0.2204  0.5628
 4670TIP3    H135425   4.708   2.606   0.725  0.4735  0.3209  0.4060
 4670TIP3    H235426   4.755   2.547   0.593  0.8497 -0.4106  0.8559
 4671TIP3   OH235427   0.675   6.563  16.591 -0.1124 -0.1690  0.6944
 4671TIP3    H135428   0.607   6.496  16.604 -3.0906  2.8418  2.1143
 4671TIP3    H235429   0.673   6.580  16.496  0.0045 -1.3459  0.4581
 4672TIP3   OH235430   3.734   4.530  12.323 -0.6612 -0.4179  0.3024
 4672TIP3    H135431   3.758   4.499  12.410  2.0977  1.4337  0.3414
 4672TIP3    H235432   3.809   4.505  12.268 -1.2005  0.6790 -0.9740
 4673TIP3   OH235433   1.206   5.548  12.037 -0.4230  0.3702 -0.1620
 4673TIP3    H135434   1.195   5.571  11.944 -1.8532 -0.0050 -0.0979
 4673TIP3    H235435   1.122   5.571  12.077  0.4883  1.3979  1.2435
 4674TIP3   OH235436   1.923   2.886  13.270  0.0784 -0.0059 -0.0574
 4674TIP3    H135437   1.828   2.898  13.271  0.0421  0.0036 -1.5233
 4674TIP3    H235438   1.938   2.814  13.208  1.1041  0.9038 -0.9095
 4675TIP3   OH235439   2.714   5.975  13.331 -0.2402  0.2429  0.3664
 4675TIP3    H135440   2.638   5.926  13.301  0.3388 -0.8174  0.5657
 4675TIP3    H235441   2.762   5.996  13.251  0.1553 -0.6433  0.3529
 4676TIP3   OH235442   0.081   0.718  13.164 -0.3206 -0.0839  0.0714
 4676TIP3    H135443  -0.002   0.721  13.116 -0.0657 -0.6613 -0.4243
 4676TIP3    H235444   0.123   0.637  13.133  0.3937  0.1684  0.3663
 4677TIP3   OH235445   4.529   2.908   0.214  0.3329  0.0097 -0.5208
 4677TIP3    H135446   4.464   2.881   0.278  0.1034 -0.4423 -0.9328
 4677TIP3    H235447   4.519   2.846   0.142  1.5104 -0.3317 -0.4133
 4678TIP3   OH235448   4.615   4.916   3.824 -0.2493  0.2509 -0.0937
 4678TIP3    H135449   4.582   5.003   3.802 -3.1484 -0.6850  0.1090
 4678TIP3    H235450   4.643   4.923   3.915  2.2470  1.5949 -0.8716
 4679TIP3   OH235451   5.649   6.122   3.521  0.3912  0.3791 -0.7175
 4679TIP3    H135452   5.728   6.121   3.466 -0.0191  0.3926 -1.3125
 4679TIP3    H235453   5.683   6.118   3.611  1.0297 -0.8324 -0.9883
 4680TIP3   OH235454   5.256   1.447  16.520 -0.4153  0.3051 -0.4707
 4680TIP3    H135455   5.286   1.531  16.485 -0.4335 -0.0637 -1.3744
 4680TIP3    H235456   5.236   1.466  16.612  0.1232  1.1579 -0.5179
 4681TIP3   OH235457   6.675   5.144  13.319 -0.3672  0.2843 -0.1760
 4681TIP3    H135458   6.614   5.106  13.382  0.1296 -1.2280 -0.5851
 4681TIP3    H235459   6.647   5.111  13.234  0.2771  0.5604 -0.5067
 4682TIP3   OH235460   0.817   1.403  16.297 -0.3191  0.5854  0.0422
 4682TIP3    H135461   0.817   1.343  16.372  0.7689  1.0180  0.4184
 4682TIP3    H235462   0.819   1.346  16.221 -1.8925  0.1354  0.3186
 4683TIP3   OH235463   1.055   2.207  12.669  0.0104 -0.7349 -0.2885
 4683TIP3    H135464   1.049   2.157  12.750 -1.8155  0.5004  0.3930
 4683TIP3    H235465   1.106   2.285  12.692 -1.4169  0.1469  0.0034
 4684TIP3   OH235466   1.711   3.809  15.063  0.2157  0.6916 -0.2170
 4684TIP3    H135467   1.647   3.739  15.070  1.1546 -0.0102  2.5692
 4684TIP3    H235468   1.748   3.799  14.975 -2.1495 -0.0230 -1.1939
 4685TIP3   OH235469   0.387   3.917   4.745  0.1394  0.0375 -0.1044
 4685TIP3    H135470   0.339   3.865   4.809  2.0160 -1.6326  0.0494
 4685TIP3    H235471   0.362   4.008   4.764 -0.4833 -0.5236  2.0309
 4686TIP3   OH235472   1.470   5.830   3.681 -0.3494  0.0899 -0.2784
 4686TIP3    H135473   1.409   5.861   3.614 -0.0309  1.6293  0.0985
 4686TIP3    H235474   1.480   5.736   3.663  0.6185  0.6341 -3.1018
 4687TIP3   OH235475   1.552   4.437   4.846 -0.0185  0.3404  0.1694
 4687TIP3    H135476   1.552   4.360   4.903  2.4004  0.2289  0.1126
 4687TIP3    H235477   1.476   4.425   4.790 -0.5594 -1.2382  1.1545
 4688TIP3   OH235478   6.344   0.656   5.076  0.0713  0.0845 -0.1131
 4688TIP3    H135479   6.390   0.725   5.123  0.0611  0.2747 -0.3788
 4688TIP3    H235480   6.408   0.587   5.064  0.7483  0.9399 -1.7829
 4689TIP3   OH235481   2.457   3.136   3.906  0.0843 -0.1637  0.4554
 4689TIP3    H135482   2.534   3.081   3.892  0.1376 -0.2792  1.1659
 4689TIP3    H235483   2.394   3.079   3.950 -1.2483 -0.7091 -1.9562
 4690TIP3   OH235484   6.316   4.126   1.928 -0.0835  0.4299  0.9685
 4690TIP3    H135485   6.317   4.156   2.019  0.7239 -0.6698  1.3449
 4690TIP3    H235486   6.226   4.095   1.915 -0.4527  1.3988  1.0954
 4691TIP3   OH235487   3.109   3.167   2.067 -0.9449  0.2684  0.1097
 4691TIP3    H135488   3.139   3.251   2.100 -1.2183  0.8775 -1.1192
 4691TIP3    H235489   3.108   3.177   1.972  0.7100 -1.7058 -0.1884
 4692TIP3   OH235490   4.020   4.054  16.248 -0.1153 -0.0185  0.3511
 4692TIP3    H135491   4.001   3.993  16.320  0.1895 -0.1054  0.3610
 4692TIP3    H235492   4.106   4.091  16.270 -0.9867  1.6009  1.1391
 4693TIP3   OH235493   2.442   2.105   4.714 -0.3136  0.2177  0.7199
 4693TIP3    H135494   2.415   2.191   4.682  0.4875 -0.6182 -2.4661
 4693TIP3    H235495   2.521   2.123   4.766  1.9244  1.1998 -2.7270
 4694TIP3   OH235496   3.048   6.260   3.352 -0.4677  0.1862 -0.5379
 4694TIP3    H135497   2.967   6.278   3.398  1.7905  1.0736  3.5644
 4694TIP3    H235498   3.107   6.332   3.376  1.8179 -0.7798 -2.7058
 4695TIP3   OH235499   2.734   2.997   1.913 -0.2396 -0.1507 -0.0679
 4695TIP3    H135500   2.790   3.005   1.991  1.9819  1.3734 -1.6811
 4695TIP3    H235501   2.672   3.069   1.920  1.8391  1.8475 -1.0189
 4696TIP3   OH235502   6.545   0.955   1.360  0.2111 -0.4010  0.2202
 4696TIP3    H135503   6.624   0.904   1.378 -0.9533 -1.5168  2.6577
 4696TIP3    H235504   6.482   0.891   1.327  0.0249  0.3178 -0.8646
 4697TIP3   OH235505   3.143   1.676  16.731  0.3995 -0.3422  0.0006
 4697TIP3    H135506   3.140   1.608  16.798  0.4506  0.7199  1.1203
 4697TIP3    H235507   3.234   1.675  16.700  0.0586 -1.7389 -1.0575
 4698TIP3   OH235508   3.076   2.202  11.551  0.2229  0.3236  0.3474
 4698TIP3    H135509   3.011   2.194  11.481 -0.4788 -1.6298  1.1449
 4698TIP3    H235510   3.131   2.124  11.542  0.9848  0.7597  1.1067
 4699TIP3   OH235511   2.491   3.464  11.317 -0.5416 -0.4482  0.1935
 4699TIP3    H135512   2.430   3.425  11.255 -2.3046  2.8154 -0.3519
 4699TIP3    H235513   2.434   3.501  11.385  0.9739  0.8958  0.7769
 4700TIP3   OH235514   2.858   6.271   0.797  0.4487 -0.0174 -0.1671
 4700TIP3    H135515   2.934   6.237   0.844  0.7332 -0.1668 -0.7215
 4700TIP3    H235516   2.895   6.311   0.718 -0.1569 -1.7734 -1.4238
 4701TIP3   OH235517   2.343   2.833  14.703 -0.0129  0.2886 -0.0761
 4701TIP3    H135518   2.430   2.812  14.736 -0.9724  1.0720  3.3735
 4701TIP3    H235519   2.340   2.929  14.702 -1.8548  0.4102  3.3955
 4702TIP3   OH235520   3.419   6.582   1.377  0.4173 -0.4415  0.5863
 4702TIP3    H135521   3.413   6.676   1.394 -1.6867 -0.2272 -0.9710
 4702TIP3    H235522   3.377   6.541   1.453  1.0098 -0.1491  1.0893
 4703TIP3   OH235523   1.201   1.495   1.275 -0.1149 -0.0076  0.2464
 4703TIP3    H135524   1.199   1.400   1.285  0.7587 -0.1497 -0.7945
 4703TIP3    H235525   1.290   1.520   1.300 -0.0476  0.4207 -0.4104
 4704TIP3   OH235526   5.389   5.734  10.861 -0.2099 -0.3984  0.4489
 4704TIP3    H135527   5.296   5.752  10.848 -1.4665 -2.3216  4.7614
 4704TIP3    H235528   5.427   5.736  10.774 -4.3258  0.1543 -1.5670
 4705TIP3   OH235529   5.755   4.351   2.410  0.2733  0.6701 -0.3026
 4705TIP3    H135530   5.776   4.443   2.423  0.7628  0.3709  1.2949
 4705TIP3    H235531   5.840   4.309   2.396  0.1893  0.2929  0.2751
 4706TIP3   OH235532   4.073   5.856   4.304 -0.5189  0.3668  0.3531
 4706TIP3    H135533   4.143   5.871   4.367 -1.0960  1.9115  0.6803
 4706TIP3    H235534   4.094   5.772   4.264  0.5975 -0.0037  1.6341
 4707TIP3   OH235535   5.400   2.570  14.840 -0.0935  0.1728 -0.5573
 4707TIP3    H135536   5.416   2.649  14.789 -2.1358  0.8050 -0.3152
 4707TIP3    H235537   5.408   2.598  14.931  1.6807 -0.5243 -0.4551
 4708TIP3   OH235538   1.473   5.460   6.823 -0.5849 -0.2192  0.2418
 4708TIP3    H135539   1.412   5.431   6.891 -0.4831  0.5428  0.6662
 4708TIP3    H235540   1.420   5.462   6.743 -1.1324  0.4736  0.6160
 4709TIP3   OH235541   2.489   5.360  10.785  0.3969  0.9658  0.0035
 4709TIP3    H135542   2.559   5.335  10.846  1.6342  0.0583 -1.6814
 4709TIP3    H235543   2.534   5.409  10.717 -0.8357  1.3983 -0.5142
 4710TIP3   OH235544   5.953   6.504   0.460 -0.1155  0.1876  0.5366
 4710TIP3    H135545   6.007   6.570   0.503 -0.7320  1.4745 -0.6101
 4710TIP3    H235546   6.015   6.445   0.417  0.5110 -0.9565  2.8199
 4711TIP3   OH235547   4.176   2.623  14.675  0.5756 -0.1999  0.7843
 4711TIP3    H135548   4.087   2.597  14.651 -0.6476  1.7335  2.8030
 4711TIP3    H235549   4.208   2.554  14.733  0.5435 -1.0649 -0.2150
 4712TIP3   OH235550   3.905   3.232   1.480 -0.1147 -0.4628 -0.4522
 4712TIP3    H135551   3.985   3.270   1.516 -1.2672  0.6065  1.0940
 4712TIP3    H235552   3.936   3.163   1.421  1.9341 -2.1498  2.3188
 4713TIP3   OH235553   1.178   3.274   2.801  0.1550 -0.8234  0.3115
 4713TIP3    H135554   1.084   3.256   2.805 -0.4227  1.7803  4.8302
 4713TIP3    H235555   1.219   3.188   2.812 -1.7133 -1.7820  0.2002
 4714TIP3   OH235556   2.937   2.929  13.747  0.0307 -0.6745 -0.4329
 4714TIP3    H135557   2.960   3.021  13.761 -1.1158 -0.4842  0.3085
 4714TIP3    H235558   2.856   2.917  13.796 -0.1328 -1.9440 -0.9869
 4715TIP3   OH235559   2.230   6.664  13.224  0.1223 -0.2193 -0.5148
 4715TIP3    H135560   2.221   6.759  13.221 -1.2444 -0.3271 -0.5338
 4715TIP3    H235561   2.182   6.633  13.147  0.6955 -0.9243 -0.6014
 4716TIP3   OH235562   6.526   2.433  12.560 -0.2456 -0.1354 -0.4848
 4716TIP3    H135563   6.454   2.495  12.562 -1.0790 -1.0185 -1.5842
 4716TIP3    H235564   6.579   2.460  12.485 -0.3744 -0.4877 -0.7048
 4717TIP3   OH235565   3.849   2.022   1.119  0.2158  0.4301  0.4689
 4717TIP3    H135566   3.905   2.057   1.051 -1.1389  1.3901 -0.1992
 4717TIP3    H235567   3.851   1.927   1.107 -0.5449  0.6149 -1.3917
 4718TIP3   OH235568   4.753   1.211   6.201 -0.1850 -0.5504  0.1508
 4718TIP3    H135569   4.683   1.192   6.138  0.2419  1.0475 -0.8796
 4718TIP3    H235570   4.713   1.272   6.262 -0.4528 -1.7266  1.1835
 4719TIP3   OH235571   1.031   4.690  15.673  0.3023  0.5318 -0.1110
 4719TIP3    H135572   1.097   4.660  15.611 -0.4290 -1.0729 -0.1636
 4719TIP3    H235573   0.949   4.653  15.641  0.0197 -1.0570  2.2245
 4720TIP3   OH235574   3.486   1.031  11.846 -0.3674  0.0682  0.0371
 4720TIP3    H135575   3.491   1.091  11.920 -2.1625  2.3390 -1.5148
 4720TIP3    H235576   3.513   1.084  11.770 -2.2339 -0.9537 -1.4398
 4721TIP3   OH235577   6.189   0.509  11.830 -0.0379  0.4283  0.1489
 4721TIP3    H135578   6.218   0.467  11.749 -1.4575 -0.3752  0.0376
 4721TIP3    H235579   6.094   0.503  11.828 -0.1111  0.6173  1.7565
 4722TIP3   OH235580   0.393   2.553  14.731  0.8296 -0.1721 -0.6424
 4722TIP3    H135581   0.412   2.605  14.653 -0.6648  2.5323  0.6741
 4722TIP3    H235582   0.465   2.571  14.791  0.6076 -0.0726 -0.4025
 4723TIP3   OH235583   4.135   2.579   0.113  0.5022 -0.4395  0.1912
 4723TIP3    H135584   4.135   2.528   0.194  0.6426 -0.1887  0.3511
 4723TIP3    H235585   4.058   2.636   0.120 -1.0261 -2.2515 -1.0297
 4724TIP3   OH235586   0.634   1.592  14.945 -0.3469  0.0614 -0.8599
 4724TIP3    H135587   0.574   1.665  14.958  0.6400  1.1031 -1.9357
 4724TIP3    H235588   0.580   1.524  14.904 -1.3564  0.0030  0.4703
 4725TIP3   OH235589   1.936   5.048   2.210 -0.0511 -0.8624 -0.1320
 4725TIP3    H135590   1.879   5.015   2.280 -0.5684 -0.6777 -0.4606
 4725TIP3    H235591   1.910   5.139   2.200  1.8561 -0.0852  1.2733
 4726TIP3   OH235592   4.295   5.855   4.459 -0.0108 -0.3525 -0.2791
 4726TIP3    H135593   4.290   5.769   4.500  0.4542  0.5616  1.8231
 4726TIP3    H235594   4.356   5.844   4.386  0.0980 -1.7675  0.0053
 4727TIP3   OH235595   5.628   2.121   0.756 -0.1324  0.4261  0.4117
 4727TIP3    H135596   5.692   2.136   0.825 -0.4179  1.6573  0.4287
 4727TIP3    H235597   5.561   2.189   0.770  1.7175  3.4034 -3.3834
 4728TIP3   OH235598   5.083   5.660  16.321  0.0940 -0.0083  0.1745
 4728TIP3    H135599   5.023   5.628  16.253  1.2914  0.3989 -1.1370
 4728TIP3    H235600   5.068   5.755  16.324 -0.5729 -0.1284  1.1387
 4729TIP3   OH235601   3.137   3.813   3.325  0.1247  0.5110 -0.1246
 4729TIP3    H135602   3.050   3.799   3.287 -0.8204  0.2204  2.0282
 4729TIP3    H235603   3.180   3.872   3.263 -0.7020 -1.1889 -2.4596
 4730TIP3   OH235604   2.759   6.245   3.804  0.1295  0.7137  0.8163
 4730TIP3    H135605   2.842   6.292   3.807  0.0245  0.8865  3.0085
 4730TIP3    H235606   2.703   6.300   3.750  1.5454  0.3405 -1.1219
 4731TIP3   OH235607   5.891   6.607  12.437 -0.9708  0.1797  0.0126
 4731TIP3    H135608   5.860   6.534  12.490 -0.1575  1.0083  1.7182
 4731TIP3    H235609   5.914   6.568  12.353 -1.4235 -1.3469  0.5623
 4732TIP3   OH235610   2.159   1.114  12.108  0.4551  0.5472 -0.2580
 4732TIP3    H135611   2.230   1.171  12.077 -0.5705  1.4206 -1.1048
 4732TIP3    H235612   2.079   1.158  12.078 -0.4166 -0.7508  0.0988
 4733TIP3   OH235613   6.333   2.060   3.618  0.1214  0.0704  0.2060
 4733TIP3    H135614   6.393   2.123   3.658  0.4896 -0.9995  1.3804
 4733TIP3    H235615   6.389   1.988   3.591 -0.3548  0.0427 -0.7560
 4734TIP3   OH235616   2.090   3.649  14.273  0.6264 -0.0379  0.5907
 4734TIP3    H135617   2.076   3.556  14.288  1.8700 -0.2024  0.8074
 4734TIP3    H235618   2.159   3.674  14.334  1.7041  0.5709 -0.8056
 4735TIP3   OH235619   4.818   3.866  13.783  0.1608  0.2982  0.0234
 4735TIP3    H135620   4.846   3.816  13.706  1.4289 -0.6486  1.0450
 4735TIP3    H235621   4.749   3.924  13.751 -1.1326 -1.8612 -1.2892
 4736TIP3   OH235622   2.855   4.473  15.673  0.0948  0.5678  0.3429
 4736TIP3    H135623   2.945   4.460  15.702 -0.0041  1.8486  1.3555
 4736TIP3    H235624   2.802   4.458  15.752 -0.2752  2.9826  0.6465
 4737TIP3   OH235625   1.964   0.672   5.205  0.2150 -0.4658 -0.0990
 4737TIP3    H135626   2.028   0.688   5.273 -1.7644 -0.2652  1.8367
 4737TIP3    H235627   1.932   0.583   5.223  0.0621 -0.6289 -1.1218
 4738TIP3   OH235628   5.578   4.890  16.271 -0.1869  0.0536 -0.2728
 4738TIP3    H135629   5.671   4.870  16.262  0.8784  3.8710  0.3010
 4738TIP3    H235630   5.543   4.883  16.182  1.4114  1.3339 -1.0696
 4739TIP3   OH235631   4.739   4.872  13.467 -0.0695  0.1233 -0.4827
 4739TIP3    H135632   4.773   4.936  13.530  1.1263 -2.4297  1.6927
 4739TIP3    H235633   4.652   4.906  13.443  0.6054  2.6520  0.2909
 4740TIP3   OH235634   5.176   1.876  16.851  0.2315 -0.0673  0.3029
 4740TIP3    H135635   5.117   1.841  16.918 -0.3756  0.3765  0.0105
 4740TIP3    H235636   5.261   1.840  16.873  0.0205 -0.0187  1.2532
 4741TIP3   OH235637   5.237   4.092  16.183  0.7133 -0.5744  0.4746
 4741TIP3    H135638   5.306   4.041  16.225  0.9170 -2.6169 -2.0350
 4741TIP3    H235639   5.283   4.150  16.123  0.3289  0.0227  0.7484
 4742TIP3   OH235640   5.972   3.247  12.216  0.7065  0.3490 -0.2649
 4742TIP3    H135641   5.898   3.267  12.158  0.9957  3.3408  0.2266
 4742TIP3    H235642   5.936   3.187  12.280 -0.9123  0.6080 -0.8801
 4743TIP3   OH235643   3.618   5.610  16.754 -0.0358  0.5424  0.3193
 4743TIP3    H135644   3.695   5.627  16.700  0.7885  2.5155  1.9838
 4743TIP3    H235645   3.554   5.675  16.726 -0.2461  0.4265  0.5226
 4744TIP3   OH235646   2.829   2.787  12.688  0.1715 -0.2987 -0.6980
 4744TIP3    H135647   2.789   2.869  12.717  3.1918  1.0542  0.0625
 4744TIP3    H235648   2.849   2.801  12.596 -0.1787 -0.5646 -0.8151
 4745TIP3   OH235649   6.394   3.241   0.335  0.0845 -0.5808  0.2745
 4745TIP3    H135650   6.431   3.310   0.280 -1.2936  0.0458  0.0924
 4745TIP3    H235651   6.380   3.284   0.420  0.1479 -0.9146  0.4542
 4746TIP3   OH235652   5.262   1.347  12.027  0.1619  0.0335  0.2762
 4746TIP3    H135653   5.176   1.317  12.057  0.9441 -1.1867  1.4015
 4746TIP3    H235654   5.305   1.268  11.996  0.0703  0.9825 -2.4959
 4747TIP3   OH235655   4.518   5.684   3.719  0.1820  0.3699 -0.1820
 4747TIP3    H135656   4.599   5.639   3.739  0.9803  1.5702 -0.5538
 4747TIP3    H235657   4.483   5.638   3.642  0.4492 -0.2234  0.0485
 4748TIP3   OH235658   1.698   4.488   1.993  0.5085  0.3429 -0.3833
 4748TIP3    H135659   1.775   4.460   1.945 -1.1531 -2.1598 -1.8201
 4748TIP3    H235660   1.673   4.413   2.046 -0.1042  1.6394  1.2674
 4749TIP3   OH235661   4.182   2.297  13.386  0.3526 -0.7649 -0.5263
 4749TIP3    H135662   4.199   2.371  13.328  1.4412 -0.8439 -0.3344
 4749TIP3    H235663   4.231   2.225  13.347 -0.4348 -1.3108 -0.5345
 4750TIP3   OH235664   2.522   4.868  14.144  0.0645  0.3371  0.1606
 4750TIP3    H135665   2.536   4.954  14.104 -0.0467  0.7684  1.0357
 4750TIP3    H235666   2.482   4.886  14.229  1.4384 -0.4827  1.0232
 4751TIP3   OH235667   1.943   5.048   4.036  0.4555 -0.3233 -0.1174
 4751TIP3    H135668   2.012   4.982   4.046  0.3404 -0.6736 -1.4309
 4751TIP3    H235669   1.952   5.079   3.946 -2.2015 -1.7069 -0.9651
 4752TIP3   OH235670   4.212   3.697   2.736  0.0346 -0.8548  0.0510
 4752TIP3    H135671   4.217   3.752   2.814 -1.9946  0.9457 -0.9848
 4752TIP3    H235672   4.220   3.607   2.770  0.5401 -0.0832  2.1416
 4753TIP3   OH235673   6.225   3.344  16.177  0.4454 -0.4725  0.3087
 4753TIP3    H135674   6.183   3.408  16.120 -0.8148 -1.0834  0.5213
 4753TIP3    H235675   6.314   3.336  16.142 -0.0295 -0.1967 -1.0311
 4754TIP3   OH235676   2.256   5.401  14.312 -0.9981  0.0979 -0.4177
 4754TIP3    H135677   2.336   5.373  14.356 -1.1274  0.6086  0.1422
 4754TIP3    H235678   2.240   5.490  14.343 -2.0543 -0.1661 -0.1452
 4755TIP3   OH235679   3.823   5.639   5.775 -0.2142 -0.0646 -0.1237
 4755TIP3    H135680   3.759   5.708   5.791  1.5062  1.9217 -1.3951
 4755TIP3    H235681   3.851   5.652   5.684  1.6215 -1.1583  0.2247
 4756TIP3   OH235682   5.673   3.889  14.688 -0.1284  0.8250  0.4276
 4756TIP3    H135683   5.763   3.856  14.675 -1.1237 -1.5534 -1.2461
 4756TIP3    H235684   5.668   3.966  14.631  0.2296 -0.3998 -1.3487
 4757TIP3   OH235685   3.581   2.106  14.572  0.0816 -0.4998  0.8572
 4757TIP3    H135686   3.579   2.023  14.621  1.4462 -1.6305 -0.8708
 4757TIP3    H235687   3.492   2.140  14.581 -0.5960 -2.2653  1.4588
 4758TIP3   OH235688   2.300   6.431  14.683  0.4932 -0.1858  0.0548
 4758TIP3    H135689   2.371   6.435  14.619  0.0753 -0.0356 -0.4145
 4758TIP3    H235690   2.300   6.517  14.724 -1.7830  1.2601 -2.6074
 4759TIP3   OH235691   2.301   5.508   2.538 -0.2548  0.3015  0.1336
 4759TIP3    H135692   2.234   5.562   2.498 -0.7851 -0.2850  0.2076
 4759TIP3    H235693   2.262   5.421   2.542  2.0792 -1.1562 -3.8522
 4760TIP3   OH235694   4.781   6.759   4.874 -0.6358  0.3694  0.2104
 4760TIP3    H135695   4.745   6.838   4.833  0.1443 -0.3082 -1.9341
 4760TIP3    H235696   4.730   6.687   4.838  1.8158 -0.4964 -1.8535
 4761TIP3   OH235697   2.539   0.242  14.637 -0.2244  0.2963  0.0070
 4761TIP3    H135698   2.455   0.258  14.680 -0.8534  0.7580 -1.3328
 4761TIP3    H235699   2.595   0.313  14.668 -0.3563  0.0688  0.7951
 4762TIP3   OH235700   2.771   4.410  13.488  0.4058 -0.0321 -0.6758
 4762TIP3    H135701   2.811   4.497  13.477 -0.6459  0.3723 -1.4521
 4762TIP3    H235702   2.710   4.421  13.560  0.0605 -0.0465 -0.9643
 4763TIP3   OH235703   5.602   5.681  10.679  0.0464 -0.7045  0.3018
 4763TIP3    H135704   5.675   5.742  10.667 -0.6524 -0.0391 -0.6956
 4763TIP3    H235705   5.572   5.663  10.590 -1.4455 -0.4379  0.7377
 4764TIP3   OH235706   0.110   1.182  13.587  0.1206  0.4251  0.5770
 4764TIP3    H135707   0.116   1.277  13.603  1.1054  0.4966 -0.1236
 4764TIP3    H235708   0.033   1.172  13.531  1.4107  1.1350 -1.4293
 4765TIP3   OH235709   4.051   3.080   2.129 -0.5859 -0.2802  0.1344
 4765TIP3    H135710   4.050   3.001   2.073 -0.1290 -0.4627  0.3835
 4765TIP3    H235711   3.966   3.078   2.173 -0.3150 -1.0163  0.6559
 4766TIP3   OH235712   4.419   4.591   1.731  0.2371  0.3208  0.2798
 4766TIP3    H135713   4.403   4.499   1.749  0.0303  0.4283  0.6592
 4766TIP3    H235714   4.334   4.633   1.746  0.3640  0.5904  0.2476
 4767TIP3   OH235715   3.135   2.608   2.395  0.1791  0.3971  0.0808
 4767TIP3    H135716   3.092   2.524   2.377  0.6358  0.3991 -1.1125
 4767TIP3    H235717   3.105   2.666   2.325  0.8933  0.8385  0.1272
 4768TIP3   OH235718   3.739   1.295  17.037 -0.3306  0.3462  0.2020
 4768TIP3    H135719   3.669   1.360  17.048 -2.1700 -1.5807  0.6561
 4768TIP3    H235720   3.719   1.228  17.102  2.2145 -0.1117  0.5942
 4769TIP3   OH235721   6.597   6.489   3.855  0.1554  0.3757  0.4282
 4769TIP3    H135722   6.573   6.404   3.892  1.8843 -0.2646  0.1982
 4769TIP3    H235723   6.692   6.484   3.844 -0.1338  0.2888 -4.5100
 4770TIP3   OH235724   6.188   1.950   3.958  0.0126 -0.5449 -0.3418
 4770TIP3    H135725   6.232   1.931   3.875  0.5830  4.4757 -1.5521
 4770TIP3    H235726   6.099   1.974   3.933 -0.0232  0.3166  0.5386
 4771TIP3   OH235727   2.350   3.360  15.869  0.1452 -0.0984 -0.5274
 4771TIP3    H135728   2.315   3.362  15.780  0.5073  2.0742 -0.6860
 4771TIP3    H235729   2.412   3.288  15.870 -0.0175 -0.2769 -1.9774
 4772TIP3   OH235730   1.815   2.317  12.836  0.0646 -0.6323 -0.0752
 4772TIP3    H135731   1.811   2.331  12.931  0.6855 -0.3394 -0.0875
 4772TIP3    H235732   1.908   2.311  12.816 -0.0088  0.3777 -0.8111
 4773TIP3   OH235733   5.245   6.529   5.596 -0.3060 -0.4467 -0.1756
 4773TIP3    H135734   5.294   6.449   5.616 -0.1681 -0.2743  0.1702
 4773TIP3    H235735   5.224   6.521   5.503  0.2745 -0.5821 -0.2997
 4774TIP3   OH235736   5.306   2.782  12.789 -0.1729 -0.2620  0.2362
 4774TIP3    H135737   5.294   2.852  12.724  0.8980 -0.4479 -0.1941
 4774TIP3    H235738   5.395   2.795  12.821 -0.1561 -1.0983  0.5550
 4775TIP3   OH235739   2.312   6.597  15.741 -0.4907  0.0261 -0.2555
 4775TIP3    H135740   2.294   6.503  15.734 -2.1975  0.0365  2.3734
 4775TIP3    H235741   2.349   6.621  15.656  1.3726 -3.2693 -0.5732
 4776TIP3   OH235742   2.188   1.042  13.987 -0.0302 -0.0323  0.4568
 4776TIP3    H135743   2.271   1.054  14.034  0.0970 -1.0080  0.5021
 4776TIP3    H235744   2.214   1.031  13.895 -0.2186  1.0561  0.2653
 4777TIP3   OH235745   1.035   6.561   2.102 -0.2653  0.5867  0.1616
 4777TIP3    H135746   1.102   6.566   2.034 -0.9523  1.3074 -0.4863
 4777TIP3    H235747   1.008   6.470   2.104 -0.0820  0.5180 -0.3846
 4778TIP3   OH235748   3.454   2.100   0.426 -0.4221  0.4789 -0.6213
 4778TIP3    H135749   3.455   2.090   0.521  0.9945  2.5338 -0.3506
 4778TIP3    H235750   3.468   2.011   0.392  1.8736  0.0775  1.1728
 4779TIP3   OH235751   2.093   3.404  16.988  0.0338 -0.1537  0.0537
 4779TIP3    H135752   2.170   3.449  17.023 -0.1864  0.4888 -0.2679
 4779TIP3    H235753   2.026   3.472  16.982 -0.2279 -0.4650 -0.6935
 4780TIP3   OH235754   0.650   1.161   2.326  0.3392 -0.7720 -0.5891
 4780TIP3    H135755   0.655   1.078   2.278 -0.2209 -1.1192 -0.0727
 4780TIP3    H235756   0.595   1.217   2.271  0.7303 -0.7356 -0.9477
 4781TIP3   OH235757   5.170   1.543  10.000  0.1046 -0.2075  0.1772
 4781TIP3    H135758   5.147   1.451   9.987 -1.4977  0.1061  0.5922
 4781TIP3    H235759   5.199   1.549  10.091 -1.0940 -0.0776  0.5653
 4782TIP3   OH235760   0.139   4.516   6.488 -0.6101 -0.1687  0.1174
 4782TIP3    H135761   0.222   4.469   6.480 -0.6974 -0.0481 -1.8433
 4782TIP3    H235762   0.073   4.451   6.465 -1.0926 -0.2071  1.4844
 4783TIP3   OH235763   6.610   0.280  14.535 -0.6017  0.1908  0.2266
 4783TIP3    H135764   6.591   0.281  14.442 -0.4688 -0.5620  0.1825
 4783TIP3    H235765   6.657   0.362  14.552  0.6194 -0.3042 -0.6355
 4784TIP3   OH235766   3.642   6.670   6.481  0.2750  0.0213  0.1496
 4784TIP3    H135767   3.721   6.713   6.447  1.1113 -0.3102  1.5898
 4784TIP3    H235768   3.630   6.708   6.568 -0.2998 -1.0004  0.5350
 4785TIP3   OH235769   5.561   4.089   5.590 -0.4172  0.3628 -0.1323
 4785TIP3    H135770   5.543   4.168   5.641  1.7208  1.2783 -0.6908
 4785TIP3    H235771   5.629   4.043   5.640 -0.8531 -0.5771 -0.3779
 4786TIP3   OH235772   5.130   3.780   4.354  0.7958 -0.7423 -0.5734
 4786TIP3    H135773   5.063   3.718   4.326 -0.5751 -0.2095  1.2874
 4786TIP3    H235774   5.179   3.733   4.422  0.6253 -0.2726 -0.1166
 4787TIP3   OH235775   6.519   4.966  12.007 -0.4939  0.2247 -0.3211
 4787TIP3    H135776   6.546   4.934  11.921  1.0343  0.6229 -0.0243
 4787TIP3    H235777   6.475   5.049  11.989 -2.8316 -1.0619 -0.9319
 4788TIP3   OH235778   5.586   1.652   2.718 -0.1441 -0.0896  0.0387
 4788TIP3    H135779   5.535   1.626   2.795  0.1731 -1.6490 -0.2535
 4788TIP3    H235780   5.527   1.639   2.644 -0.1299  0.4880 -0.0793
 4789TIP3   OH235781   2.031   2.580  13.349 -0.1555  0.0601  0.0784
 4789TIP3    H135782   1.975   2.636  13.403  1.0386  1.5501 -0.1213
 4789TIP3    H235783   1.986   2.496  13.345 -1.8214  0.8774  0.7758
 4790TIP3   OH235784   6.725   3.855   2.883  0.1991  0.3491 -0.0756
 4790TIP3    H135785   6.674   3.804   2.946 -1.6364 -1.4223 -2.7871
 4790TIP3    H235786   6.766   3.790   2.827 -1.4070  1.7045 -3.0709
 4791TIP3   OH235787   2.837   4.019   0.353 -0.4882 -0.5329  0.6582
 4791TIP3    H135788   2.909   4.043   0.411 -0.0833  0.2710 -0.1492
 4791TIP3    H235789   2.792   4.101   0.336 -1.4755 -0.9979  0.9862
 4792TIP3   OH235790   6.752   4.142   3.509  0.1373  0.0641  0.2530
 4792TIP3    H135791   6.752   4.178   3.420  0.2946  0.8719  0.5706
 4792TIP3    H235792   6.769   4.049   3.497 -2.6178 -0.4092 -0.7706
 4793TIP3   OH235793   6.320   0.365  14.286 -0.1800 -0.0941 -0.0441
 4793TIP3    H135794   6.249   0.360  14.222 -0.2167 -1.3671  0.0614
 4793TIP3    H235795   6.277   0.365  14.371 -0.0654 -1.5397  0.0390
 4794TIP3   OH235796   5.071   3.135   4.763  0.8627 -0.4102 -0.1535
 4794TIP3    H135797   5.140   3.136   4.830  0.9453 -1.0853 -0.2286
 4794TIP3    H235798   5.112   3.094   4.687  0.8464  0.5796 -0.7148
 4795TIP3   OH235799   5.489   0.818  13.994 -0.7549 -0.2664 -0.0014
 4795TIP3    H135800   5.427   0.841  13.925  0.6543  0.7062 -1.0004
 4795TIP3    H235801   5.573   0.809  13.950  0.3376  1.0704  1.6388
 4796TIP3   OH235802   3.825   0.423  15.117  0.1507  0.1850  0.2247
 4796TIP3    H135803   3.811   0.516  15.099  1.2119  0.3270  0.1022
 4796TIP3    H235804   3.886   0.421  15.190  0.8271 -0.4127 -0.3402
 4797TIP3   OH235805   0.501   4.089   6.130 -0.0245  0.1276  0.0227
 4797TIP3    H135806   0.444   4.165   6.119  0.8357  0.9129  0.7855
 4797TIP3    H235807   0.589   4.123   6.117  0.4210 -0.6237  0.9156
 4798TIP3   OH235808   4.263   2.849   1.099  0.1888  0.2310  0.3709
 4798TIP3    H135809   4.309   2.769   1.123  0.9175  0.8366  1.0250
 4798TIP3    H235810   4.211   2.871   1.176  1.2615  1.2777  0.8138
 4799TIP3   OH235811   3.698   3.675  14.009 -1.0090  0.1943 -0.1996
 4799TIP3    H135812   3.615   3.722  14.013 -0.3469  1.5222 -1.0430
 4799TIP3    H235813   3.685   3.610  13.940 -2.2039 -1.5235  1.5286
 4800TIP3   OH235814   3.768   5.093   5.400 -0.1949 -0.2866  0.5094
 4800TIP3    H135815   3.859   5.109   5.426 -0.2960  0.9415  0.1982
 4800TIP3    H235816   3.752   5.002   5.423  1.6823 -1.0952 -1.0888
 4801TIP3   OH235817   3.080   5.278  14.855 -0.6457  0.2046 -0.0939
 4801TIP3    H135818   3.041   5.322  14.931 -2.5039 -0.7655 -0.4345
 4801TIP3    H235819   3.073   5.342  14.784  0.7695  0.9814  0.4327
 4802TIP3   OH235820   1.137   5.991   5.441 -0.3496  0.3684  0.3576
 4802TIP3    H135821   1.137   6.086   5.451  1.8391  0.3719  0.6549
 4802TIP3    H235822   1.119   5.957   5.529 -4.1054  0.4170 -0.2194
 4803TIP3   OH235823   1.097   4.925  12.380  0.2371 -0.7005  0.0687
 4803TIP3    H135824   1.017   4.920  12.432  0.3522 -0.7586  0.2452
 4803TIP3    H235825   1.133   5.011  12.400 -0.4939 -0.1157 -1.0857
 4804TIP3   OH235826   3.588   3.039  11.728  0.7078  0.3125  0.2469
 4804TIP3    H135827   3.606   3.091  11.806  0.5267  2.9891 -1.3844
 4804TIP3    H235828   3.665   3.052  11.673  1.7202 -3.0921  0.6233
 4805TIP3   OH235829   0.431   6.602  14.706 -0.4783  0.2882 -0.2338
 4805TIP3    H135830   0.337   6.588  14.695 -0.5974  0.4156  0.5704
 4805TIP3    H235831   0.448   6.684  14.658 -0.6597 -0.0334 -0.8661
 4806TIP3   OH235832   4.649   5.427   1.305  0.6828  0.4003 -0.2501
 4806TIP3    H135833   4.691   5.502   1.262  0.5680 -0.1218 -1.3113
 4806TIP3    H235834   4.598   5.465   1.376  0.5269  1.3494 -0.8555
 4807TIP3   OH235835   0.505   2.377   6.470 -0.2650 -0.2769  0.3273
 4807TIP3    H135836   0.466   2.430   6.539 -0.6630  0.6960 -0.6185
 4807TIP3    H235837   0.590   2.418   6.454 -0.7088  0.3024 -0.6308
 4808TIP3   OH235838   3.798   3.646   4.887 -0.3518  0.0872 -0.2856
 4808TIP3    H135839   3.821   3.739   4.886 -0.2662  0.0690 -0.1142
 4808TIP3    H235840   3.856   3.606   4.822  0.4785 -0.0440  0.5205
 4809TIP3   OH235841   1.514   2.196   0.011  0.8233 -0.1549 -0.1194
 4809TIP3    H135842   1.549   2.131   0.072 -0.9731  0.1251  1.2946
 4809TIP3    H235843   1.488   2.269   0.066  0.1186  0.5691 -1.3604
 4810TIP3   OH235844   5.478   4.353  11.059 -0.1056 -0.1073  0.0234
 4810TIP3    H135845   5.510   4.292  10.993 -1.6759 -2.8682  1.6251
 4810TIP3    H235846   5.523   4.328  11.140  0.1343  1.7182  0.5023
 4811TIP3   OH235847   0.152   6.159   1.666 -0.3957  0.1083 -0.2725
 4811TIP3    H135848   0.215   6.091   1.689  0.4227  0.7283 -0.6525
 4811TIP3    H235849   0.111   6.127   1.585 -0.1531 -0.0256 -0.3417
 4812TIP3   OH235850   1.591   1.120  16.595 -0.3644 -0.7069 -0.1763
 4812TIP3    H135851   1.677   1.159  16.615  0.0960 -1.3449 -0.8670
 4812TIP3    H235852   1.595   1.032  16.632 -1.4526 -0.1115  1.4901
 4813TIP3   OH235853   4.827   2.501  13.607  0.0871 -0.4969 -0.0137
 4813TIP3    H135854   4.743   2.499  13.562  0.7131 -1.0537 -1.2139
 4813TIP3    H235855   4.867   2.583  13.580 -1.2227  1.2625  2.8794
 4814TIP3   OH235856   1.452   2.552   5.682  0.3616 -0.2470  0.3991
 4814TIP3    H135857   1.367   2.596   5.670  0.0984 -0.6534  0.7504
 4814TIP3    H235858   1.433   2.478   5.740  0.7702 -0.9177 -0.3050
 4815TIP3   OH235859   0.865   1.411  15.088 -0.0493 -0.9986 -0.1889
 4815TIP3    H135860   0.921   1.338  15.114  1.7453  0.0629 -0.9147
 4815TIP3    H235861   0.859   1.404  14.993  2.3878  1.2280 -0.6241
 4816TIP3   OH235862   5.665   1.316   4.967 -0.3068  0.4321  0.1603
 4816TIP3    H135863   5.644   1.263   5.044 -2.5196  1.1542  0.1394
 4816TIP3    H235864   5.759   1.332   4.973 -0.3857  0.3803  2.6781
 4817TIP3   OH235865   0.229   3.448   2.745 -0.6480  0.7577 -0.1198
 4817TIP3    H135866   0.198   3.394   2.672 -0.8045 -0.1480  0.6021
 4817TIP3    H235867   0.227   3.390   2.821  0.3119  1.4431  0.4560
 4818TIP3   OH235868   4.678   0.243   0.758 -0.3020  0.6824  0.5485
 4818TIP3    H135869   4.583   0.247   0.772 -0.1978  0.4126  1.3989
 4818TIP3    H235870   4.694   0.306   0.687 -1.2480 -0.1003 -0.3932
 4819TIP3   OH235871   5.083   3.209  13.395  0.1867  0.2753 -0.0068
 4819TIP3    H135872   5.071   3.121  13.358 -1.0932  0.7649 -0.7896
 4819TIP3    H235873   5.025   3.265  13.344  1.5709  1.7401 -0.0465
 4820TIP3   OH235874   0.845   4.961   0.469  0.1633 -0.0676  0.4301
 4820TIP3    H135875   0.925   4.965   0.415 -0.3427  0.3083 -0.3179
 4820TIP3    H235876   0.875   4.983   0.557  0.7389  1.0079 -0.0088
 4821TIP3   OH235877   2.445   3.934  17.111 -0.0810  0.5389  0.1509
 4821TIP3    H135878   2.386   3.912  17.184  0.0985  1.7996  0.6935
 4821TIP3    H235879   2.386   3.950  17.037 -0.3764  0.9141  0.4596
 4822TIP3   OH235880   1.665   2.652  15.042 -0.2090 -0.4234 -0.5003
 4822TIP3    H135881   1.583   2.611  15.067  0.9163 -3.4670 -1.3160
 4822TIP3    H235882   1.665   2.736  15.087 -3.1982 -0.8265  0.4607
 4823TIP3   OH235883   1.474   6.782  17.069 -0.6391  0.1487 -0.2060
 4823TIP3    H135884   1.503   6.848  17.132  2.7494  0.3462 -1.7666
 4823TIP3    H235885   1.467   6.829  16.986  0.7402 -1.1890 -1.1256
 4824TIP3   OH235886   3.322   6.482  12.862  0.3722  0.5334  0.0604
 4824TIP3    H135887   3.311   6.548  12.930 -0.0750  0.0068  0.5020
 4824TIP3    H235888   3.395   6.428  12.892  0.2578  0.3787  0.0648
 4825TIP3   OH235889   2.294   4.929  16.113 -0.0657 -0.6229  0.2234
 4825TIP3    H135890   2.285   4.935  16.208  0.9095  1.1389  0.2547
 4825TIP3    H235891   2.226   4.987  16.079 -0.4376 -1.2811 -0.1710
 4826TIP3   OH235892   0.431   1.740  11.745 -0.2760  0.1405 -0.0161
 4826TIP3    H135893   0.389   1.681  11.683  0.4677 -0.4768  0.0577
 4826TIP3    H235894   0.378   1.733  11.824 -0.3117 -0.2680 -0.0744
 4827TIP3   OH235895   2.356   6.490   4.826  0.4965 -0.2931 -0.0245
 4827TIP3    H135896   2.365   6.443   4.909  1.3905 -0.4209 -0.1781
 4827TIP3    H235897   2.408   6.570   4.838 -1.3579  0.8965  0.3834
 4828TIP3   OH235898   5.940   1.922   5.021  0.2966  0.4501 -0.1613
 4828TIP3    H135899   5.973   1.942   5.108  1.6020 -0.7007 -0.3570
 4828TIP3    H235900   5.910   1.831   5.027  3.3487 -0.8136 -1.6286
 4829TIP3   OH235901   5.609   1.387  14.911 -0.2565 -0.0372  0.1046
 4829TIP3    H135902   5.633   1.304  14.952  0.9774 -0.3679 -1.1991
 4829TIP3    H235903   5.640   1.379  14.820 -1.4484  1.2794 -0.4534
 4830TIP3   OH235904   0.527   2.200  12.503 -0.1052  0.0146 -0.2667
 4830TIP3    H135905   0.470   2.264  12.545 -2.5938 -2.4206  0.3100
 4830TIP3    H235906   0.616   2.231  12.522 -1.1608  2.8913  0.4854
 4831TIP3   OH235907   5.885   0.529  14.398  0.4699  0.1154 -0.0310
 4831TIP3    H135908   5.829   0.465  14.354 -1.3797  0.6076  1.4642
 4831TIP3    H235909   5.957   0.478  14.434 -0.4723 -1.0012  0.3279
 4832TIP3   OH235910   6.124   1.562   0.427  0.0059 -0.7112 -0.2720
 4832TIP3    H135911   6.108   1.628   0.494 -1.7025 -2.6531  1.3635
 4832TIP3    H235912   6.130   1.611   0.345 -2.8754  1.3553  0.6093
 4833TIP3   OH235913   0.855   2.385  12.560 -0.2941 -0.4459 -0.1475
 4833TIP3    H135914   0.936   2.409  12.514  0.5637 -0.8015  1.1311
 4833TIP3    H235915   0.879   2.308  12.612 -0.8718  0.6574  1.8559
 4834TIP3   OH235916   4.332   3.266  13.197  0.2448  0.2927 -0.3796
 4834TIP3    H135917   4.319   3.314  13.115 -1.5303 -0.1447 -0.3949
 4834TIP3    H235918   4.265   3.300  13.255 -0.7815 -1.7946 -0.2387
 4835TIP3   OH235919   2.421   1.831   4.351 -0.2630 -0.2514  0.0856
 4835TIP3    H135920   2.411   1.742   4.317 -1.3690 -0.4142  0.7922
 4835TIP3    H235921   2.356   1.838   4.421 -0.7304  1.3586 -0.4585
 4836TIP3   OH235922   3.458   4.742  17.175 -0.5586 -0.0347 -0.1819
 4836TIP3    H135923   3.512   4.664  17.160  0.1374  0.1584  1.1982
 4836TIP3    H235924   3.513   4.814  17.146 -1.5432 -0.0721 -2.3130
 4837TIP3   OH235925   4.019   3.229  11.167  0.1097 -0.4762 -0.4193
 4837TIP3    H135926   4.072   3.302  11.134  0.6640 -0.6299  0.0954
 4837TIP3    H235927   4.001   3.176  11.090 -0.7499  0.4654 -0.8941
 4838TIP3   OH235928   3.303   2.392   2.192 -0.7915  0.1517  0.9516
 4838TIP3    H135929   3.224   2.441   2.170 -0.7507 -0.3517 -0.4098
 4838TIP3    H235930   3.333   2.356   2.108  1.1578  0.7248  1.3465
 4839TIP3   OH235931   5.914   5.734  17.000  0.6316  0.4332 -0.2659
 4839TIP3    H135932   5.904   5.705  16.910 -1.6299  3.0281 -0.9875
 4839TIP3    H235933   5.929   5.828  16.994 -1.0168  0.9472  2.0142
 4840TIP3   OH235934   1.226   3.057  10.353  0.2279  0.4174 -0.0534
 4840TIP3    H135935   1.278   2.992  10.401  0.9441 -0.7459 -2.2565
 4840TIP3    H235936   1.141   3.057  10.398  0.5052 -1.3764  0.5847
 4841TIP3   OH235937   2.588   5.607   5.062  0.4061  0.2708  0.1492
 4841TIP3    H135938   2.579   5.670   5.134  1.3926 -0.4113  0.8996
 4841TIP3    H235939   2.502   5.568   5.053 -0.2112  1.6471 -0.2769
 4842TIP3   OH235940   5.600   6.008  13.051 -0.0510 -0.2707  0.1454
 4842TIP3    H135941   5.689   6.003  13.016  0.1380 -0.8987  0.7009
 4842TIP3    H235942   5.582   5.920  13.085  0.6018  0.7930  3.6315
 4843TIP3   OH235943   3.885   5.744  15.161 -0.5630 -0.1000  0.1534
 4843TIP3    H135944   3.895   5.815  15.097 -0.9368  1.8927  2.1726
 4843TIP3    H235945   3.974   5.731  15.195 -0.3233 -1.3168 -0.8686
 4844TIP3   OH235946   2.174   4.837  13.399  0.5840  0.2741 -0.1401
 4844TIP3    H135947   2.243   4.795  13.452  0.5895  0.5954  0.1098
 4844TIP3    H235948   2.213   4.846  13.312  0.0271 -1.7052 -0.6594
 4845TIP3   OH235949   0.509   1.355  15.960 -0.1251 -0.3996  0.7533
 4845TIP3    H135950   0.421   1.385  15.938  0.7802  0.7201 -1.8319
 4845TIP3    H235951   0.537   1.412  16.031 -0.3406  1.5553 -0.6340
 4846TIP3   OH235952   5.043   1.047  10.080  0.1577 -0.0670 -0.1057
 4846TIP3    H135953   5.091   0.973  10.043 -1.9171 -1.4743 -0.1106
 4846TIP3    H235954   5.042   1.030  10.174  1.8221  1.3359  0.2257
 4847TIP3   OH235955   5.768   0.912   6.017 -0.6419 -0.2240  0.3666
 4847TIP3    H135956   5.835   0.957   6.069 -1.3015 -1.1715  2.1211
 4847TIP3    H235957   5.725   0.982   5.969  1.0183  0.5026 -0.1274
 4848TIP3   OH235958   2.647   0.725  14.083 -0.0487 -0.9577 -0.0215
 4848TIP3    H135959   2.683   0.723  13.994 -0.7633 -3.1709 -0.3121
 4848TIP3    H235960   2.650   0.634  14.113 -0.3864 -0.3592  2.0101
 4849TIP3   OH235961   3.360   0.929  15.270  0.1881  0.0979 -0.6107
 4849TIP3    H135962   3.301   0.975  15.210 -0.8737 -0.1938  0.1831
 4849TIP3    H235963   3.335   0.837  15.262  1.6385 -0.2456 -1.4564
 4850TIP3   OH235964   1.669   3.704   4.628 -1.4571  0.1203  0.5598
 4850TIP3    H135965   1.587   3.666   4.660 -0.4822  0.0407  3.2420
 4850TIP3    H235966   1.682   3.782   4.682  0.4759 -0.1597  0.5598
 4851TIP3   OH235967   0.518   6.647  16.319  0.0784 -0.2289 -0.2015
 4851TIP3    H135968   0.444   6.694  16.280 -0.1404  0.0644  0.5521
 4851TIP3    H235969   0.493   6.555  16.313 -0.6590 -0.0989  0.6361
 4852TIP3   OH235970   2.832   5.764  16.065  0.1845  0.2744 -0.0519
 4852TIP3    H135971   2.907   5.762  16.125  0.8070  0.2868 -0.8149
 4852TIP3    H235972   2.837   5.681  16.017  0.0189  0.5072 -0.4788
 4853TIP3   OH235973   5.262   0.631  14.761 -0.0168 -0.4970  0.6877
 4853TIP3    H135974   5.293   0.602  14.847 -0.5800 -1.6457  0.5360
 4853TIP3    H235975   5.174   0.593  14.755 -1.6417  2.8407  1.2196
 4854TIP3   OH235976   1.465   1.163   2.069  0.1159 -0.3368 -0.3642
 4854TIP3    H135977   1.441   1.183   1.978 -0.1264 -0.4368 -0.3233
 4854TIP3    H235978   1.473   1.248   2.111  0.5948 -0.2760 -0.5716
 4855TIP3   OH235979   0.444   2.022  15.808 -0.3782  0.6965  0.0887
 4855TIP3    H135980   0.476   2.039  15.719 -2.2547  0.5599 -0.6690
 4855TIP3    H235981   0.503   1.955  15.842 -0.1551  0.0717 -1.4232
 4856TIP3   OH235982   3.738   2.341   5.038 -0.7045  0.2283 -0.2652
 4856TIP3    H135983   3.804   2.315   5.101  1.3338 -0.4765 -2.5147
 4856TIP3    H235984   3.714   2.430   5.063  1.3833  0.6392  0.4384
 4857TIP3   OH235985   0.002   4.575  13.098  0.0907 -0.9918 -0.2721
 4857TIP3    H135986  -0.049   4.556  13.019 -0.6936 -0.4171  0.0917
 4857TIP3    H235987  -0.057   4.624  13.154  0.7392 -1.1506  0.5652
 4858TIP3   OH235988   0.583   2.017  16.125 -0.3023  0.4012 -0.2056
 4858TIP3    H135989   0.656   2.032  16.065  0.3403 -0.1190  0.4333
 4858TIP3    H235990   0.614   2.051  16.209 -0.1182 -1.3771  0.4777
 4859TIP3   OH235991   6.663   3.072  11.466  0.1841  1.1399 -0.7027
 4859TIP3    H135992   6.614   3.146  11.501  0.8824  0.1746  2.6415
 4859TIP3    H235993   6.617   2.995  11.497  1.5416  0.1945 -0.9307
 4860TIP3   OH235994   4.022   0.909  16.971 -0.2957 -0.2840 -0.5484
 4860TIP3    H135995   4.094   0.845  16.975 -1.2987 -1.4542 -0.7568
 4860TIP3    H235996   3.984   0.908  17.059  0.0624  0.5002 -0.3754
 4861TIP3   OH235997   0.018   6.627  15.469 -0.5649  0.5341 -0.4722
 4861TIP3    H135998   0.071   6.566  15.521 -1.4011  1.6377  1.7823
 4861TIP3    H235999   0.050   6.714  15.494  0.3492  1.1413 -3.3540
 4862TIP3   OH236000   3.457   3.600  15.758  0.2813  0.2121  0.1862
 4862TIP3    H136001   3.420   3.581  15.672  1.0431  0.0168 -0.1046
 4862TIP3    H236002   3.479   3.514  15.794 -0.9014  0.2148  0.9894
 4863TIP3   OH236003   1.737   0.334   2.381 -0.2712 -0.1597 -0.2165
 4863TIP3    H136004   1.768   0.320   2.470 -1.0609 -1.4689 -0.1315
 4863TIP3    H236005   1.644   0.313   2.383 -0.2551 -0.4417 -1.4033
 4864TIP3   OH236006   1.990   3.925   2.654 -0.1452  0.5347 -0.1225
 4864TIP3    H136007   2.059   3.947   2.716 -0.0626 -1.9631  0.8290
 4864TIP3    H236008   2.034   3.873   2.587 -0.8926 -0.3205  0.0199
 4865TIP3   OH236009   1.883   1.136   1.168  0.1603  0.3856 -0.0934
 4865TIP3    H136010   1.897   1.045   1.195 -0.6987  0.3154  0.1595
 4865TIP3    H236011   1.791   1.139   1.144  0.2193  1.1605 -0.2366
 4866TIP3   OH236012   4.402   5.511  11.709  0.3409 -0.2784 -0.1539
 4866TIP3    H136013   4.402   5.605  11.728 -2.7046  0.0304 -1.1096
 4866TIP3    H236014   4.376   5.470  11.792 -0.2638 -0.0899 -0.2471
 4867TIP3   OH236015   5.909   6.627  14.892  0.2767 -0.3498  0.2247
 4867TIP3    H136016   5.850   6.586  14.830  0.4532  1.2093 -1.0296
 4867TIP3    H236017   5.853   6.650  14.967 -0.2643 -0.8016 -0.0364
 4868TIP3   OH236018   6.276   5.212   6.331  0.0265  0.1627 -0.1424
 4868TIP3    H136019   6.308   5.156   6.260 -2.0384 -0.1161 -0.9266
 4868TIP3    H236020   6.323   5.182   6.409 -0.2979 -2.0284 -0.7294
 4869TIP3   OH236021   4.826   0.632   4.806 -0.1333 -0.0782  0.0944
 4869TIP3    H136022   4.796   0.712   4.762 -1.3893 -0.4427  0.2471
 4869TIP3    H236023   4.787   0.636   4.893  0.4429 -0.4827  0.3801
 4870TIP3   OH236024   0.985   0.049   3.527 -0.2826 -0.0775 -0.2945
 4870TIP3    H136025   0.946   0.042   3.439  0.3808 -1.2957 -0.5135
 4870TIP3    H236026   0.933   0.117   3.571 -1.1791 -0.0603 -1.3356
 4871TIP3   OH236027   4.467   2.170   3.111  0.1525  0.1026  0.2748
 4871TIP3    H136028   4.502   2.238   3.054 -0.9091  1.5515  1.2800
 4871TIP3    H236029   4.454   2.213   3.195 -5.0805  0.1352 -0.2541
 4872TIP3   OH236030   1.785   5.141  14.649  0.3219  0.1280 -0.2435
 4872TIP3    H136031   1.702   5.184  14.630  0.2973 -0.0064 -0.4414
 4872TIP3    H236032   1.760   5.059  14.693  0.2612 -0.7412 -1.8166
 4873TIP3   OH236033   6.509   3.342  10.872 -0.0568 -0.8169  0.5484
 4873TIP3    H136034   6.533   3.249  10.868  0.4584 -0.6494 -1.1439
 4873TIP3    H236035   6.479   3.355  10.962  0.4432 -2.4750  0.9999
 4874TIP3   OH236036   0.811   6.594   2.553 -0.4841  0.5202  0.3725
 4874TIP3    H136037   0.882   6.531   2.570 -0.1777  1.3361  2.4919
 4874TIP3    H236038   0.758   6.592   2.633 -1.5021  1.6562 -0.2386
 4875TIP3   OH236039   0.372   1.184  15.525  0.0401  0.1274 -0.0892
 4875TIP3    H136040   0.304   1.243  15.557  0.5473 -0.1928  1.6795
 4875TIP3    H236041   0.446   1.199  15.583 -0.0546 -2.7591  0.9121
 4876TIP3   OH236042   4.557   0.381  11.197  0.0545  0.3805 -0.5982
 4876TIP3    H136043   4.466   0.384  11.169  0.0744 -0.4308 -0.7793
 4876TIP3    H236044   4.606   0.364  11.117  0.1038 -2.0397 -0.1489
 4877TIP3   OH236045   6.013   3.466   4.925 -0.4183  0.4596 -0.1373
 4877TIP3    H136046   6.000   3.549   4.879 -0.1535  0.3007 -0.5012
 4877TIP3    H236047   5.976   3.481   5.012  0.8659  1.4094  0.2731
 4878TIP3   OH236048   6.143   2.976   5.020  0.1090  0.5109  0.6317
 4878TIP3    H136049   6.215   2.940   5.073  0.1290  2.2540  1.8843
 4878TIP3    H236050   6.185   3.036   4.959 -0.2581  1.6730  1.4863
 4879TIP3   OH236051   5.059   1.822  16.273  0.3602  0.7080 -0.3892
 4879TIP3    H136052   4.995   1.881  16.234 -0.4800  0.9070  1.2165
 4879TIP3    H236053   5.015   1.785  16.350  1.3873 -0.8920 -0.5091
 4880TIP3   OH236054   5.269   4.457  16.767 -0.1854  0.2460 -0.5221
 4880TIP3    H136055   5.216   4.432  16.842  1.5466 -0.0166  0.6855
 4880TIP3    H236056   5.331   4.521  16.802 -0.7286  1.8188 -2.2423
 4881TIP3   OH236057   2.244   2.277  16.189 -0.1506  0.4631  0.2984
 4881TIP3    H136058   2.175   2.237  16.136  0.3545 -0.6446  0.4421
 4881TIP3    H236059   2.301   2.204  16.213  0.5629  1.2143  0.9561
 4882TIP3   OH236060   2.012   6.657   6.135  0.4355  0.5461 -0.5611
 4882TIP3    H136061   2.016   6.604   6.055  0.9572 -0.4673  0.1161
 4882TIP3    H236062   2.078   6.725   6.122  0.5326  0.3760 -0.9822
 4883TIP3   OH236063   5.352   5.422  14.664  0.2327  0.5551  0.2863
 4883TIP3    H136064   5.446   5.420  14.681  0.6113  0.2764 -1.6210
 4883TIP3    H236065   5.335   5.509  14.629  0.3541 -0.3458 -2.1473
 4884TIP3   OH236066   4.909   6.471  16.259  0.3577  0.0806 -0.4690
 4884TIP3    H136067   4.912   6.509  16.171  1.8096 -0.4737 -0.6833
 4884TIP3    H236068   4.992   6.497  16.299  0.0726 -0.3794  0.4282
 4885TIP3   OH236069   4.604   4.886  13.899 -0.3553  0.0358 -0.3465
 4885TIP3    H136070   4.555   4.837  13.965  0.0166  1.4051  0.9968
 4885TIP3    H236071   4.687   4.839  13.891 -0.9478 -0.9613 -0.9388
 4886TIP3   OH236072   6.752   0.371  12.349 -0.0393  0.0535  0.3280
 4886TIP3    H136073   6.718   0.321  12.275  0.0184  1.2563 -0.5430
 4886TIP3    H236074   6.735   0.316  12.425  0.9882 -1.7727 -0.6829
 4887TIP3   OH236075   5.751   2.058   4.174 -0.2703  0.4347  0.3493
 4887TIP3    H136076   5.804   2.022   4.245 -2.1726 -0.7740  1.2428
 4887TIP3    H236077   5.809   2.119   4.129  1.0915  1.0471  2.7659
 4888TIP3   OH236078   2.674   2.759   0.090  0.2119  0.6973 -0.4717
 4888TIP3    H136079   2.751   2.787   0.041  0.7092  1.8700  0.8878
 4888TIP3    H236080   2.696   2.673   0.124  0.6419  0.7175 -0.6998
 4889TIP3   OH236081   0.846   6.736   1.033 -0.2020 -0.2711  0.1052
 4889TIP3    H136082   0.936   6.703   1.026  0.0745  0.5407 -0.3258
 4889TIP3    H236083   0.853   6.817   1.082 -0.5786  0.2402 -0.6602
 4890TIP3   OH236084   4.135   3.620   4.230  0.1709  0.1565 -0.8782
 4890TIP3    H136085   4.101   3.702   4.268 -0.1369  0.5526 -1.9835
 4890TIP3    H236086   4.187   3.649   4.155 -2.3019 -0.7868 -3.0679
 4891TIP3   OH236087   3.805   3.042  12.206  0.1181  0.1267  0.1057
 4891TIP3    H136088   3.720   3.007  12.179  0.6778 -0.3884 -1.0720
 4891TIP3    H236089   3.866   3.010  12.140  1.1709  0.8097  0.7181
 4892TIP3   OH236090   0.442   0.331  14.450  0.8377  0.3290  0.4424
 4892TIP3    H136091   0.394   0.399  14.498  1.8765  1.9695 -0.7271
 4892TIP3    H236092   0.376   0.286  14.398  0.2042  0.8795  0.7624
 4893TIP3   OH236093   4.424   3.932   3.900  0.4366  0.3858  0.5024
 4893TIP3    H136094   4.462   4.003   3.951  1.3369  0.0431  0.3333
 4893TIP3    H236095   4.349   3.971   3.855  0.8962  1.2055  0.4410
 4894TIP3   OH236096   3.563   4.294   6.052  0.6884  0.0384 -0.1609
 4894TIP3    H136097   3.471   4.276   6.033  1.2070 -1.2795 -1.5997
 4894TIP3    H236098   3.562   4.336   6.139 -1.2447  0.0777 -0.1616
 4895TIP3   OH236099   0.378   1.923  14.385 -0.2415 -0.5378  0.6051
 4895TIP3    H136100   0.454   1.866  14.379  0.2792 -0.2082  2.9818
 4895TIP3    H236101   0.332   1.894  14.464 -1.6922  0.3227  0.1268
 4896TIP3   OH236102   2.172   6.329   3.435 -0.4047 -0.1072 -1.0524
 4896TIP3    H136103   2.092   6.310   3.483 -0.4093  0.2589 -0.9128
 4896TIP3    H236104   2.143   6.344   3.345 -0.6264  1.0894 -0.7913
 4897TIP3   OH236105   0.373   4.583   5.115  0.5297  0.6273  0.2217
 4897TIP3    H136106   0.386   4.518   5.184 -0.6618  0.8764  0.7172
 4897TIP3    H236107   0.334   4.658   5.161 -1.3801  0.3754 -0.8767
 4898TIP3   OH236108   4.421   3.037   5.111 -0.1849  0.4401  0.0412
 4898TIP3    H136109   4.436   3.106   5.047 -0.4348  0.1069 -0.3799
 4898TIP3    H236110   4.471   2.962   5.079  0.3226  0.5030  0.6493
 4899TIP3   OH236111   4.789   3.913  16.855  0.0601  0.0215 -0.5621
 4899TIP3    H136112   4.873   3.909  16.809  0.3417 -0.7948  0.0048
 4899TIP3    H236113   4.813   3.917  16.948 -0.5209  0.6013 -0.4279
 4900TIP3   OH236114   4.406   5.551   5.462  0.1969  0.2011 -0.0630
 4900TIP3    H136115   4.485   5.602   5.479  1.2192 -1.4978  0.5947
 4900TIP3    H236116   4.375   5.582   5.378  1.3777  1.1472 -0.1779
 4901TIP3   OH236117   4.604   0.465   0.617  0.0386 -0.2721  0.0797
 4901TIP3    H136118   4.537   0.458   0.549 -0.6061  0.2586  0.6401
 4901TIP3    H236119   4.567   0.527   0.680 -0.7699 -2.9641  2.4879
 4902TIP3   OH236120   1.666   1.741  17.017  0.4813  0.1107  0.1359
 4902TIP3    H136121   1.744   1.796  17.022  0.8826 -0.4842  0.6705
 4902TIP3    H236122   1.611   1.770  17.089  1.3574 -1.1463  1.3654
 4903TIP3   OH236123   0.757   4.154   0.686 -1.1973  0.2999 -0.0487
 4903TIP3    H136124   0.812   4.225   0.652  0.1961 -1.1191 -0.9101
 4903TIP3    H236125   0.747   4.173   0.779  0.0007  1.1021 -0.0594
 4904TIP3   OH236126   0.873   2.452  12.202  0.3898  0.9219 -0.7506
 4904TIP3    H136127   0.860   2.358  12.215  0.7741  1.1054  1.5150
 4904TIP3    H236128   0.965   2.467  12.227 -0.0411  2.0611  0.2676
 4905TIP3   OH236129   2.892   3.598   0.664  0.2923 -0.0583 -0.3312
 4905TIP3    H136130   2.918   3.571   0.752 -0.5433 -2.4034 -0.7262
 4905TIP3    H236131   2.881   3.693   0.670 -0.7880 -0.2615  2.4073
 4906TIP3   OH236132   6.323   4.900   0.882 -0.1283 -0.3052 -0.0658
 4906TIP3    H136133   6.284   4.987   0.888 -1.4634 -0.8128 -0.8962
 4906TIP3    H236134   6.374   4.902   0.800  2.6112  0.6906  1.5196
 4907TIP3   OH236135   0.470   4.930   4.864  0.0799  0.3068  0.1992
 4907TIP3    H136136   0.479   5.012   4.814 -2.0744  0.3197 -0.2454
 4907TIP3    H236137   0.451   4.864   4.798 -0.7125 -0.0703  0.7911
 4908TIP3   OH236138   2.569   2.656   4.452 -0.3448  0.7614  0.1208
 4908TIP3    H136139   2.572   2.601   4.374  1.7384 -0.2117  0.8200
 4908TIP3    H236140   2.638   2.622   4.509 -1.1847  2.0204  2.0144
 4909TIP3   OH236141   3.148   4.859   4.256  0.4999 -0.8392  0.7074
 4909TIP3    H136142   3.097   4.827   4.331  1.6191 -2.0551  0.9896
 4909TIP3    H236143   3.150   4.954   4.268 -1.8971 -0.7006  0.5242
 4910TIP3   OH236144   5.404   6.540  14.463 -0.2303  0.0035 -0.4995
 4910TIP3    H136145   5.423   6.634  14.454  1.1453 -0.2474 -0.5128
 4910TIP3    H236146   5.393   6.509  14.373 -0.0732  0.0410 -0.5329
 4911TIP3   OH236147   4.443   1.331   1.629 -0.0773 -0.3715  0.3895
 4911TIP3    H136148   4.530   1.316   1.667 -0.2379  0.3601  1.0731
 4911TIP3    H236149   4.461   1.354   1.538  0.3680 -1.3397  0.2291
 4912TIP3   OH236150   6.663   6.094  15.238  0.0817 -0.1280  0.2948
 4912TIP3    H136151   6.698   6.154  15.173  1.0508 -0.7324  0.2328
 4912TIP3    H236152   6.739   6.071  15.292 -0.5575 -0.2061  1.1854
 4913TIP3   OH236153   3.784   5.067  16.465 -0.5071  0.2955  0.0349
 4913TIP3    H136154   3.771   4.995  16.526 -0.5712 -0.0394 -0.3687
 4913TIP3    H236155   3.816   5.139  16.519  0.3543 -0.2882  0.3295
 4914TIP3   OH236156   0.513   5.541  12.842  0.1705 -0.3027 -0.3001
 4914TIP3    H136157   0.454   5.616  12.836 -0.8172 -0.8380  1.7618
 4914TIP3    H236158   0.482   5.492  12.919  2.1725 -1.6154 -0.2535
 4915TIP3   OH236159   4.668   0.432  12.856  0.1301 -0.2057 -0.1173
 4915TIP3    H136160   4.615   0.395  12.785  1.8604 -2.7291 -0.2172
 4915TIP3    H236161   4.674   0.525  12.835 -0.5036 -0.6425 -2.5484
 4916TIP3   OH236162   6.167   1.959   0.140 -0.1627 -0.4227 -0.1974
 4916TIP3    H136163   6.128   1.905   0.208  0.1674 -0.5167 -0.0858
 4916TIP3    H236164   6.145   2.049   0.165 -0.0743 -0.4595  0.0121
 4917TIP3   OH236165   4.641   0.973  17.130  0.3978  0.6287 -0.3789
 4917TIP3    H136166   4.600   1.034  17.191  2.3554  0.2626  1.4306
 4917TIP3    H236167   4.595   0.891  17.144  0.1499  0.8092 -0.1276
 4918TIP3   OH236168   1.966   4.310  16.011  0.7291 -0.4859  0.2107
 4918TIP3    H136169   1.881   4.329  16.050  0.2626 -1.5102 -0.2860
 4918TIP3    H236170   1.995   4.395  15.976 -0.1067 -0.1410  0.3192
 4919TIP3   OH236171   0.955   0.718   1.330  0.2212 -0.4086  0.1187
 4919TIP3    H136172   0.872   0.679   1.301  0.3409 -1.1277  0.7352
 4919TIP3    H236173   1.023   0.665   1.289  0.3877 -0.2791  0.2250
 4920TIP3   OH236174   4.577   2.058  15.908  0.3261  0.3960  0.1404
 4920TIP3    H136175   4.596   1.978  15.958 -2.6660  0.6933  1.9984
 4920TIP3    H236176   4.601   2.036  15.818  2.4718 -1.4699  1.0752
 4921TIP3   OH236177   5.837   4.203   4.821  0.1337  0.0280  0.1190
 4921TIP3    H136178   5.765   4.257   4.791  0.4001 -0.1842 -0.9457
 4921TIP3    H236179   5.916   4.255   4.803  0.3834 -0.6365 -0.8294
 4922TIP3   OH236180   5.015   4.180  16.454  0.0635 -0.6790 -0.1832
 4922TIP3    H136181   4.998   4.139  16.369  2.4849 -1.1356 -0.5223
 4922TIP3    H236182   5.108   4.204  16.451 -0.7691  3.3856  0.6607
 4923TIP3   OH236183   4.780   3.915  15.152 -0.1830  0.2733 -0.0332
 4923TIP3    H136184   4.771   3.995  15.204  2.9027 -0.3432  1.6982
 4923TIP3    H236185   4.734   3.848  15.203 -1.3855  0.5928 -0.6683
 4924TIP3   OH236186   2.968   5.663   3.307 -0.2027  0.0201 -0.6504
 4924TIP3    H136187   2.903   5.659   3.237  0.3297  0.8932 -1.2095
 4924TIP3    H236188   2.934   5.727   3.369 -0.7319 -0.8404 -0.0347
 4925TIP3   OH236189   3.961   6.461   4.166  0.3231  0.2295  0.4955
 4925TIP3    H136190   3.904   6.458   4.090  1.4564  1.4446 -0.4459
 4925TIP3    H236191   3.968   6.554   4.187  0.4148 -0.0443  1.8122
 4926TIP3   OH236192   3.405   0.103  16.980  0.4134 -0.2965  0.1462
 4926TIP3    H136193   3.362   0.061  16.905 -0.1030  1.4629 -0.5888
 4926TIP3    H236194   3.419   0.032  17.042 -0.4572 -1.5432 -1.0268
 4927TIP3   OH236195   3.582   1.024  12.225 -0.7238  0.5027 -0.4413
 4927TIP3    H136196   3.596   0.956  12.292 -0.6013  1.8380  0.9442
 4927TIP3    H236197   3.542   0.977  12.152  1.0572 -1.4244 -0.2861
 4928TIP3   OH236198   4.326   4.167  16.640 -0.1083 -0.3539  0.0800
 4928TIP3    H136199   4.350   4.152  16.732 -0.2101 -0.0933  0.1501
 4928TIP3    H236200   4.244   4.118  16.629  0.1980 -0.8549 -0.0294
 4929TIP3   OH236201   0.053   6.501   3.985 -0.1369  0.0034 -0.4532
 4929TIP3    H136202   0.073   6.590   4.014  2.0937 -0.5533 -0.0954
 4929TIP3    H236203  -0.006   6.467   4.052  0.9105  0.4564  0.7487
 4930TIP3   OH236204   6.732   5.200  12.324 -0.0464 -0.7779 -0.1442
 4930TIP3    H136205   6.704   5.291  12.323  0.3791 -0.5727  2.4339
 4930TIP3    H236206   6.818   5.200  12.282  0.2099  0.0886  0.3804
 4931TIP3   OH236207   6.688   0.777  14.536 -0.5222  0.3029  0.1896
 4931TIP3    H136208   6.647   0.821  14.461  1.6154 -2.2191 -2.6910
 4931TIP3    H236209   6.744   0.845  14.575 -3.2210  2.2626  0.9741
 4932TIP3   OH236210   2.023   5.875   2.271 -0.1414 -0.4586  0.1275
 4932TIP3    H136211   2.027   5.809   2.202 -0.3507 -1.1193  0.7306
 4932TIP3    H236212   1.931   5.878   2.296 -0.6261  1.8611 -1.5621
 4933TIP3   OH236213   5.681   3.792   5.651 -0.2558  0.0278 -0.6331
 4933TIP3    H136214   5.721   3.756   5.730 -1.5820 -0.4459 -0.1530
 4933TIP3    H236215   5.755   3.810   5.593  0.6010 -1.6056 -0.1173
 4934TIP3   OH236216   4.779   0.640   4.173  0.0969 -0.2230  0.3107
 4934TIP3    H136217   4.750   0.596   4.252  2.6383  0.0635  1.4984
 4934TIP3    H236218   4.863   0.680   4.196  0.5647  0.5496 -2.2973
 4935TIP3   OH236219   3.647   2.486  14.089 -0.2909 -0.0906 -0.7488
 4935TIP3    H136220   3.574   2.430  14.061 -1.9806 -0.0775  2.9859
 4935TIP3    H236221   3.710   2.424  14.126 -0.2484  0.1499 -0.4162
 4936TIP3   OH236222   3.297   6.641   5.813 -0.1223 -0.1773 -0.1481
 4936TIP3    H136223   3.387   6.644   5.779  0.4866  0.7528  1.4277
 4936TIP3    H236224   3.298   6.700   5.888 -2.3901  0.8066 -0.8102
 4937TIP3   OH236225   1.521   6.609   0.045  0.0716  0.7308  0.0257
 4937TIP3    H136226   1.490   6.630  -0.043 -2.0679  0.3203  0.6253
 4937TIP3    H236227   1.605   6.653   0.051 -0.1521  1.5477 -1.8970
 4938TIP3   OH236228   0.011   0.872  12.129 -0.7024 -0.2242  0.8874
 4938TIP3    H136229   0.023   0.965  12.147  1.2070 -0.7736  2.8638
 4938TIP3    H236230  -0.059   0.869  12.064 -1.2657  2.5347  1.2546
 4939TIP3   OH236231   4.194   1.113  16.085 -0.4043 -0.0796  0.2564
 4939TIP3    H136232   4.149   1.147  16.008 -1.8157 -2.4982 -0.0951
 4939TIP3    H236233   4.256   1.182  16.109 -1.3893  1.6254 -1.7611
 4940TIP3   OH236234   5.862   4.490  16.385 -0.2335 -0.0569  0.6128
 4940TIP3    H136235   5.958   4.482  16.383 -0.3328 -1.4495  0.3631
 4940TIP3    H236236   5.835   4.428  16.453 -1.0338 -0.6020 -0.1906
 4941TIP3   OH236237   4.041   0.486   1.797  0.2160 -0.2737  0.1934
 4941TIP3    H136238   4.111   0.446   1.849 -1.2691 -3.7005 -0.1873
 4941TIP3    H236239   3.964   0.482   1.855 -0.5755 -0.4430 -0.8507
 4942TIP3   OH236240   3.024   3.749  14.027 -0.0419 -0.4093 -0.2117
 4942TIP3    H136241   3.011   3.823  14.087 -0.8449 -0.5852 -0.1598
 4942TIP3    H236242   2.986   3.778  13.944 -1.3095 -1.1307  0.0877
 4943TIP3   OH236243   1.461   3.437  14.672  0.0034  0.1546  0.6073
 4943TIP3    H136244   1.482   3.526  14.645  0.7578 -0.5297 -1.2618
 4943TIP3    H236245   1.479   3.384  14.595 -2.9050 -1.3136  0.7778
 4944TIP3   OH236246   0.456   4.963  11.140 -0.2345 -0.4609 -0.3513
 4944TIP3    H136247   0.534   4.942  11.088  0.0078  2.6852 -1.5046
 4944TIP3    H236248   0.387   4.974  11.074 -0.6720  0.5942  0.2639
 4945TIP3   OH236249   3.819   1.314  11.129  0.0556  0.3536 -0.0975
 4945TIP3    H136250   3.852   1.227  11.104 -0.3061  0.1901 -0.0188
 4945TIP3    H236251   3.752   1.334  11.063  2.1263  1.8636 -1.8546
 4946TIP3   OH236252   5.230   6.039   2.049 -0.0575  0.2511  0.0297
 4946TIP3    H136253   5.237   6.115   1.992  0.0670 -0.1235 -0.4566
 4946TIP3    H236254   5.138   6.036   2.075 -0.7024 -1.0344 -2.1842
 4947TIP3   OH236255   0.842   2.209  16.752 -0.9665 -0.0165 -1.0143
 4947TIP3    H136256   0.923   2.158  16.753  0.6513  2.3300  1.2474
 4947TIP3    H236257   0.842   2.253  16.667  0.0621 -0.2015 -1.1190
 4948TIP3   OH236258   0.728   0.631   3.887  0.5417 -0.9170 -0.1830
 4948TIP3    H136259   0.663   0.571   3.925  1.3693 -0.2338  2.5405
 4948TIP3    H236260   0.678   0.708   3.862  0.1082 -0.8959  0.7087
 4949TIP3   OH236261   0.390   1.736  14.958 -0.1224  0.6717 -0.3803
 4949TIP3    H136262   0.325   1.696  14.901 -0.1603 -1.6243  1.1645
 4949TIP3    H236263   0.369   1.830  14.956 -2.0947  0.2580 -1.5842
 4950TIP3   OH236264   5.169   6.229   0.604  0.8647  0.1194  0.4377
 4950TIP3    H136265   5.134   6.261   0.521  0.4628  0.0829  0.5920
 4950TIP3    H236266   5.198   6.307   0.651  0.0325  0.2534  0.7464
 4951TIP3   OH236267   0.011   1.162  13.287 -0.2383 -0.2310  0.3251
 4951TIP3    H136268   0.028   1.147  13.194  1.2294 -1.4943  0.7488
 4951TIP3    H236269   0.018   1.076  13.327 -2.2950  0.0551  1.4406
 4952TIP3   OH236270   0.455   5.609   4.184  0.1498  0.2581 -1.0092
 4952TIP3    H136271   0.497   5.694   4.200 -0.4714  0.6936 -1.6439
 4952TIP3    H236272   0.524   5.545   4.201  0.5854  0.8781 -0.3710
 4953TIP3   OH236273   1.410   6.025   3.382  0.2399  0.6657 -0.1737
 4953TIP3    H136274   1.435   5.997   3.470  1.1845  0.4115 -0.5206
 4953TIP3    H236275   1.328   5.979   3.365 -0.2884  1.2085  0.8173
 4954TIP3   OH236276   0.547   5.893   4.208  0.6167 -0.2284  0.0319
 4954TIP3    H136277   0.590   5.889   4.293  0.4849  1.8536  0.2353
 4954TIP3    H236278   0.600   5.955   4.157 -1.3559  1.4089 -0.1336
 4955TIP3   OH236279   5.436   6.783   1.310  0.0855  0.4827 -0.3566
 4955TIP3    H136280   5.455   6.868   1.270 -4.6990  1.5600 -0.8779
 4955TIP3    H236281   5.388   6.734   1.243  0.0129 -1.4156  0.9909
 4956TIP3   OH236282   5.478   6.230  15.936  0.1585 -0.3037 -0.0841
 4956TIP3    H136283   5.458   6.210  16.027 -0.6083  1.5282  0.1881
 4956TIP3    H236284   5.573   6.241  15.934  0.1564 -0.1625  0.5228
 4957TIP3   OH236285   0.825   1.289   6.233 -0.1092  0.0698  0.0593
 4957TIP3    H136286   0.898   1.330   6.279  1.1373 -1.3317 -0.5877
 4957TIP3    H236287   0.773   1.362   6.200  1.9710  1.1654 -0.9938
 4958TIP3   OH236288   1.843   6.182  11.917  0.0341 -0.2917 -0.3528
 4958TIP3    H136289   1.874   6.114  11.858 -2.7087 -0.7393 -1.4011
 4958TIP3    H236290   1.815   6.135  11.996 -1.2446 -0.3531 -0.8203
 4959TIP3   OH236291   0.722   6.551   0.197  0.0672 -0.4723 -0.1507
 4959TIP3    H136292   0.763   6.520   0.116 -1.1728  1.4010 -1.5643
 4959TIP3    H236293   0.771   6.506   0.266  2.1670 -1.0160 -1.8572
 4960TIP3   OH236294   0.791   3.248  12.059 -0.4585  0.9742 -0.2457
 4960TIP3    H136295   0.733   3.179  12.092 -0.0820  1.3510  1.2824
 4960TIP3    H236296   0.735   3.324  12.048 -0.7297  0.6552 -1.2463
 4961TIP3   OH236297   3.674   6.521   1.509 -0.4348 -0.7789 -0.3077
 4961TIP3    H136298   3.746   6.582   1.517  0.1588 -1.4490 -0.4407
 4961TIP3    H236299   3.613   6.564   1.449 -2.2521  1.7287  3.0052
 4962TIP3   OH236300   4.533   3.084  12.540  0.1947 -0.2515 -0.2046
 4962TIP3    H136301   4.510   3.177  12.545  1.0084  0.0317 -1.2795
 4962TIP3    H236302   4.491   3.045  12.617 -0.6921  0.8817 -0.0752
 4963TIP3   OH236303   6.620   4.527  12.880 -0.9179  0.3951 -0.9455
 4963TIP3    H136304   6.632   4.437  12.849  1.3045  0.5794 -0.7670
 4963TIP3    H236305   6.545   4.522  12.939 -0.1024 -1.6210  0.0312
 4964TIP3   OH236306   2.723   3.634  11.183  0.0876  0.4386  0.3840
 4964TIP3    H136307   2.687   3.696  11.119  0.6379  1.4958  1.0759
 4964TIP3    H236308   2.653   3.621  11.247 -0.8421 -1.3991 -0.8955
 4965TIP3   OH236309   6.503   6.740   1.225  0.3064  0.1998  0.2872
 4965TIP3    H136310   6.547   6.812   1.181 -2.0813  2.8447  1.8746
 4965TIP3    H236311   6.434   6.712   1.165  2.0131 -1.7967 -0.8750
 4966TIP3   OH236312   6.493   2.958   1.281  0.0018  0.1344  0.4030
 4966TIP3    H136313   6.437   2.890   1.320 -0.9449 -0.9840 -2.6002
 4966TIP3    H236314   6.454   3.040   1.310 -1.7550 -0.6351  0.3801
 4967TIP3   OH236315   5.149   2.658   5.793  0.3210  0.2148  0.0822
 4967TIP3    H136316   5.209   2.592   5.759 -1.4299 -0.7474 -1.3617
 4967TIP3    H236317   5.070   2.609   5.815 -0.6500  1.6831  0.0210
 4968TIP3   OH236318   0.852   5.325   0.078 -0.0470 -0.3860 -0.0618
 4968TIP3    H136319   0.777   5.290   0.126  0.3544 -1.3220 -0.0968
 4968TIP3    H236320   0.928   5.303   0.132  0.3668 -1.0399 -0.8896
 4969TIP3   OH236321   1.943   2.519  11.212 -0.0367  0.0573  0.9245
 4969TIP3    H136322   1.888   2.466  11.270 -1.2152  0.3883  0.1521
 4969TIP3    H236323   2.026   2.528  11.259  0.5101 -3.0515  0.8064
 4970TIP3   OH236324   1.749   0.692  15.497  0.7657 -0.0081  0.3610
 4970TIP3    H136325   1.740   0.646  15.581  0.7002  0.6363  0.7154
 4970TIP3    H236326   1.659   0.705  15.467  0.5218  2.8650  1.9337
 4971TIP3   OH236327   5.550   4.992   4.551 -0.5468  0.3585 -0.6331
 4971TIP3    H136328   5.581   5.002   4.641 -0.8705  1.7203 -0.6469
 4971TIP3    H236329   5.610   4.928   4.512  0.5198  0.8666  0.1296
 4972TIP3   OH236330   1.577   5.756  12.631 -0.2666  0.5782 -0.0586
 4972TIP3    H136331   1.556   5.734  12.541  0.8049  0.7851 -0.3684
 4972TIP3    H236332   1.533   5.688  12.683 -0.2806  0.0256 -0.7773
 4973TIP3   OH236333   0.025   2.777  16.714  0.1405  0.7162 -0.2644
 4973TIP3    H136334  -0.015   2.692  16.731  1.8317 -0.0791 -0.0571
 4973TIP3    H236335   0.117   2.757  16.695  1.2377  2.6570  2.2889
 4974TIP3   OH236336   1.017   5.046  16.062 -0.2117  0.1621  0.0103
 4974TIP3    H136337   0.931   5.066  16.100 -0.5014 -2.8699  1.1886
 4974TIP3    H236338   1.080   5.073  16.129 -0.4203 -0.1605  0.3397
 4975TIP3   OH236339   3.606   5.602  12.596 -0.1546  0.2548  0.4986
 4975TIP3    H136340   3.543   5.660  12.639  1.7656  2.5779  0.4202
 4975TIP3    H236341   3.585   5.609  12.502 -0.3829  0.2350  0.5477
 4976TIP3   OH236342   6.360   6.254   4.760 -0.3625  0.2372  0.1111
 4976TIP3    H136343   6.400   6.337   4.734  0.8430 -0.4338 -0.2134
 4976TIP3    H236344   6.372   6.251   4.855 -0.6274  0.5234  0.1604
 4977TIP3   OH236345   4.840   1.527  13.177  0.4364  0.3519  0.5852
 4977TIP3    H136346   4.859   1.620  13.163  0.6708  0.4072  1.2528
 4977TIP3    H236347   4.748   1.518  13.152  0.6984  0.5377 -0.5033
 4978TIP3   OH236348   4.370   3.350   1.508  0.1944 -0.7533 -0.1975
 4978TIP3    H136349   4.345   3.426   1.562  0.3164  1.1139 -2.6275
 4978TIP3    H236350   4.354   3.275   1.565 -0.0242  1.0593  2.3056
 4979TIP3   OH236351   1.914   6.502  15.197 -0.4832  0.3107  0.0682
 4979TIP3    H136352   1.872   6.566  15.254  0.8490  0.8772  0.4627
 4979TIP3    H236353   1.845   6.474  15.137 -0.7861  3.3963 -1.2364
 4980TIP3   OH236354   0.169   5.093  11.561 -0.5784  0.2505 -0.2491
 4980TIP3    H136355   0.217   5.162  11.516  0.6942 -0.2016  0.3629
 4980TIP3    H236356   0.149   5.130  11.647  2.5637 -0.9581  1.1992
 4981TIP3   OH236357   5.285   0.277   0.098  0.4860  0.0944 -0.0422
 4981TIP3    H136358   5.282   0.181   0.092  1.7686  0.1123 -1.7530
 4981TIP3    H236359   5.299   0.294   0.191  0.9080 -1.4292  0.2033
 4982TIP3   OH236360   2.475   3.938  14.405 -0.5561  0.1678 -0.2100
 4982TIP3    H136361   2.520   3.987  14.474 -0.9332 -0.1395  0.2635
 4982TIP3    H236362   2.522   3.960  14.325 -2.0127  2.9760 -0.3897
 4983TIP3   OH236363   1.099   1.440   2.726  0.3191 -0.0758  0.2769
 4983TIP3    H136364   1.176   1.385   2.709 -1.1335 -1.6233 -1.9976
 4983TIP3    H236365   1.105   1.510   2.661  1.0827  1.3188  1.7998
 4984TIP3   OH236366   3.271   1.711  13.156 -0.0168  0.1568 -0.0407
 4984TIP3    H136367   3.243   1.620  13.165  0.9964 -0.3498 -1.5827
 4984TIP3    H236368   3.327   1.711  13.078 -0.0036  2.1057 -0.0737
 4985TIP3   OH236369   2.509   3.635  15.007  0.8434  0.4195 -0.0466
 4985TIP3    H136370   2.473   3.580  14.938  0.2879  0.5588  0.1259
 4985TIP3    H236371   2.539   3.714  14.962  0.9338  0.2977 -0.1957
 4986TIP3   OH236372   4.110   0.456   3.980 -0.0849  0.0172 -0.4985
 4986TIP3    H136373   4.135   0.410   3.900 -2.6818  1.8534 -2.5067
 4986TIP3    H236374   4.130   0.548   3.962  1.2409  0.2979  1.8744
 4987TIP3   OH236375   1.111   3.846  17.029 -0.0899  0.1917  0.6458
 4987TIP3    H136376   1.136   3.908  17.098 -1.6713  0.7801  0.7421
 4987TIP3    H236377   1.171   3.865  16.957  0.4647  0.7518  1.2345
 4988TIP3   OH236378   0.157   2.127  16.552  0.2680  0.3132  0.2782
 4988TIP3    H136379   0.206   2.199  16.513 -1.9913  2.2839  0.8355
 4988TIP3    H236380   0.114   2.084  16.478 -0.8965  1.5772  0.1910
 4989TIP3   OH236381   1.228   2.066   4.777  0.0817  0.0843  0.2951
 4989TIP3    H136382   1.136   2.077   4.753  0.2911  0.7918 -0.2124
 4989TIP3    H236383   1.274   2.066   4.693  0.3467 -2.4752  0.3729
 4990TIP3   OH236384   3.867   3.610  10.623  0.1584  0.1973 -0.0857
 4990TIP3    H136385   3.923   3.675  10.666 -3.3068  2.8466  0.9480
 4990TIP3    H236386   3.844   3.548  10.693 -0.3881  0.7835  0.2720
 4991TIP3   OH236387   3.562   0.984  13.542  0.3827  0.7604  0.0334
 4991TIP3    H136388   3.603   0.961  13.626 -1.1504  1.1691  0.9273
 4991TIP3    H236389   3.544   0.900  13.500 -0.1671  0.4881  0.7854
 4992TIP3   OH236390   1.793   6.583   0.862  0.1022  0.5781  0.3548
 4992TIP3    H136391   1.764   6.563   0.773 -1.2078 -0.1385  0.9165
 4992TIP3    H236392   1.712   6.589   0.913  0.8563  0.5201  1.6016
 4993TIP3   OH236393   2.200   5.134   5.736 -0.5288 -0.1873 -0.5651
 4993TIP3    H136394   2.271   5.198   5.736 -0.3793 -0.2885 -2.7584
 4993TIP3    H236395   2.123   5.184   5.765  0.1298  0.2728  0.4373
 4994TIP3   OH236396   5.651   4.663   2.922 -0.3860  0.3539 -0.3260
 4994TIP3    H136397   5.575   4.686   2.976  0.2834  1.3519  0.2050
 4994TIP3    H236398   5.697   4.597   2.974 -0.3116  0.5409 -0.1524
 4995TIP3   OH236399   1.535   6.293   0.735 -0.4354 -0.0872 -0.2435
 4995TIP3    H136400   1.518   6.276   0.643  3.0906  1.6116 -1.3924
 4995TIP3    H236401   1.495   6.379   0.751 -0.1135  0.1111 -0.5030
 4996TIP3   OH236402   6.205   5.041   3.349  0.6257  0.5727 -0.1871
 4996TIP3    H136403   6.178   5.080   3.266 -0.4687  1.9690  0.7740
 4996TIP3    H236404   6.214   4.948   3.330 -1.6043  0.5416 -1.3924
 4997TIP3   OH236405   0.380   3.928  14.187  0.5497 -0.5440  0.3435
 4997TIP3    H136406   0.458   3.885  14.151  1.0327  1.3612 -1.0579
 4997TIP3    H236407   0.306   3.882  14.147  0.8853 -2.3418  1.6500
 4998TIP3   OH236408   3.767   3.770  13.555 -0.3557 -0.2360  0.3639
 4998TIP3    H136409   3.715   3.695  13.528  3.7327 -2.7062 -1.6039
 4998TIP3    H236410   3.802   3.746  13.641  0.1840 -0.1410  0.1741
 4999TIP3   OH236411   2.318   1.373  13.050  0.2981 -0.3192 -0.4093
 4999TIP3    H136412   2.323   1.464  13.079 -0.0217  0.0460 -1.4580
 4999TIP3    H236413   2.245   1.372  12.988  0.9277 -1.0840 -1.1546
 5000TIP3   OH236414   3.158   5.424  16.114 -0.2014 -0.5465  0.3825
 5000TIP3    H136415   3.210   5.361  16.162  0.5197  1.4938  2.4962
 5000TIP3    H236416   3.222   5.484  16.075 -0.8652  0.6565  1.0687
 5001TIP3   OH236417   4.854   6.313  13.409  0.3520 -0.0681 -0.0412
 5001TIP3    H136418   4.927   6.373  13.427  1.4696 -1.5041  0.3542
 5001TIP3    H236419   4.886   6.256  13.339 -1.4168  0.9765 -1.8249
 5002TIP3   OH236420   1.991   2.297  15.838  0.6099 -0.1813 -0.0921
 5002TIP3    H136421   1.925   2.228  15.836 -2.3131  2.3777 -1.4921
 5002TIP3    H236422   2.068   2.259  15.795 -0.9347 -2.4755 -1.0082
 5003TIP3   OH236423   4.282   1.906   4.003 -0.2572 -0.7849 -0.0698
 5003TIP3    H136424   4.334   1.974   4.046 -1.1563 -0.9589  1.3559
 5003TIP3    H236425   4.217   1.880   4.068 -1.4053 -1.3905 -1.3854
 5004TIP3   OH236426   5.074   6.443  13.667  0.3795 -0.8720  0.6697
 5004TIP3    H136427   5.042   6.522  13.711 -0.7254 -1.3992  0.8429
 5004TIP3    H236428   5.090   6.470  13.577 -1.5407 -0.8083  0.3129
 5005TIP3   OH236429   2.707   4.297  13.907  0.0536 -0.5643 -0.3929
 5005TIP3    H136430   2.658   4.310  13.826  0.9077 -0.4385 -0.8907
 5005TIP3    H236431   2.684   4.372  13.961  0.1047 -0.2334 -0.8291
 5006TIP3   OH236432   1.166   6.549  15.215  0.4791 -0.0316  0.0300
 5006TIP3    H136433   1.201   6.481  15.273  1.1801 -0.0250 -0.3741
 5006TIP3    H236434   1.093   6.587  15.264 -0.6735 -1.8192 -0.1676
 5007TIP3   OH236435   1.669   1.897   5.709 -0.8571 -0.2022 -0.3026
 5007TIP3    H136436   1.657   1.916   5.802 -2.7145 -0.1843 -0.5227
 5007TIP3    H236437   1.728   1.821   5.707  0.2371  0.5777  0.8208
 5008TIP3   OH236438   1.791   6.735   5.818  0.0025  0.4847  0.8669
 5008TIP3    H136439   1.747   6.734   5.733  0.7609  0.6874  0.4680
 5008TIP3    H236440   1.800   6.643   5.842  0.8665  0.3690  0.1540
 5009TIP3   OH236441   6.062   4.195   4.408  0.0740  0.2852  0.1957
 5009TIP3    H136442   6.124   4.168   4.476 -0.1628  0.4857  0.4945
 5009TIP3    H236443   6.114   4.197   4.328  0.6090  1.0493  0.5458
 5010TIP3   OH236444   3.289   4.831   3.079 -0.0395  0.3042  0.2888
 5010TIP3    H136445   3.193   4.828   3.070  0.0064  0.9704 -0.5455
 5010TIP3    H236446   3.306   4.787   3.162 -0.8205 -2.7654 -1.0475
 5011TIP3   OH236447   6.414   3.903  14.164  0.0187 -0.0456  0.0125
 5011TIP3    H136448   6.324   3.870  14.169 -0.3620  0.8606 -0.6476
 5011TIP3    H236449   6.422   3.962  14.239 -0.1840  0.4425 -0.3448
 5012TIP3   OH236450   5.441   4.799   5.771 -0.1262  0.0516  0.2989
 5012TIP3    H136451   5.451   4.704   5.764 -0.1156 -0.0227  1.2806
 5012TIP3    H236452   5.357   4.810   5.816 -0.7028  0.5420 -0.8271
 5013TIP3   OH236453   3.487   2.578   0.524 -0.2441 -0.7229  0.1123
 5013TIP3    H136454   3.567   2.618   0.559  0.2438 -0.9039 -0.7747
 5013TIP3    H236455   3.452   2.527   0.597 -1.2689  1.8082  1.5503
 5014TIP3   OH236456   0.071   0.721  15.084 -0.0307 -0.0476 -0.0541
 5014TIP3    H136457   0.044   0.651  15.143 -1.0174  2.0770  2.2272
 5014TIP3    H236458   0.004   0.789  15.095  1.0229  1.4092 -1.8954
 5015TIP3   OH236459   2.875   2.816   4.039  0.2766  0.3420 -0.1978
 5015TIP3    H136460   2.814   2.746   4.064  1.2810 -0.4737  0.0335
 5015TIP3    H236461   2.957   2.771   4.020  0.0663  1.0370 -3.4981
 5016TIP3   OH236462   1.066   3.875  11.256  0.1261  0.1693  0.0039
 5016TIP3    H136463   1.089   3.782  11.263 -0.1678  0.2088  1.7560
 5016TIP3    H236464   1.150   3.921  11.262  0.1001  0.0871  1.1988
 5017TIP3   OH236465   4.290   3.929   4.332  0.3425 -0.0229 -0.1389
 5017TIP3    H136466   4.242   3.970   4.259 -0.1360 -0.2065  0.0652
 5017TIP3    H236467   4.377   3.967   4.328  0.1266  0.4501 -0.4158
 5018TIP3   OH236468   0.642   0.598  14.483  0.4905 -0.8874 -0.0770
 5018TIP3    H136469   0.664   0.688  14.458 -0.1764 -1.0213 -1.2712
 5018TIP3    H236470   0.724   0.550  14.475  1.0734 -0.2216  1.5228
 5019TIP3   OH236471   6.474   4.499  13.578 -0.2144  0.0126  0.2809
 5019TIP3    H136472   6.381   4.498  13.600 -0.0701 -0.6255  0.8803
 5019TIP3    H236473   6.476   4.493  13.482 -0.7906 -0.0252  0.2702
 5020TIP3   OH236474   5.588   0.274   4.213 -0.0363 -0.1397 -0.2231
 5020TIP3    H136475   5.571   0.250   4.122 -1.2709 -0.7150  0.1430
 5020TIP3    H236476   5.608   0.191   4.256  1.4740  0.2366 -0.1360
 5021TIP3   OH236477   4.263   1.143  11.178  0.1230 -0.0450 -0.0026
 5021TIP3    H136478   4.255   1.233  11.146  0.9534  0.0851  0.1291
 5021TIP3    H236479   4.226   1.090  11.108  0.2482  0.3577 -0.3836
 5022TIP3   OH236480   2.076   6.734  15.830  0.0658 -0.5433  0.0061
 5022TIP3    H136481   2.085   6.813  15.778  1.2167  0.0561  1.0846
 5022TIP3    H236482   2.146   6.676  15.799  1.8999  0.4899  2.0028
 5023TIP3   OH236483   3.199   2.781  16.768 -0.1071  0.1292  0.3115
 5023TIP3    H136484   3.183   2.827  16.851 -0.3790  0.0544  0.3023
 5023TIP3    H236485   3.155   2.696  16.780 -1.5151  0.7106 -0.4966
 5024TIP3   OH236486   3.909   2.937  11.858 -0.2270  0.4219 -0.0461
 5024TIP3    H136487   3.836   2.940  11.920 -0.5336 -0.1450 -0.3683
 5024TIP3    H236488   3.913   2.845  11.830  0.2401  0.5661 -0.4696
 5025TIP3   OH236489   6.496   2.796   1.059 -0.1367  0.1589 -0.1836
 5025TIP3    H136490   6.447   2.721   1.094 -0.6521  0.6611  0.2033
 5025TIP3    H236491   6.495   2.860   1.131  1.4349  0.0384 -0.0261
 5026TIP3   OH236492   3.338   2.408  12.015  0.0237 -0.1414 -0.4938
 5026TIP3    H136493   3.395   2.332  12.023  0.8449  0.0029 -3.5917
 5026TIP3    H236494   3.269   2.380  11.955 -0.5069  1.1266 -0.5119
 5027TIP3   OH236495   1.089   1.695   2.562 -0.1712 -0.5788 -0.2024
 5027TIP3    H136496   1.181   1.698   2.589 -0.0098  0.1012 -0.7875
 5027TIP3    H236497   1.052   1.777   2.594 -0.6065 -0.9052  0.1341
 5028TIP3   OH236498   6.049   1.575  14.119  0.3273  0.5419  0.6976
 5028TIP3    H136499   5.974   1.569  14.177  0.0275  3.2299  0.7002
 5028TIP3    H236500   6.013   1.604  14.036  1.1677  0.1490  0.1860
 5029TIP3   OH236501   0.131   3.816  16.482 -0.3785 -0.0337 -0.5281
 5029TIP3    H136502   0.221   3.836  16.457 -0.6258  1.9121 -0.0222
 5029TIP3    H236503   0.115   3.729  16.444  1.3272  0.0543 -1.5872
 5030TIP3   OH236504   0.714   1.440  14.408  0.2584 -0.3573 -0.4768
 5030TIP3    H136505   0.697   1.373  14.342  0.7783 -1.0721  0.0941
 5030TIP3    H236506   0.746   1.515  14.358 -1.1646 -0.2031 -1.2073
 5031TIP3   OH236507   0.811   5.928   4.337 -0.4550 -0.0207  0.0910
 5031TIP3    H136508   0.806   5.855   4.276 -0.8313 -2.1997  2.5927
 5031TIP3    H236509   0.903   5.933   4.362 -0.4360  0.3671 -0.0451
 5032TIP3   OH236510   2.252   4.544   4.403 -0.0804  0.3472 -0.0558
 5032TIP3    H136511   2.197   4.622   4.394 -1.7081 -0.6555  0.9163
 5032TIP3    H236512   2.193   4.470   4.387  0.9432 -0.7695  1.1050
 5033TIP3   OH236513   3.283   6.606   2.460 -0.4378 -0.5295 -0.1685
 5033TIP3    H136514   3.253   6.581   2.372  0.2313 -2.1269  0.0203
 5033TIP3    H236515   3.378   6.592   2.458 -0.2980  0.2767  0.5408
 5034TIP3   OH236516   6.385   6.364  13.269  0.6463  0.3057 -0.1585
 5034TIP3    H136517   6.334   6.421  13.211 -0.9659 -0.0401  0.8334
 5034TIP3    H236518   6.346   6.277  13.257  0.0314  0.2890  1.6388
 5035TIP3   OH236519   4.015   2.714   1.659  0.3435 -0.6073 -0.5138
 5035TIP3    H136520   3.947   2.658   1.622  2.1962 -1.6505 -2.5500
 5035TIP3    H236521   4.048   2.666   1.735 -0.7521 -0.3486  0.1505
 5036TIP3   OH236522   2.338   0.456  12.574 -0.2034 -0.6564 -0.4986
 5036TIP3    H136523   2.309   0.538  12.615 -0.8895 -1.3525  0.4616
 5036TIP3    H236524   2.257   0.415  12.543  0.0605 -1.2653 -0.3950
 5037TIP3   OH236525   3.718   4.551   5.508 -0.5122 -0.2431 -0.0420
 5037TIP3    H136526   3.764   4.532   5.590 -0.7777  1.5772  0.5701
 5037TIP3    H236527   3.787   4.557   5.442 -0.0215  0.6823  0.5300
 5038TIP3   OH236528   1.236   1.154   1.847  0.0521 -0.4467  0.1273
 5038TIP3    H136529   1.245   1.081   1.908  1.7918 -0.2509  0.1692
 5038TIP3    H236530   1.192   1.116   1.770  1.4740 -1.7394 -0.1091
 5039TIP3   OH236531   1.084   2.928  13.698 -0.1640 -0.3326  0.3915
 5039TIP3    H136532   1.138   2.850  13.704 -0.0263 -0.5930 -2.5304
 5039TIP3    H236533   0.995   2.898  13.720 -0.6223 -2.0988 -3.0964
 5040TIP3   OH236534   6.082   2.548   4.023 -0.3750 -0.4629  0.1630
 5040TIP3    H136535   6.120   2.497   4.094  1.2946 -0.9465 -1.0149
 5040TIP3    H236536   6.060   2.632   4.062 -2.1206 -1.6416  1.8821
 5041TIP3   OH236537   4.847   5.292   1.087 -0.2407  0.2459 -0.7373
 5041TIP3    H136538   4.888   5.205   1.087 -1.3468 -0.3500  1.1822
 5041TIP3    H236539   4.904   5.345   1.143 -1.3841 -0.2906  1.0439
 5042TIP3   OH236540   0.886   5.928   3.107 -0.0817 -0.2810  0.0404
 5042TIP3    H136541   0.848   5.989   3.044  0.6052 -0.0848 -0.2010
 5042TIP3    H236542   0.812   5.897   3.159 -0.3941  1.1368  0.4970
 5043TIP3   OH236543   0.510   1.084  13.461  0.6356 -0.3620 -0.8475
 5043TIP3    H136544   0.462   1.042  13.532  2.0995 -1.5114 -0.5158
 5043TIP3    H236545   0.600   1.054  13.470  1.8229  2.8785 -0.5597
 5044TIP3   OH236546   6.772   3.637  13.333 -0.1506  0.3362 -0.4220
 5044TIP3    H136547   6.820   3.554  13.340  0.9724  1.0215  0.4785
 5044TIP3    H236548   6.698   3.627  13.392 -0.9392 -0.5963 -1.5294
 5045TIP3   OH236549   4.294   3.275  15.962  0.0772  0.3206 -0.3159
 5045TIP3    H136550   4.210   3.240  15.989  1.1934  0.0093  3.3565
 5045TIP3    H236551   4.355   3.202  15.972  1.0257  0.8698 -1.7366
 5046TIP3   OH236552   1.686   5.853  15.348 -0.1394  0.1817  0.2890
 5046TIP3    H136553   1.778   5.875  15.333 -0.0947  0.0279  0.3320
 5046TIP3    H236554   1.682   5.758  15.338 -0.3700  0.2290 -0.1351
 5047TIP3   OH236555   5.170   5.319  12.171 -0.5554 -0.4767 -0.0464
 5047TIP3    H136556   5.159   5.413  12.186  0.5875 -0.3305 -0.0445
 5047TIP3    H236557   5.217   5.313  12.088 -1.7694 -1.1015 -0.7063
 5048TIP3   OH236558   5.819   4.908  12.296  0.1524 -0.7021  0.0326
 5048TIP3    H136559   5.748   4.844  12.284 -0.1370 -0.1209 -1.7028
 5048TIP3    H236560   5.867   4.906  12.213  0.1792  1.2382 -0.0562
 5049TIP3   OH236561   0.198   5.935   2.498  0.6493  0.1997 -0.2118
 5049TIP3    H136562   0.162   5.855   2.459  0.3351  0.0814  0.3013
 5049TIP3    H236563   0.228   5.907   2.585  0.4728  0.6563 -0.0028
 5050TIP3   OH236564   4.823   6.141   4.860 -0.4466 -0.2509  0.4997
 5050TIP3    H136565   4.731   6.114   4.854 -0.3566 -0.5211  0.3001
 5050TIP3    H236566   4.855   6.100   4.941 -0.4197 -0.4109  0.4088
 5051TIP3   OH236567   6.338   6.345   2.938 -0.4043  0.0787 -0.0669
 5051TIP3    H136568   6.375   6.431   2.919  0.5184 -0.1264  0.7495
 5051TIP3    H236569   6.245   6.353   2.914 -0.5920  1.6477  1.0055
 5052TIP3   OH236570   6.722   0.287   5.007 -0.2991 -0.5435  0.2593
 5052TIP3    H136571   6.652   0.257   5.065 -0.9339 -0.4235 -0.4239
 5052TIP3    H236572   6.707   0.240   4.925  0.4562 -0.5508  0.1222
 5053TIP3   OH236573   5.917   2.994   4.726 -0.7530  0.1274  0.1098
 5053TIP3    H136574   5.950   3.083   4.717 -1.1599  0.2997  0.3107
 5053TIP3    H236575   5.981   2.950   4.782  0.1090 -0.0600 -0.9644
 5054TIP3   OH236576   3.994   3.673  11.207  0.3456 -0.0582  0.2669
 5054TIP3    H136577   3.952   3.607  11.152  3.4881 -1.5684 -0.5805
 5054TIP3    H236578   3.923   3.732  11.231 -2.2587 -2.5211 -0.6873
 5055TIP3   OH236579   6.648   4.920   4.157 -0.4393 -0.0061  0.2249
 5055TIP3    H136580   6.694   4.837   4.165 -2.9839 -1.4516  1.1207
 5055TIP3    H236581   6.717   4.986   4.153  1.7111 -1.7843  3.6700
 5056TIP3   OH236582   5.102   6.138  12.060  0.4866  0.2449  0.2072
 5056TIP3    H136583   5.065   6.063  12.013  2.0411 -0.5096  0.1569
 5056TIP3    H236584   5.035   6.206  12.052  0.1573 -0.2752 -2.0209
 5057TIP3   OH236585   4.083   2.093  11.546  0.1137  0.0562  0.2562
 5057TIP3    H136586   4.095   2.135  11.461  0.6074 -1.1659 -0.2911
 5057TIP3    H236587   4.162   2.116  11.595  0.6508 -0.6865 -0.2429
 5058TIP3   OH236588   4.081   4.325  13.905  0.4495  0.1767  0.2981
 5058TIP3    H136589   4.063   4.404  13.854  0.5491  0.9122  1.3632
 5058TIP3    H236590   4.016   4.327  13.975  1.3519  0.0751  1.1587
 5059TIP3   OH236591   6.134   3.650  11.299  0.9414 -0.0935  0.3701
 5059TIP3    H136592   6.053   3.601  11.291  0.3537  0.8318  0.5318
 5059TIP3    H236593   6.180   3.609  11.373  0.2147 -0.0595  0.8477
 5060TIP3   OH236594   4.657   5.439   3.000 -0.3394  0.1954  0.2467
 5060TIP3    H136595   4.692   5.463   2.914 -1.0169  0.4219  0.0294
 5060TIP3    H236596   4.731   5.448   3.060 -0.6828  3.6149  0.3341
 5061TIP3   OH236597   6.038   0.303  13.421  0.5711  0.2395  0.0730
 5061TIP3    H136598   6.090   0.313  13.501 -0.4002 -1.0081  0.8929
 5061TIP3    H236599   6.090   0.244  13.366  0.1958 -0.7496  0.7587
 5062TIP3   OH236600   4.495   2.638   3.969 -0.2352  0.4310 -0.2139
 5062TIP3    H136601   4.511   2.685   3.887  0.7271  0.6853  0.0999
 5062TIP3    H236602   4.487   2.546   3.944 -0.3093  0.5550 -0.6368
 5063TIP3   OH236603   5.378   4.545   2.638  0.3319 -0.3891  0.4505
 5063TIP3    H136604   5.416   4.500   2.563  1.5613  0.6683  0.4030
 5063TIP3    H236605   5.353   4.631   2.605 -0.5334 -0.4546  0.9007
 5064TIP3   OH236606   0.182   2.219   2.154  0.1580  0.1392  0.4626
 5064TIP3    H136607   0.134   2.248   2.077  0.5034 -0.9070 -0.1753
 5064TIP3    H236608   0.123   2.237   2.227 -1.5493 -1.7155 -0.3611
 5065TIP3   OH236609   3.041   4.563   6.268  0.4419  0.3432  0.2267
 5065TIP3    H136610   3.000   4.582   6.352  0.0140 -0.1376  0.1295
 5065TIP3    H236611   2.990   4.491   6.232  0.5849  0.5825 -0.4709
 5066TIP3   OH236612   2.407   1.601   2.728  0.4898  0.6255  0.3168
 5066TIP3    H136613   2.357   1.634   2.653 -0.9679 -1.8783  0.0820
 5066TIP3    H236614   2.447   1.520   2.697  0.3950 -0.1298  2.0392
 5067TIP3   OH236615   2.268   1.065  15.279  0.3193 -0.1829  0.8927
 5067TIP3    H136616   2.339   1.040  15.220 -0.9082  1.4809 -1.4630
 5067TIP3    H236617   2.244   0.984  15.323  1.7104 -1.3961 -0.4490
 5068TIP3   OH236618   0.236   4.957   3.533  0.0743 -0.0933 -0.0621
 5068TIP3    H136619   0.218   5.044   3.570 -0.3642 -0.7409  1.2956
 5068TIP3    H236620   0.155   4.908   3.546  0.1546 -0.5803 -1.2579
 5069TIP3   OH236621   1.737   5.258  15.646  0.1171 -0.1297  0.0401
 5069TIP3    H136622   1.734   5.183  15.585  0.9188  0.7973 -1.1889
 5069TIP3    H236623   1.649   5.261  15.684 -1.3750  0.8957 -3.1487
 5070TIP3   OH236624   4.459   1.976  15.590  0.1589  0.2711 -0.7524
 5070TIP3    H136625   4.391   1.999  15.526 -2.5026 -1.1858  1.3156
 5070TIP3    H236626   4.411   1.963  15.672  3.1950  0.5556  1.2151
 5071TIP3   OH236627   3.151   1.225  10.708  0.1290 -0.1167  0.2547
 5071TIP3    H136628   3.064   1.211  10.670  0.6011 -1.3415 -0.4431
 5071TIP3    H236629   3.157   1.161  10.778 -0.7957  2.2332  2.6524
 5072TIP3   OH236630   1.385   3.658  13.073  0.3195 -0.2161  0.0732
 5072TIP3    H136631   1.366   3.603  12.998  0.5510  0.5329 -0.5454
 5072TIP3    H236632   1.351   3.745  13.050  3.0385  0.8203 -0.4858
 5073TIP3   OH236633   1.078   5.663  16.375 -0.2042 -0.2017 -0.4370
 5073TIP3    H136634   1.070   5.709  16.458  1.4532  1.5933 -1.2052
 5073TIP3    H236635   1.023   5.714  16.315 -1.5508 -1.5993 -0.4538
 5074TIP3   OH236636   0.694   3.611   0.734  0.0953  0.0910  0.2220
 5074TIP3    H136637   0.764   3.637   0.674 -1.2084  1.3949 -0.7956
 5074TIP3    H236638   0.631   3.564   0.680  0.4419 -1.6883  1.2672
 5075TIP3   OH236639   1.814   3.128  14.432  0.6071 -0.3755 -0.6439
 5075TIP3    H136640   1.823   3.033  14.441  0.3251 -0.4790 -1.3396
 5075TIP3    H236641   1.883   3.165  14.486  0.2727 -0.9605  0.1980
 5076TIP3   OH236642   4.739   4.619  14.105  0.2169 -0.0060  0.3967
 5076TIP3    H136643   4.768   4.679  14.036 -0.2543 -0.5564 -0.2982
 5076TIP3    H236644   4.722   4.675  14.180 -0.5034  0.7857 -0.3340
 5077TIP3   OH236645   5.122   6.285   5.338  0.2437  0.5786 -0.3950
 5077TIP3    H136646   5.208   6.327   5.347 -0.0987  1.3955 -0.8856
 5077TIP3    H236647   5.066   6.352   5.300 -0.9514  0.4549  1.0653
 5078TIP3   OH236648   6.526   2.062  14.336 -0.5820 -0.1293 -0.6176
 5078TIP3    H136649   6.621   2.050  14.327 -0.3902  1.0207 -0.2949
 5078TIP3    H236650   6.490   1.974  14.329  0.5648 -0.6570 -0.1797
 5079TIP3   OH236651   1.823   3.908  13.549 -0.5754 -0.3181 -0.2551
 5079TIP3    H136652   1.845   3.994  13.584  1.1538 -0.3436 -1.1718
 5079TIP3    H236653   1.732   3.917  13.520 -0.4017  1.2397 -0.4234
 5080TIP3   OH236654   1.335   1.511   2.495  0.1389 -0.2703  0.4482
 5080TIP3    H136655   1.345   1.589   2.440  1.2370 -0.2327  0.6937
 5080TIP3    H236656   1.396   1.524   2.567  1.0905 -1.8166 -0.0322
 5081TIP3   OH236657   1.221   1.045   1.226 -0.0642 -0.2130 -0.2708
 5081TIP3    H136658   1.143   1.054   1.281 -0.5039 -1.5866 -0.6196
 5081TIP3    H236659   1.206   0.964   1.177  0.9191  0.2826 -1.4395
 5082TIP3   OH236660   1.208   4.934  15.330  0.5004 -0.2582  0.3085
 5082TIP3    H136661   1.221   4.913  15.422 -0.3564 -0.3156  0.4230
 5082TIP3    H236662   1.116   4.911  15.312  0.3632  0.6923 -0.2973
 5083TIP3   OH236663   5.133   1.535   5.197 -0.0186 -1.1935 -0.0906
 5083TIP3    H136664   5.199   1.535   5.127  0.1198 -0.3533  0.0221
 5083TIP3    H236665   5.170   1.479   5.265  1.7507  1.1462  1.0027
 5084TIP3   OH236666   4.113   2.338  14.631  0.6535  0.2833 -0.0690
 5084TIP3    H136667   4.097   2.243  14.630  0.0785  0.3744 -1.2082
 5084TIP3    H236668   4.026   2.377  14.633  0.9023  0.8192  2.0775
 5085TIP3   OH236669   6.014   2.692   5.237  0.0828  0.0130 -0.3719
 5085TIP3    H136670   5.944   2.751   5.210  0.7911  0.6024 -0.9820
 5085TIP3    H236671   5.976   2.605   5.231 -0.9438  0.3872  0.4199
 5086TIP3   OH236672   2.257   1.610   1.479  0.1205 -0.1878  0.3470
 5086TIP3    H136673   2.226   1.699   1.500  1.2869  0.3383 -0.0886
 5086TIP3    H236674   2.177   1.558   1.474 -0.7457  1.1938 -1.0119
 5087TIP3   OH236675   6.463   0.954   0.924  0.2087  0.1601  0.1186
 5087TIP3    H136676   6.521   0.973   0.998 -0.8539  0.5347  0.8795
 5087TIP3    H236677   6.472   0.859   0.910 -0.1856 -0.0598  1.2648
 5088TIP3   OH236678   4.355   0.337  16.586 -0.1819  0.2434 -0.0239
 5088TIP3    H136679   4.332   0.397  16.514 -0.2778 -1.1263 -1.1868
 5088TIP3    H236680   4.416   0.387  16.640  1.1656  0.8123 -1.9508
 5089TIP3   OH236681   0.030   4.774   5.967 -0.0676 -0.3809  0.4244
 5089TIP3    H136682  -0.046   4.780   5.909 -0.6517 -0.1563  1.1941
 5089TIP3    H236683   0.001   4.717   6.039 -0.0968  1.0173  1.5755
 5090TIP3   OH236684   4.439   0.258   1.910 -0.3495 -0.2496 -0.2849
 5090TIP3    H136685   4.368   0.257   1.975 -0.1719  1.4273 -0.0124
 5090TIP3    H236686   4.397   0.283   1.828 -0.0979  0.7745 -0.1179
 5091TIP3   OH236687   6.768   5.619   6.097  0.3512  0.4675  0.2275
 5091TIP3    H136688   6.732   5.531   6.089  0.1376  0.5970 -0.2725
 5091TIP3    H236689   6.771   5.636   6.192 -0.7828  0.4026  0.2831
 5092TIP3   OH236690   1.418   2.132  13.592  0.1624  0.3760 -0.1212
 5092TIP3    H136691   1.485   2.088  13.539  0.8348  1.4892 -0.2133
 5092TIP3    H236692   1.443   2.224  13.591 -1.3590  0.8119 -0.1276
 5093TIP3   OH236693   4.704   4.861   2.483  0.1878  0.3485  0.3455
 5093TIP3    H136694   4.793   4.831   2.464  0.5535  1.3131  0.4752
 5093TIP3    H236695   4.692   4.937   2.426 -1.0486 -0.5641 -0.6439
 5094TIP3   OH236696   4.651   0.515  11.924  0.0248  0.3557  0.3591
 5094TIP3    H136697   4.706   0.594  11.924  1.4075 -0.5776  0.2323
 5094TIP3    H236698   4.646   0.490  11.832 -0.2437  0.1795  0.4230
 5095TIP3   OH236699   6.513   1.694  12.759 -0.3539  0.1118  0.9695
 5095TIP3    H136700   6.520   1.765  12.823  2.1091 -0.3510  1.3345
 5095TIP3    H236701   6.519   1.614  12.811 -0.4877 -0.3067  0.3546
 5096TIP3   OH236702   6.009   0.624  13.657 -0.2672  0.3248 -0.3758
 5096TIP3    H136703   6.089   0.621  13.604 -1.0639 -1.1902 -1.5683
 5096TIP3    H236704   5.986   0.533  13.672 -2.2405  0.6990 -0.8104
 5097TIP3   OH236705   4.926   0.302  15.573 -0.0394  0.2576 -0.0794
 5097TIP3    H136706   4.868   0.262  15.508 -1.3010  1.8234  0.0259
 5097TIP3    H236707   4.871   0.365  15.619  1.9078  2.3203 -0.4142
 5098TIP3   OH236708   6.527   0.058   0.684 -0.0160  0.0538 -0.0012
 5098TIP3    H136709   6.496  -0.021   0.639  1.4786 -1.0781  0.8712
 5098TIP3    H236710   6.448   0.100   0.716 -0.8057 -1.6882  0.4723
 5099TIP3   OH236711   5.727   6.355  11.668 -0.2724 -0.0819  0.1216
 5099TIP3    H136712   5.721   6.431  11.727  0.4024 -1.8999  2.7141
 5099TIP3    H236713   5.792   6.381  11.602 -0.1275  1.6146  0.8772
 5100TIP3   OH236714   4.490   2.703  14.061  0.1715  0.6052  0.2206
 5100TIP3    H136715   4.449   2.619  14.081  0.8622  0.8180  2.8644
 5100TIP3    H236716   4.418   2.766  14.064 -0.0815  0.3454 -0.1658
 5101TIP3   OH236717   5.429   4.952  15.177  0.7184 -0.4111  0.8039
 5101TIP3    H136718   5.381   4.879  15.138  0.7935 -0.6906  1.2304
 5101TIP3    H236719   5.401   5.028  15.127  0.9447 -0.7942  0.0925
 5102TIP3   OH236720   3.610   1.669  13.272  0.0448  0.0343  0.3364
 5102TIP3    H136721   3.629   1.762  13.282  0.2728  0.1584 -0.9837
 5102TIP3    H236722   3.628   1.651  13.179 -3.1818 -0.5833 -0.2917
 5103TIP3   OH236723   0.786   0.226   3.666  0.5168 -0.3538  0.2404
 5103TIP3    H136724   0.761   0.318   3.657  1.4976 -0.0168  0.7755
 5103TIP3    H236725   0.723   0.191   3.730 -0.7995 -0.4635 -1.0773
 5104TIP3   OH236726   5.934   2.915   2.744  0.1382  0.0988 -0.7627
 5104TIP3    H136727   5.862   2.864   2.706  0.8234 -1.2763 -0.2897
 5104TIP3    H236728   5.917   3.005   2.716 -1.9667 -0.1152 -0.3763
 5105TIP3   OH236729   5.405   3.588   1.074 -0.3864  0.3250 -0.8118
 5105TIP3    H136730   5.340   3.540   1.127 -0.0077  0.1973 -0.4557
 5105TIP3    H236731   5.490   3.560   1.109 -0.1558  1.4130 -0.4503
 5106TIP3   OH236732   2.561   1.043  11.300 -0.2561 -0.1960  0.0231
 5106TIP3    H136733   2.475   1.085  11.294 -0.1579 -0.1374 -1.1782
 5106TIP3    H236734   2.548   0.956  11.263  0.4646  0.2443 -1.3070
 5107TIP3   OH236735   5.582   3.253   5.046 -0.0209  0.1937 -0.4589
 5107TIP3    H136736   5.666   3.207   5.047  0.1052  0.4076 -0.8225
 5107TIP3    H236737   5.605   3.345   5.036 -0.3223  0.0886 -2.7565
 5108TIP3   OH236738   3.374   5.305  17.143 -0.1620  0.5916  0.1814
 5108TIP3    H136739   3.431   5.341  17.074 -1.6813 -0.1629 -1.5676
 5108TIP3    H236740   3.319   5.380  17.169 -0.5526  0.5581 -0.5053
 5109TIP3   OH236741   6.501   1.814   3.551 -0.1155  0.2526  0.0037
 5109TIP3    H136742   6.590   1.777   3.550  1.4682  3.6513  1.4024
 5109TIP3    H236743   6.469   1.801   3.461  0.9490 -2.7290 -0.0562
 5110TIP3   OH236744   2.243   4.475  16.099 -0.2253  0.1673  0.5685
 5110TIP3    H136745   2.269   4.543  16.162 -0.1555 -0.3192  1.0733
 5110TIP3    H236746   2.303   4.487  16.026 -0.9805  1.4116  0.1244
 5111TIP3   OH236747   3.165   3.106   2.477  0.0299 -0.0625  0.2517
 5111TIP3    H136748   3.253   3.092   2.511  0.0263  0.4471  0.4845
 5111TIP3    H236749   3.167   3.072   2.388  0.2142 -0.8671  0.5536
 5112TIP3   OH236750   3.377   1.950   2.581  0.1751 -0.1607 -0.5748
 5112TIP3    H136751   3.292   1.955   2.538  0.3276  0.5254 -0.8059
 5112TIP3    H236752   3.436   1.999   2.524  0.4127  0.6371  0.3241
 5113TIP3   OH236753   1.720   5.667   1.171 -0.3045 -0.6342  0.1806
 5113TIP3    H136754   1.726   5.592   1.229  1.0531 -1.6484 -1.2014
 5113TIP3    H236755   1.798   5.719   1.189  0.5488 -1.3640 -1.2097
 5114TIP3   OH236756   2.489   3.935   1.667 -0.4182  0.0097  0.0026
 5114TIP3    H136757   2.426   3.969   1.732 -0.2120  0.1901  0.1088
 5114TIP3    H236758   2.491   3.841   1.683  0.2832  0.1602  0.8398
 5115TIP3   OH236759   1.174   5.374   1.289  0.1732 -0.6849  0.1594
 5115TIP3    H136760   1.217   5.460   1.286  0.7743 -0.8442  2.2781
 5115TIP3    H236761   1.237   5.318   1.335 -0.9243 -1.8119  0.3340
 5116TIP3   OH236762   3.173   4.870   2.416  0.2169  0.0002  0.1873
 5116TIP3    H136763   3.185   4.870   2.321 -1.3401 -1.7526 -0.0574
 5116TIP3    H236764   3.229   4.799   2.448 -0.7902 -0.7477  0.3251
 5117TIP3   OH236765   5.522   1.540  15.770  0.5323 -0.4255 -0.9185
 5117TIP3    H136766   5.505   1.629  15.738 -0.8239 -1.1739 -2.4441
 5117TIP3    H236767   5.611   1.521  15.741  0.7326  0.3342 -0.8303
 5118TIP3   OH236768   3.003   2.673   5.932  0.2932 -0.6100 -0.2365
 5118TIP3    H136769   3.045   2.758   5.945 -1.4281  0.0348  1.8034
 5118TIP3    H236770   3.073   2.615   5.903  2.4692  0.5552  2.2638
 5119TIP3   OH236771   3.445   5.538   1.327 -0.1567 -0.4428  0.3144
 5119TIP3    H136772   3.401   5.610   1.281  0.6133 -0.6260 -0.7457
 5119TIP3    H236773   3.400   5.459   1.297  0.1619 -0.5383  0.0762
 5120TIP3   OH236774   0.754   0.331  12.529 -0.0150  0.2669  0.5758
 5120TIP3    H136775   0.794   0.284  12.602  0.6768 -0.0442  0.0071
 5120TIP3    H236776   0.730   0.416  12.566  2.8103  1.1806  0.5503
 5121TIP3   OH236777   1.505   1.517   4.145  0.2356  0.3397  0.0995
 5121TIP3    H136778   1.502   1.609   4.170  0.8275  0.3551  0.1324
 5121TIP3    H236779   1.490   1.516   4.051  2.4789  0.6803 -0.3106
 5122TIP3   OH236780   1.209   2.460   0.808  0.1509  0.0799  0.1065
 5122TIP3    H136781   1.117   2.458   0.782  0.3272  0.6221 -0.6048
 5122TIP3    H236782   1.246   2.532   0.757  1.3622 -1.2198 -0.9010
 5123TIP3   OH236783   1.573   6.080  11.656  0.2888 -0.1021  0.4837
 5123TIP3    H136784   1.485   6.067  11.623  0.5461 -1.8107  0.3979
 5123TIP3    H236785   1.623   6.112  11.581  0.2160 -1.2081 -0.0481
 5124TIP3   OH236786   1.384   2.895  15.024 -0.3507  0.1250 -0.6525
 5124TIP3    H136787   1.309   2.910  15.081 -1.3675  1.5270 -2.3184
 5124TIP3    H236788   1.456   2.942  15.067 -0.6981 -0.1579  0.2711
 5125TIP3   OH236789   4.072   4.149   6.442 -0.4837 -0.5666 -0.0585
 5125TIP3    H136790   4.045   4.240   6.453  0.3665 -0.3795  0.6554
 5125TIP3    H236791   4.147   4.153   6.382  0.9602 -0.5134  1.6524
 5126TIP3   OH236792   2.663   0.541   4.250 -0.6162 -0.2822  0.8813
 5126TIP3    H136793   2.623   0.563   4.165  1.5711 -0.5325 -0.2717
 5126TIP3    H236794   2.621   0.458   4.275 -0.9151 -0.4776 -0.2072
 5127TIP3   OH236795   3.296   1.692  17.064  0.6259  0.1056 -0.0084
 5127TIP3    H136796   3.320   1.776  17.024  0.2335 -0.0919 -0.6832
 5127TIP3    H236797   3.351   1.686  17.142  0.6241  1.0113  0.0734
 5128TIP3   OH236798   1.301   5.883   5.257  0.0882 -0.1734 -0.3028
 5128TIP3    H136799   1.256   5.928   5.329 -2.0369 -0.3090 -1.4556
 5128TIP3    H236800   1.232   5.831   5.215  2.0863 -3.3510 -0.0120
 5129TIP3   OH236801   2.709   5.803  14.692  0.1311 -0.3693  0.3215
 5129TIP3    H136802   2.761   5.753  14.628  0.0735 -1.6716  1.2535
 5129TIP3    H236803   2.772   5.830  14.758  0.5771  2.6988 -1.1834
 5130TIP3   OH236804   4.911   1.694  12.827 -0.1776 -0.1058 -0.3176
 5130TIP3    H136805   4.980   1.723  12.887 -0.0295  1.4535 -1.1780
 5130TIP3    H236806   4.917   1.599  12.827  0.8096 -0.0702  0.9709
 5131TIP3   OH236807   6.131   4.975   6.183  0.5408  0.7026 -0.3835
 5131TIP3    H136808   6.039   5.000   6.180 -0.0835 -1.5225 -1.6563
 5131TIP3    H236809   6.133   4.892   6.230  2.1690  1.5856  1.2443
 5132TIP3   OH236810   5.487   3.590   3.219 -0.5489 -0.0931 -0.1695
 5132TIP3    H136811   5.500   3.653   3.148  0.5208 -0.0824  0.0139
 5132TIP3    H236812   5.529   3.510   3.188  0.8167  0.1999  0.8256
 5133TIP3   OH236813   5.396   0.602  15.017  0.0484  0.0324  0.1052
 5133TIP3    H136814   5.480   0.628  14.979  0.8780 -2.8926 -0.3068
 5133TIP3    H236815   5.419   0.560  15.100 -1.0982  0.0272  0.4311
 5134TIP3   OH236816   1.293   3.547   4.277 -0.3004 -0.1124  0.7625
 5134TIP3    H136817   1.359   3.615   4.290 -2.1209  1.7353  0.8172
 5134TIP3    H236818   1.285   3.505   4.362 -0.4916  0.8922  1.2554
 5135TIP3   OH236819   5.192   6.411   2.926  0.0410  0.4117 -0.0157
 5135TIP3    H136820   5.165   6.333   2.975 -0.4104  0.6432  0.1101
 5135TIP3    H236821   5.122   6.474   2.941  0.3467  0.8042 -0.2119
 5136TIP3   OH236822   1.820   4.612   5.114 -0.2793  0.1883 -0.1272
 5136TIP3    H136823   1.850   4.582   5.028  0.8861 -1.1788  0.7019
 5136TIP3    H236824   1.796   4.704   5.101 -0.6754 -0.1520 -2.0184
 5137TIP3   OH236825   1.125   6.113   3.969  0.2232 -0.0260 -0.0590
 5137TIP3    H136826   1.070   6.168   4.025  1.4143  0.7393  0.3993
 5137TIP3    H236827   1.083   6.117   3.883 -1.0203 -0.3325  0.5186
 5138TIP3   OH236828   1.892   5.970   2.599  0.6610 -0.0177  0.6248
 5138TIP3    H136829   1.835   6.028   2.649  0.7865  1.0175 -0.4054
 5138TIP3    H236830   1.851   5.884   2.607  0.8620  0.0443  2.7592
 5139TIP3   OH236831   6.471   5.920  15.801  0.3586  0.0783  0.0091
 5139TIP3    H136832   6.496   5.981  15.731  1.8289 -1.6866 -1.1203
 5139TIP3    H236833   6.552   5.872  15.820 -0.3041 -0.2666  2.1458
 5140TIP3   OH236834   1.019   4.274   0.896 -0.4673  0.2029  0.4259
 5140TIP3    H136835   1.078   4.204   0.922 -0.7069  0.6579  2.3183
 5140TIP3    H236836   0.944   4.266   0.955 -0.1072  2.5819  1.3242
 5141TIP3   OH236837   0.563   1.131   5.668  0.0021 -0.0460  0.2213
 5141TIP3    H136838   0.526   1.206   5.622  1.6196  1.1495  0.7689
 5141TIP3    H236839   0.655   1.131   5.643  0.0847 -1.7181  0.4401
 5142TIP3   OH236840   6.140   2.245   1.718 -0.1259 -0.1680 -0.2627
 5142TIP3    H136841   6.087   2.290   1.652  0.1436  0.7084  0.1032
 5142TIP3    H236842   6.115   2.153   1.710 -0.8764  0.0766 -0.8588
 5143TIP3   OH236843   0.626   4.843  13.867 -0.6062  0.7159 -0.4205
 5143TIP3    H136844   0.536   4.827  13.839  0.3265 -1.2377 -2.7242
 5143TIP3    H236845   0.658   4.757  13.895  0.4380  1.4513  0.7366
 5144TIP3   OH236846   6.343   2.846  14.386 -0.4232 -0.2999  0.2183
 5144TIP3    H136847   6.318   2.939  14.390  0.3468 -0.1197  1.9254
 5144TIP3    H236848   6.429   2.847  14.344 -1.3354 -0.4989 -1.7609
 5145TIP3   OH236849   6.461   5.562  12.447 -0.2135  0.0112 -0.4590
 5145TIP3    H136850   6.472   5.622  12.374  1.5994 -1.6888 -1.6713
 5145TIP3    H236851   6.366   5.548  12.453 -0.5764  2.0456 -0.8753
 5146TIP3   OH236852   4.785   0.203   2.584  0.1423 -0.2234  0.0336
 5146TIP3    H136853   4.868   0.248   2.594 -0.5533  1.0393  0.3478
 5146TIP3    H236854   4.741   0.215   2.668  0.3874 -2.4921  0.5363
 5147TIP3   OH236855   0.689   2.433  15.551  0.1025 -0.3344  0.7172
 5147TIP3    H136856   0.641   2.473  15.479 -0.7427 -2.4749  0.0207
 5147TIP3    H236857   0.766   2.393  15.510  1.5701  1.4613  1.5600
 5148TIP3   OH236858   6.339   3.965   6.601 -0.1110 -0.7577 -0.4081
 5148TIP3    H136859   6.368   3.926   6.518 -0.2786 -0.4594 -0.6056
 5148TIP3    H236860   6.265   3.911   6.627  0.6214 -1.5457  0.1160
 5149TIP3   OH236861   3.217   0.278   1.808 -0.3848  0.4975  0.0211
 5149TIP3    H136862   3.182   0.190   1.793  1.9988 -0.1314 -2.6814
 5149TIP3    H236863   3.263   0.271   1.892  1.2464 -1.4373 -0.9459
 5150TIP3   OH236864   2.641   6.373   0.505 -0.2482  0.1873 -0.1122
 5150TIP3    H136865   2.619   6.367   0.598  1.8663 -0.0966  0.4223
 5150TIP3    H236866   2.652   6.282   0.477  0.6105  0.3277 -0.2429
 5151TIP3   OH236867   6.288   4.308  14.370 -0.3638 -0.3640  0.3155
 5151TIP3    H136868   6.293   4.368  14.444 -0.5506  0.4421 -0.3184
 5151TIP3    H236869   6.376   4.269  14.365 -0.1950 -0.0281  0.6270
 5152TIP3   OH236870   5.606   4.113   3.326 -0.0540 -0.0258 -0.1209
 5152TIP3    H136871   5.610   4.209   3.321  0.5574  0.0847  1.8378
 5152TIP3    H236872   5.673   4.083   3.264  1.0337  0.8634  0.6049
 5153TIP3   OH236873   1.209   4.864  17.039 -0.4655 -0.0124  0.1418
 5153TIP3    H136874   1.280   4.872  17.102 -0.0568 -1.5791 -0.0775
 5153TIP3    H236875   1.253   4.850  16.955 -0.9742  2.8657 -0.7216
 5154TIP3   OH236876   1.503   6.484   3.217 -0.2231 -0.4590 -0.3954
 5154TIP3    H136877   1.575   6.547   3.219 -1.5542  1.1287  1.2924
 5154TIP3    H236878   1.454   6.507   3.138 -1.7500  2.0505  1.1113
 5155TIP3   OH236879   4.592   3.905  13.209 -0.6195  0.3498 -0.0755
 5155TIP3    H136880   4.627   3.890  13.297 -0.9677 -3.0709 -0.3937
 5155TIP3    H236881   4.668   3.938  13.160 -0.4429  2.4238  1.4288
 5156TIP3   OH236882   1.926   4.941  16.633 -0.1622 -0.9760 -0.3396
 5156TIP3    H136883   1.896   4.934  16.723  0.2736 -3.0333 -0.3143
 5156TIP3    H236884   2.015   4.906  16.634  0.0374 -0.5470 -1.4880
 5157TIP3   OH236885   4.353   5.620  17.139 -0.0137  0.4339 -0.4431
 5157TIP3    H136886   4.395   5.551  17.087  1.6200 -0.2801  1.6479
 5157TIP3    H236887   4.370   5.700  17.090  1.6564 -0.1667 -0.9286
 5158TIP3   OH236888   0.319   2.712   1.415 -0.6525 -0.1601 -0.7810
 5158TIP3    H136889   0.239   2.665   1.391 -0.9869  0.9706 -1.9839
 5158TIP3    H236890   0.305   2.738   1.506 -2.2301  1.0929 -1.3397
 5159TIP3   OH236891   4.884   2.627   1.982 -0.0945 -0.1360 -0.0407
 5159TIP3    H136892   4.936   2.675   1.917  0.2669  0.6993  0.8356
 5159TIP3    H236893   4.912   2.664   2.066  0.2673 -1.9738  0.6860
 5160TIP3   OH236894   1.590   0.497  15.242 -0.5299 -0.5751 -0.0693
 5160TIP3    H136895   1.612   0.429  15.307 -1.2624 -0.3177  0.4607
 5160TIP3    H236896   1.669   0.504  15.188  0.4388 -0.1958  1.3107
 5161TIP3   OH236897   3.496   4.914  14.899  0.0855  0.1697  0.3768
 5161TIP3    H136898   3.439   4.959  14.837 -1.3884 -0.9580  0.8471
 5161TIP3    H236899   3.581   4.908  14.854 -0.7854 -0.1501 -1.3232
 5162TIP3   OH236900   5.462   0.929  12.797 -0.1145 -0.5552  0.6995
 5162TIP3    H136901   5.478   1.006  12.742 -1.8470  0.4421  1.4843
 5162TIP3    H236902   5.424   0.965  12.877 -1.1136 -2.2473  1.0390
 5163TIP3   OH236903   1.089   2.037   0.820 -0.0973  0.4556  0.3505
 5163TIP3    H136904   1.103   2.044   0.726 -0.3858  1.5396  0.3842
 5163TIP3    H236905   1.177   2.028   0.857  0.0417  0.4460  0.0166
 5164TIP3   OH236906   6.462   1.554  11.090  0.9992 -0.0778 -0.3912
 5164TIP3    H136907   6.515   1.479  11.065  0.8161  0.2228 -1.7899
 5164TIP3    H236908   6.493   1.625  11.032 -1.0489  0.0355 -1.4262
 5165TIP3   OH236909   5.965   6.455  14.095 -0.2777 -0.8929 -0.0582
 5165TIP3    H136910   6.052   6.490  14.076 -0.5091 -0.9798 -1.3328
 5165TIP3    H236911   5.981   6.365  14.124  0.1141 -0.5967  0.6849
 5166TIP3   OH236912   1.363   5.799  12.376  0.3261 -0.4466 -0.2974
 5166TIP3    H136913   1.413   5.719  12.392 -2.1952 -1.5908  3.2402
 5166TIP3    H236914   1.280   5.768  12.340  0.1971  0.8432 -1.1592
 5167TIP3   OH236915   2.088   3.530   5.392 -0.1090  0.3297  0.0076
 5167TIP3    H136916   2.169   3.554   5.347  0.2223  0.4376  0.6409
 5167TIP3    H236917   2.117   3.478   5.467 -0.5732  0.9132  0.5998
 5168TIP3   OH236918   2.743   6.118   0.434  0.0477 -0.0273 -0.2291
 5168TIP3    H136919   2.770   6.039   0.481 -0.0535  2.1852  3.9841
 5168TIP3    H236920   2.816   6.136   0.374  0.6272 -2.5649 -0.3820
 5169TIP3   OH236921   4.587   0.779  12.337  0.1439  0.8532  0.0066
 5169TIP3    H136922   4.598   0.787  12.242  0.8922 -0.9714 -0.1022
 5169TIP3    H236923   4.542   0.695  12.349  0.9295  0.5924  1.3046
 5170TIP3   OH236924   4.010   5.290  12.648 -0.7281  0.2987 -0.5394
 5170TIP3    H136925   3.951   5.348  12.599 -1.3667  1.6742  1.6947
 5170TIP3    H236926   4.000   5.317  12.739  1.6240 -1.0194  0.2075
 5171TIP3   OH236927   6.069   3.509  13.545 -0.3365 -0.2001 -0.5090
 5171TIP3    H136928   5.978   3.524  13.569 -0.3851  0.1645 -0.9142
 5171TIP3    H236929   6.092   3.426  13.587  0.0488  1.1059  2.0422
 5172TIP3   OH236930   2.230   5.429   5.278 -0.3077 -0.5055  0.3097
 5172TIP3    H136931   2.306   5.451   5.332 -0.7179  2.8734 -0.2881
 5172TIP3    H236932   2.252   5.343   5.241  3.3972  0.3911 -0.0307
 5173TIP3   OH236933   3.497   6.783   5.014  0.2965  0.6658  0.1815
 5173TIP3    H136934   3.561   6.854   5.005 -1.3611  2.3832  1.3225
 5173TIP3    H236935   3.491   6.768   5.108 -1.8271  1.3881  0.1997
 5174TIP3   OH236936   0.222   4.392   4.455 -0.0820 -0.0354  0.8359
 5174TIP3    H136937   0.271   4.310   4.450 -0.8349 -0.4386 -0.8237
 5174TIP3    H236938   0.237   4.424   4.544  1.4083 -1.2240  1.0605
 5175TIP3   OH236939   5.314   6.402   0.317 -0.3573 -0.5343 -0.4181
 5175TIP3    H136940   5.240   6.346   0.340  0.1606 -1.3095 -0.5919
 5175TIP3    H236941   5.339   6.374   0.229 -2.3001  2.3600 -2.0492
 5176TIP3   OH236942   5.035   3.487   0.463  0.1255  0.0237 -0.1149
 5176TIP3    H136943   5.117   3.521   0.428 -0.6576  0.4460 -1.6270
 5176TIP3    H236944   5.057   3.458   0.552  1.4655  1.9022  0.2309
 5177TIP3   OH236945   6.355   1.271  10.671 -0.3881 -0.1947 -0.0101
 5177TIP3    H136946   6.308   1.258  10.753  0.1090  0.9317  0.4751
 5177TIP3    H236947   6.448   1.270  10.696 -0.2241 -0.1730 -0.6081
 5178TIP3   OH236948   1.901   6.496   4.661 -0.3645 -0.1076  0.3548
 5178TIP3    H136949   1.937   6.417   4.622 -0.0164  1.1937 -2.1476
 5178TIP3    H236950   1.806   6.482   4.660 -0.2948 -0.5857  0.1640
 5179TIP3   OH236951   2.539   3.277   5.738  0.0676  0.2645 -0.3299
 5179TIP3    H136952   2.494   3.262   5.655 -0.9494  1.0812  0.0463
 5179TIP3    H236953   2.469   3.274   5.804  0.9852 -1.3410  0.6333
 5180TIP3   OH236954   2.264   3.155  14.763 -0.2376 -0.2269  0.0086
 5180TIP3    H136955   2.349   3.196  14.748 -0.2889 -0.1540 -0.0821
 5180TIP3    H236956   2.264   3.132  14.856  0.7300 -2.1388 -0.4028
 5181TIP3   OH236957   0.003   5.002   5.625 -0.4962  0.6563  0.4977
 5181TIP3    H136958   0.085   5.018   5.672 -0.1765 -1.0015  0.5637
 5181TIP3    H236959  -0.014   5.084   5.578  1.9831  0.5855 -0.6648
 5182TIP3   OH236960   4.578   1.728   2.912 -0.3729  0.6597 -0.4144
 5182TIP3    H136961   4.632   1.657   2.947  0.7205  0.3774 -2.5124
 5182TIP3    H236962   4.568   1.789   2.986  1.4327 -0.0926  0.5112
 5183TIP3   OH236963   5.532   5.130  15.986  0.5207 -0.4322  0.3877
 5183TIP3    H136964   5.579   5.178  16.054  1.2577  1.1375 -1.1438
 5183TIP3    H236965   5.473   5.072  16.034  0.4494  1.1584  2.3445
 5184TIP3   OH236966   6.406   1.642   4.370  0.6596  0.7510 -0.5093
 5184TIP3    H136967   6.341   1.615   4.435  0.7983  0.9542 -0.2815
 5184TIP3    H236968   6.361   1.709   4.318  0.4381  0.3534 -0.8397
 5185TIP3   OH236969   5.574   0.966  16.254 -0.2742 -0.2300  0.4777
 5185TIP3    H136970   5.506   0.994  16.192  1.0544  1.7015 -0.1936
 5185TIP3    H236971   5.569   0.870  16.252 -3.4349 -0.1772  1.0462
 5186TIP3   OH236972   3.457   6.025  10.525 -0.5633 -0.3622  0.2805
 5186TIP3    H136973   3.540   6.042  10.481  0.6702 -0.6293  2.3735
 5186TIP3    H236974   3.431   5.938  10.496  0.2953 -0.5906  0.1733
 5187TIP3   OH236975   6.526   0.570   2.974  0.2380  0.2110 -0.4571
 5187TIP3    H136976   6.579   0.593   2.898  0.3874 -2.0681 -1.1229
 5187TIP3    H236977   6.589   0.538   3.039 -0.1344 -0.9470 -0.6386
 5188TIP3   OH236978   1.836   5.330   2.232 -0.0941  0.1768  0.1343
 5188TIP3    H136979   1.790   5.400   2.276 -0.4839 -1.7637  3.0949
 5188TIP3    H236980   1.822   5.347   2.138 -1.6148  2.9776  0.7673
 5189TIP3   OH236981   2.370   4.039  16.071 -0.7065  0.3670 -0.3955
 5189TIP3    H136982   2.281   4.074  16.076 -2.4818 -3.5739 -0.7802
 5189TIP3    H236983   2.393   4.046  15.978  0.7289  3.9765  0.0836
 5190TIP3   OH236984   5.684   6.041  12.655 -0.3126  0.5542  0.2645
 5190TIP3    H136985   5.696   6.082  12.569  0.2594  3.1296  1.4586
 5190TIP3    H236986   5.772   6.036  12.692 -0.3513 -1.9485  0.1792
 5191TIP3   OH236987   1.054   6.214   0.227  0.6016  0.1701 -0.1410
 5191TIP3    H136988   0.959   6.210   0.215  0.6018 -1.0202  0.0564
 5191TIP3    H236989   1.068   6.190   0.318  1.1240 -0.4237 -0.3650
 5192TIP3   OH236990   0.981   3.438  11.766 -0.4710 -0.0777  0.3245
 5192TIP3    H136991   1.019   3.482  11.843 -2.1298  0.6165  0.7762
 5192TIP3    H236992   0.887   3.437  11.783 -0.9876  0.9096 -2.1251
 5193TIP3   OH236993   1.076   4.069  12.218 -0.7741  0.4150 -0.2533
 5193TIP3    H136994   1.002   4.094  12.163 -1.6903 -0.0172  0.7706
 5193TIP3    H236995   1.132   4.147  12.219 -0.3628  0.2205 -2.3418
 5194TIP3   OH236996   5.188   2.901   5.530 -0.6237 -0.5090  0.2770
 5194TIP3    H136997   5.151   2.973   5.581 -0.9164 -0.5398  0.1075
 5194TIP3    H236998   5.126   2.829   5.540  1.2129 -1.8668  3.1344
 5195TIP3   OH236999   1.072   2.623   5.499 -0.2805 -0.3426 -0.1897
 5195TIP3    H137000   1.037   2.682   5.565 -2.2107 -1.4895 -0.1051
 5195TIP3    H237001   1.129   2.678   5.445  0.0551  0.9642  1.4414
 5196TIP3   OH237002   6.068   1.961   1.756  0.6369  0.5135  0.2189
 5196TIP3    H137003   6.006   1.948   1.828 -0.0199 -0.3594 -0.4750
 5196TIP3    H237004   6.053   1.886   1.699  0.3609  1.7369 -1.3899
 5197TIP3   OH237005   3.802   3.998  14.744  0.0447  0.5927  0.3202
 5197TIP3    H137006   3.790   4.035  14.656 -0.8959  0.6726  0.4660
 5197TIP3    H237007   3.732   3.933  14.752  1.1606 -0.6327  0.3953
 5198TIP3   OH237008   2.794   3.219   2.340  0.1725  0.4540 -0.2110
 5198TIP3    H137009   2.819   3.162   2.413 -1.0425  1.5772  1.1338
 5198TIP3    H237010   2.772   3.302   2.380 -0.4209  1.1621 -1.8883
 5199TIP3   OH237011   0.168   1.317   4.112  0.6990  0.0097  0.1327
 5199TIP3    H137012   0.239   1.324   4.176 -1.3191  0.0625  2.5559
 5199TIP3    H237013   0.100   1.267   4.158 -0.0435 -1.9697 -2.8439
 5200TIP3   OH237014   3.124   4.701  14.234 -0.0268  1.2686  0.1898
 5200TIP3    H137015   3.103   4.656  14.316  0.5712  2.0548  0.7877
 5200TIP3    H237016   3.063   4.774  14.230  1.2842  2.4503  0.9896
 5201TIP3   OH237017   2.385   3.638   3.833  0.2446  0.4743 -0.3056
 5201TIP3    H137018   2.474   3.674   3.831  0.1898  0.6009 -0.7277
 5201TIP3    H237019   2.369   3.611   3.742 -1.0063  2.5803 -0.7922
 5202TIP3   OH237020   2.925   3.902   1.404 -0.1597  0.2862 -0.5038
 5202TIP3    H137021   2.902   3.985   1.445  1.3666  0.6328 -0.2664
 5202TIP3    H237022   2.974   3.926   1.326 -0.4940 -0.3965 -0.9393
 5203TIP3   OH237023   2.968   3.246   0.359  0.1058  0.2705  0.1361
 5203TIP3    H137024   2.934   3.332   0.335  0.8399  0.8090  0.9882
 5203TIP3    H237025   2.972   3.247   0.454  0.5424 -0.5478  0.1361
 5204TIP3   OH237026   3.287   6.167  11.143  0.7555  0.0826  0.3180
 5204TIP3    H137027   3.208   6.221  11.147 -0.2216 -1.3259  1.0174
 5204TIP3    H237028   3.269   6.103  11.074  1.5589  0.1510  0.0347
 5205TIP3   OH237029   0.826   1.538  16.038  0.2384  0.2117 -0.2926
 5205TIP3    H137030   0.766   1.601  15.999 -0.4858  0.3880  1.0589
 5205TIP3    H237031   0.819   1.553  16.132  0.9302 -1.0987 -0.0079
 5206TIP3   OH237032   5.994   3.308  16.880 -0.4122 -0.6324  0.3591
 5206TIP3    H137033   6.017   3.400  16.868  1.7388 -1.3255 -1.6282
 5206TIP3    H237034   5.905   3.301  16.846 -0.2085  0.5358 -0.4749
 5207TIP3   OH237035   3.466   3.658  13.715 -0.0165 -0.3503  0.0414
 5207TIP3    H137036   3.499   3.748  13.723 -0.3316 -0.0355 -1.7648
 5207TIP3    H237037   3.531   3.604  13.759  1.9984  0.4252 -1.8574
 5208TIP3   OH237038   5.695   0.457  15.177  0.0603  0.5710  0.5461
 5208TIP3    H137039   5.776   0.411  15.153 -0.9568 -1.0976  0.1888
 5208TIP3    H237040   5.689   0.529  15.114  2.7295  2.5915  2.3409
 5209TIP3   OH237041   1.531   5.545  12.416  0.0882 -0.1984 -0.1507
 5209TIP3    H137042   1.503   5.513  12.330 -1.4632  1.4516 -0.3375
 5209TIP3    H237043   1.525   5.469  12.474  0.7981 -1.2466 -1.3970
 5210TIP3   OH237044   4.144   2.091   4.846  0.2410  0.1540 -0.1222
 5210TIP3    H137045   4.072   2.110   4.786  0.3347  0.9560  0.0114
 5210TIP3    H237046   4.142   1.996   4.856  0.1355  0.0187 -1.2829
 5211TIP3   OH237047   2.840   2.752   0.540  0.2535  0.3997  0.2987
 5211TIP3    H137048   2.832   2.829   0.597  0.4399 -0.5009  1.5788
 5211TIP3    H237049   2.840   2.788   0.452 -0.4623  1.8108  0.8407
 5212TIP3   OH237050   0.326   2.859   6.578  0.2678  0.2773  0.2514
 5212TIP3    H137051   0.318   2.811   6.495 -0.3402 -1.0201  1.0361
 5212TIP3    H237052   0.346   2.949   6.551  0.2519 -0.1452 -1.2974
 5213TIP3   OH237053   6.091   4.947  16.956 -0.2402 -0.6693  0.1073
 5213TIP3    H137054   6.112   4.858  16.985  0.4059 -0.1409  1.3233
 5213TIP3    H237055   5.996   4.955  16.971 -0.5332 -1.5367 -1.1476
 5214TIP3   OH237056   3.320   3.396  12.678 -0.3278 -0.3098 -0.4652
 5214TIP3    H137057   3.272   3.469  12.717 -0.4763 -0.7066  0.0919
 5214TIP3    H237058   3.412   3.423  12.681 -0.0799 -1.1895  2.0952
 5215TIP3   OH237059   3.092   6.207   4.334  0.2697  0.2079 -0.1228
 5215TIP3    H137060   3.155   6.141   4.306 -0.0663  0.1306 -0.6944
 5215TIP3    H237061   3.025   6.207   4.266 -0.2262  0.4605  0.3610
 5216TIP3   OH237062   3.047   4.110   5.838  0.3205  0.1261 -0.3905
 5216TIP3    H137063   3.028   4.170   5.910 -0.7120 -0.4624 -0.1526
 5216TIP3    H237064   3.037   4.164   5.759 -0.2590  0.3505 -0.1694
 5217TIP3   OH237065   1.807   3.034   4.012 -0.0652 -0.2788 -0.7474
 5217TIP3    H137066   1.800   2.941   4.030  0.8527 -0.5023 -1.5221
 5217TIP3    H237067   1.861   3.068   4.083 -1.6691 -0.0310  0.4241
 5218TIP3   OH237068   3.161   2.474   4.822  0.5345  0.1225 -0.9526
 5218TIP3    H137069   3.224   2.416   4.864  1.0900  0.6222 -1.0794
 5218TIP3    H237070   3.090   2.417   4.795 -0.2859 -0.0984  1.4669
 5219TIP3   OH237071   6.735   0.899   3.859 -0.6542  0.0011  0.1976
 5219TIP3    H137072   6.639   0.899   3.858 -0.7445 -2.2128  1.2922
 5219TIP3    H237073   6.758   0.962   3.927 -1.2363  1.6748 -1.0997
 5220TIP3   OH237074   5.357   5.730  13.471 -0.3032  0.1469 -0.1151
 5220TIP3    H137075   5.386   5.680  13.547  1.1969 -0.4689 -1.0581
 5220TIP3    H237076   5.423   5.797  13.459 -1.0751  0.8963 -0.2746
 5221TIP3   OH237077   0.915   2.890  11.664  0.4327  0.0806  0.3522
 5221TIP3    H137078   0.900   2.981  11.638  1.4409  0.3799  0.7800
 5221TIP3    H237079   0.956   2.850  11.587  0.4392  0.1159  0.3368
 5222TIP3   OH237080   2.879   4.961  13.922  0.6695 -0.0962  0.4277
 5222TIP3    H137081   2.816   5.001  13.862  0.8530 -1.1154 -0.4867
 5222TIP3    H237082   2.856   4.996  14.008  0.5866  1.6449 -0.2550
 5223TIP3   OH237083   5.424   4.508   0.676  0.2125 -0.1707  0.5062
 5223TIP3    H137084   5.417   4.603   0.669 -0.1962 -0.1558  1.0467
 5223TIP3    H237085   5.365   4.485   0.747 -0.4357 -0.9381 -0.2529
 5224TIP3   OH237086   4.065   1.046   2.951  0.2159 -0.2174  0.0703
 5224TIP3    H137087   4.135   1.071   3.012 -0.3710 -1.1941  1.2073
 5224TIP3    H237088   4.089   1.086   2.868  0.0770  2.8120  1.3620
 5225TIP3   OH237089   0.257   6.561   4.536 -0.4364  0.1748  0.0899
 5225TIP3    H137090   0.240   6.650   4.567 -1.7151 -0.6243  1.8401
 5225TIP3    H237091   0.329   6.530   4.592 -1.3860 -0.5736  0.9407
 5226TIP3   OH237092   2.670   0.704  16.885 -0.1733 -0.1594 -0.0555
 5226TIP3    H137093   2.738   0.754  16.931 -0.0444 -0.8077  0.4709
 5226TIP3    H237094   2.719   0.649  16.824 -0.1188 -1.4374  1.0915
 5227TIP3   OH237095   2.559   1.053   3.405 -0.2589 -0.4795  0.4270
 5227TIP3    H137096   2.571   1.033   3.498 -0.7485 -1.3261  0.3186
 5227TIP3    H237097   2.641   1.092   3.377  1.3463 -3.6486  0.3057
 5228TIP3   OH237098   0.162   2.625  15.560  0.3994 -0.0250  0.4810
 5228TIP3    H137099   0.084   2.570  15.568  0.1829 -0.2163 -2.0457
 5228TIP3    H237100   0.173   2.665  15.646 -1.5257 -1.2601  1.3537
 5229TIP3   OH237101   1.450   5.176   0.363 -0.0153 -0.7083  0.3235
 5229TIP3    H137102   1.532   5.218   0.338 -0.7229  0.5574 -0.0238
 5229TIP3    H237103   1.439   5.104   0.301  0.8632 -0.9240  0.4164
 5230TIP3   OH237104   2.535   0.196   5.873  0.2998  0.1582  0.2281
 5230TIP3    H137105   2.518   0.271   5.816  0.5927 -0.0025 -0.0692
 5230TIP3    H237106   2.630   0.193   5.880  0.2951 -0.2950  0.0969
 5231TIP3   OH237107   0.172   5.759  14.145 -0.1261  0.6341 -0.9317
 5231TIP3    H137108   0.195   5.707  14.222 -1.2756  0.9423 -0.3409
 5231TIP3    H237109   0.254   5.796  14.114  0.4122  0.1421 -0.1111
 5232TIP3   OH237110   5.456   1.654  14.333  0.1683 -0.4735 -0.4992
 5232TIP3    H137111   5.437   1.727  14.392  3.2715  0.1231 -0.0887
 5232TIP3    H237112   5.408   1.580  14.371  1.8101 -0.0493  2.7414
 5233TIP3   OH237113   5.793   0.972  11.784 -0.4223  0.1490  0.5447
 5233TIP3    H137114   5.723   1.020  11.739 -0.2939  0.3070  0.5123
 5233TIP3    H237115   5.830   1.036  11.845 -1.1112 -0.2883  1.4471
 5234TIP3   OH237116   5.019   0.155   3.203 -0.3132  0.0944 -0.1732
 5234TIP3    H137117   5.094   0.157   3.262 -0.9896 -0.0218  0.7208
 5234TIP3    H237118   5.052   0.192   3.121  0.7290 -0.0224  0.1751
 5235TIP3   OH237119   0.286   6.773  16.279 -0.3458  0.3715 -0.0914
 5235TIP3    H137120   0.261   6.705  16.342 -0.4318  0.3035 -0.1999
 5235TIP3    H237121   0.248   6.853  16.314  2.5845  1.0763  1.9382
 5236TIP3   OH237122   4.246   6.017   3.310  0.1720  0.4393 -0.0167
 5236TIP3    H137123   4.203   5.934   3.291 -1.3581  1.2538 -0.2517
 5236TIP3    H237124   4.202   6.050   3.388  0.7452  1.0449  0.0589
 5237TIP3   OH237125   0.214   6.678   0.154 -0.5923 -0.2802  0.5939
 5237TIP3    H137126   0.294   6.628   0.174  0.3207  1.0994  0.5322
 5237TIP3    H237127   0.239   6.737   0.083 -1.2260  1.2039  1.5479
 5238TIP3   OH237128   4.716   3.316   0.689  0.8571 -0.3762 -0.3769
 5238TIP3    H137129   4.627   3.304   0.658 -0.0173  0.0982  1.7382
 5238TIP3    H237130   4.712   3.395   0.744  2.5944 -0.2960 -0.3036
 5239TIP3   OH237131   6.500   0.350  11.891  0.9912 -0.3661 -0.2745
 5239TIP3    H137132   6.406   0.340  11.907  1.2816 -0.9714  1.2720
 5239TIP3    H237133   6.505   0.407  11.814 -0.6345 -0.6251 -0.6229
 5240TIP3   OH237134   2.732   4.450   3.922 -0.5904  0.3826  0.4545
 5240TIP3    H137135   2.821   4.484   3.917 -0.6255  0.4314  0.0728
 5240TIP3    H237136   2.742   4.358   3.946 -0.4787  0.5835  1.1755
 5241TIP3   OH237137   0.091   4.606   5.017 -0.4266 -0.0538  0.0828
 5241TIP3    H137138   0.172   4.562   5.044  0.6005  2.2598  1.0228
 5241TIP3    H237139   0.050   4.544   4.957  1.7975 -1.5137 -0.0832
 5242TIP3   OH237140   0.984   3.575   4.314 -0.0440  0.2581 -0.3473
 5242TIP3    H137141   0.982   3.665   4.282  0.3934  0.2316 -0.4553
 5242TIP3    H237142   1.065   3.570   4.366 -0.8494  0.3642  0.9507
 5243TIP3   OH237143   2.871   5.621   1.247 -0.1492  0.1881 -0.8644
 5243TIP3    H137144   2.861   5.526   1.254  1.0221  0.0547 -0.7774
 5243TIP3    H237145   2.786   5.656   1.273 -0.1025 -0.7719  0.7002
 5244TIP3   OH237146   3.300   6.199   5.486  0.1901  0.0038  0.3624
 5244TIP3    H137147   3.233   6.255   5.445  0.8631  0.9072  0.4507
 5244TIP3    H237148   3.380   6.218   5.437  1.2019  1.6611  2.4427
 5245TIP3   OH237149   1.479   4.170   3.217 -0.3455 -0.0100 -0.4687
 5245TIP3    H137150   1.451   4.117   3.143  0.1758  0.8323 -1.2934
 5245TIP3    H237151   1.480   4.260   3.183  1.4417  0.2198  0.0792
 5246TIP3   OH237152   5.988   3.737  15.058  0.3367 -0.2198 -0.8434
 5246TIP3    H137153   5.911   3.740  15.002 -0.6157 -2.1255  0.2384
 5246TIP3    H237154   6.028   3.652  15.039  1.8425  0.4583 -0.9106
 5247TIP3   OH237155   0.459   6.053   0.441  0.2679 -0.2647  0.5101
 5247TIP3    H137156   0.496   5.965   0.437  0.6456 -0.1609  1.5119
 5247TIP3    H237157   0.478   6.083   0.529  2.5661  1.8880 -0.5824
 5248TIP3   OH237158   5.338   2.773   3.463 -0.5487 -0.3008  0.2122
 5248TIP3    H137159   5.415   2.750   3.412 -1.0465  0.9867 -1.2038
 5248TIP3    H237160   5.293   2.690   3.478  0.0918 -0.8201 -0.6578
 5249TIP3   OH237161   5.121   2.545  11.107  0.0855  0.2702  0.1059
 5249TIP3    H137162   5.149   2.456  11.129  1.4981  1.0658  1.7882
 5249TIP3    H237163   5.104   2.543  11.013 -1.7137 -2.2019  0.3746
 5250TIP3   OH237164   6.145   4.048  11.878  0.8661 -0.1113 -0.0152
 5250TIP3    H137165   6.193   3.989  11.937  1.6193  0.3620 -0.1474
 5250TIP3    H237166   6.206   4.119  11.860 -0.0802  0.7977  0.2564
 5251TIP3   OH237167   5.560   2.059  12.023 -0.3911 -0.1721 -0.4313
 5251TIP3    H137168   5.533   2.143  11.986 -3.0767 -2.1893 -3.6084
 5251TIP3    H237169   5.656   2.065  12.029 -0.5249  3.3401  0.3781
 5252TIP3   OH237170   2.740   1.481  10.979 -0.0912 -0.0563  0.1758
 5252TIP3    H137171   2.756   1.411  10.916  0.4433  0.0762  0.1584
 5252TIP3    H237172   2.827   1.506  11.010 -0.3652 -0.4431  1.3180
 5253TIP3   OH237173   5.351   3.282  12.723 -0.3707  0.0436  0.2223
 5253TIP3    H137174   5.446   3.277  12.732 -0.3824 -0.9908 -0.1051
 5253TIP3    H237175   5.336   3.357  12.667  0.3962 -1.0393 -1.5151
 5254TIP3   OH237176   0.219   4.557  13.276 -0.4883 -0.2333  0.0846
 5254TIP3    H137177   0.139   4.553  13.224 -0.5469  0.3234  0.1258
 5254TIP3    H237178   0.279   4.496  13.232 -1.2484 -1.4120  0.6218
 5255TIP3   OH237179   6.043   0.902  11.249  0.3583  0.6081  0.3201
 5255TIP3    H137180   5.963   0.954  11.258  1.1744  1.8165  0.9161
 5255TIP3    H237181   6.017   0.826  11.198 -1.3129  0.6698  1.0215
 5256TIP3   OH237182   0.829   3.448  11.068  0.6125 -0.2854  0.4397
 5256TIP3    H137183   0.917   3.484  11.083  0.6649  0.1730 -0.8756
 5256TIP3    H237184   0.774   3.524  11.053  0.0656 -0.5981  0.8429
 5257TIP3   OH237185   5.740   5.668  13.995  0.3414  0.1853 -0.6258
 5257TIP3    H137186   5.793   5.747  14.004  0.7988  0.0066 -1.6459
 5257TIP3    H237187   5.786   5.615  13.931  0.0659 -0.9466  0.0836
 5258TIP3   OH237188   0.097   3.304   2.515  0.2758 -0.0345 -0.2798
 5258TIP3    H137189   0.135   3.217   2.531  0.5021  0.2453  0.8352
 5258TIP3    H237190   0.135   3.332   2.432  1.6632 -0.2304  0.2604
 5259TIP3   OH237191   3.243   3.403  15.967 -0.0076 -0.1266  0.3637
 5259TIP3    H137192   3.194   3.465  15.914  0.2870  0.9517  1.3099
 5259TIP3    H237193   3.334   3.414  15.940  0.0094 -0.3982  0.2994
 5260TIP3   OH237194   3.972   0.562   2.659  0.1324  0.2072 -0.0810
 5260TIP3    H137195   3.918   0.596   2.587  0.3445  0.1004 -0.2929
 5260TIP3    H237196   4.010   0.641   2.699  0.3649  0.2461 -0.3677
 5261TIP3   OH237197   0.154   6.418   5.864  0.1763 -0.1819 -0.1142
 5261TIP3    H137198   0.137   6.512   5.860  1.2458  0.0349  0.1056
 5261TIP3    H237199   0.160   6.391   5.773 -1.5161 -0.3206 -0.2076
 5262TIP3   OH237200   4.700   3.615  11.773  0.4687 -0.5020  0.9192
 5262TIP3    H137201   4.698   3.582  11.684 -0.9804 -0.3019  0.8544
 5262TIP3    H237202   4.657   3.700  11.769 -0.8733 -1.0771  2.0007
 5263TIP3   OH237203   5.200   5.044  11.342  0.2740  0.0009 -0.6202
 5263TIP3    H137204   5.136   5.092  11.394  0.7447 -1.6481  1.6126
 5263TIP3    H237205   5.152   4.968  11.310  0.6400 -0.3060 -0.4483
 5264TIP3   OH237206   2.478   3.092   0.452 -0.0706  0.2231  0.3668
 5264TIP3    H137207   2.489   3.021   0.389  0.2359  0.1042  0.5501
 5264TIP3    H237208   2.394   3.074   0.494  0.0264 -0.0574  0.4442
 5265TIP3   OH237209   3.853   6.727   1.518  0.1541 -0.2538  0.3723
 5265TIP3    H137210   3.797   6.742   1.594 -0.7664  0.0536 -0.3492
 5265TIP3    H237211   3.857   6.812   1.473 -1.8830 -1.0968 -1.6090
 5266TIP3   OH237212   3.543   1.961  13.519 -0.5789 -0.2157  0.4816
 5266TIP3    H137213   3.489   2.034  13.486 -3.6911 -2.4606  0.1580
 5266TIP3    H237214   3.509   1.884  13.473  3.5678 -1.8128 -0.3467
 5267TIP3   OH237215   2.206   0.357  17.099 -0.0401  0.2576 -0.6308
 5267TIP3    H137216   2.162   0.375  17.016 -1.4238  0.3275  0.0933
 5267TIP3    H237217   2.179   0.428  17.157  1.7807  0.8299 -0.3978
 5268TIP3   OH237218   4.026   1.559   1.127 -0.3611  0.1567 -0.0608
 5268TIP3    H137219   3.964   1.500   1.172  0.2101 -1.4537 -1.2811
 5268TIP3    H237220   4.084   1.500   1.079  1.3395  1.6782  0.0139
 5269TIP3   OH237221   1.647   2.039  13.459  0.8544  0.0742  0.1261
 5269TIP3    H137222   1.732   1.997  13.470 -0.2558 -3.5203 -2.7769
 5269TIP3    H237223   1.656   2.092  13.380 -0.0580 -2.1984 -1.5989
 5270TIP3   OH237224   4.600   0.155   3.939 -0.0119  0.3807  0.2544
 5270TIP3    H137225   4.547   0.225   3.977  1.3602  0.7353  1.6029
 5270TIP3    H237226   4.684   0.161   3.984  0.5340 -1.4074 -0.4376
 5271TIP3   OH237227   5.728   0.630   5.153 -0.9722 -0.1294  0.0164
 5271TIP3    H137228   5.766   0.557   5.202  0.2562  0.6158  0.2213
 5271TIP3    H237229   5.803   0.676   5.116 -1.6563  1.5687  0.6557
 5272TIP3   OH237230   0.565   5.737   0.426  0.1146  0.0399 -0.0641
 5272TIP3    H137231   0.651   5.701   0.407  0.4438  0.0118  1.3875
 5272TIP3    H237232   0.551   5.719   0.519 -1.8801 -0.8175 -0.4852
 5273TIP3   OH237233   2.336   3.526  11.558 -0.3812  0.4792  0.1744
 5273TIP3    H137234   2.331   3.589  11.630 -0.6287 -0.9075  1.4150
 5273TIP3    H237235   2.319   3.442  11.599  2.1153 -0.7060 -1.0135
 5274TIP3   OH237236   0.147   6.593  14.634 -0.1311 -0.2832 -0.0143
 5274TIP3    H137237   0.132   6.589  14.728 -2.1376  0.1113 -0.2756
 5274TIP3    H237238   0.119   6.508  14.601  2.1328 -1.0581 -0.1220
 5275TIP3   OH237239   4.490   3.152  12.077 -0.1433 -0.3108 -0.4152
 5275TIP3    H137240   4.453   3.219  12.020  0.2363 -1.1395 -1.6762
 5275TIP3    H237241   4.526   3.086  12.017 -1.2523 -2.0696  0.7520
 5276TIP3   OH237242   3.318   5.477  14.265  0.1693 -0.0216  0.0414
 5276TIP3    H137243   3.306   5.444  14.175 -0.3081  1.0170 -0.2883
 5276TIP3    H237244   3.254   5.548  14.272 -1.8320 -1.8540  2.1219
 5277TIP3   OH237245   4.693   5.491   5.587 -0.2806  0.3047 -0.1134
 5277TIP3    H137246   4.657   5.572   5.553  1.4644  1.7101  1.2014
 5277TIP3    H237247   4.665   5.488   5.679  1.1739  0.3849  0.3578
 5278TIP3   OH237248   2.451   0.675   1.660  0.1939  0.1567  0.2478
 5278TIP3    H137249   2.482   0.623   1.586  1.5322 -0.4149  1.1680
 5278TIP3    H237250   2.432   0.761   1.623  1.0529 -0.0525 -0.7131
 5279TIP3   OH237251   5.766   3.438   6.040  0.1114  0.1037  0.1232
 5279TIP3    H137252   5.700   3.370   6.056  0.1402 -0.0428 -0.3544
 5279TIP3    H237253   5.848   3.398   6.070  0.4681 -0.8770 -2.0019
 5280TIP3   OH237254   1.703   4.797  12.704  0.0957  0.2738 -0.1218
 5280TIP3    H137255   1.674   4.725  12.761  0.6498 -0.1794 -0.3984
 5280TIP3    H237256   1.784   4.828  12.744 -0.3719  1.0531  0.2442
 5281TIP3   OH237257   2.606   2.126  12.613 -0.4134  0.3809  0.3607
 5281TIP3    H137258   2.549   2.201  12.632  1.0348  1.4346  0.7399
 5281TIP3    H237259   2.580   2.099  12.524  1.1681  3.4833 -1.2186
 5282TIP3   OH237260   2.172   1.493  11.397 -0.0588 -0.1742  0.0505
 5282TIP3    H137261   2.171   1.470  11.490 -0.1394 -0.1530  0.0548
 5282TIP3    H237262   2.249   1.448  11.362  0.3569  0.3500  0.2641
 5283TIP3   OH237263   4.753   5.499   2.731  0.1394 -0.0134 -0.0037
 5283TIP3    H137264   4.824   5.450   2.773 -2.4797 -3.5909  0.7791
 5283TIP3    H237265   4.755   5.471   2.640 -0.2037 -0.1171  0.0177
 5284TIP3   OH237266   1.739   6.277   1.504  0.1680  0.2859 -0.4738
 5284TIP3    H137267   1.667   6.339   1.514 -1.1452 -1.4208  1.3618
 5284TIP3    H237268   1.770   6.260   1.593 -0.9500 -3.1940 -0.5733
 5285TIP3   OH237269   1.639   2.635   3.225  0.0303  0.5042 -0.1467
 5285TIP3    H137270   1.607   2.702   3.285  0.3691  0.8155 -0.3133
 5285TIP3    H237271   1.560   2.592   3.192 -0.1685  0.5606  0.2610
 5286TIP3   OH237272   1.450   6.740  15.721 -0.1489 -0.4130 -0.0676
 5286TIP3    H137273   1.395   6.759  15.797  0.2790 -0.4092  0.2446
 5286TIP3    H237274   1.414   6.659  15.684  0.6528 -1.3382  1.1188
 5287TIP3   OH237275   5.113   2.091   2.458  0.0602 -0.2013  0.2185
 5287TIP3    H137276   5.147   2.113   2.545  0.4133 -1.1444  0.3283
 5287TIP3    H237277   5.043   2.154   2.443  0.6786  0.6327  0.7500
 5288TIP3   OH237278   2.587   4.857   1.222  0.3120 -0.1745  0.4282
 5288TIP3    H137279   2.672   4.890   1.251  0.7820 -0.6732 -0.3470
 5288TIP3    H237280   2.547   4.932   1.178  0.4798 -0.0213  0.5347
 5289TIP3   OH237281   5.669   2.409  14.564 -0.3244  0.0097  0.7901
 5289TIP3    H137282   5.585   2.438  14.528  0.5227  0.2188 -1.1687
 5289TIP3    H237283   5.650   2.326  14.607 -1.3172 -0.6449 -0.8261
 5290TIP3   OH237284   2.954   1.142   5.423 -0.0791 -1.0659 -0.5155
 5290TIP3    H137285   2.930   1.091   5.346 -0.2513  1.1865 -2.0135
 5290TIP3    H237286   3.039   1.179   5.402 -1.0382  1.2525 -0.5215
 5291TIP3   OH237287   1.470   0.631   5.819  0.3240  0.3371  0.6925
 5291TIP3    H137288   1.490   0.715   5.778  0.1573  0.0287 -0.0293
 5291TIP3    H237289   1.400   0.650   5.881 -0.2657  0.5974 -0.0390
 5292TIP3   OH237290   5.750   1.432   4.339  0.4292  0.0513  0.1452
 5292TIP3    H137291   5.808   1.481   4.281  1.0101 -0.5465  0.2126
 5292TIP3    H237292   5.804   1.361   4.373 -0.3139 -0.4570  0.2891
 5293TIP3   OH237293   6.167   3.344   0.709  0.6760 -0.1191 -0.4834
 5293TIP3    H137294   6.116   3.398   0.648  0.1806  1.0051  0.8758
 5293TIP3    H237295   6.247   3.394   0.723  1.2617 -0.8891 -1.0074
 5294TIP3   OH237296   4.478   0.220  12.395  0.4934 -0.2322  0.5915
 5294TIP3    H137297   4.547   0.163  12.428  0.1859 -0.6460  0.5195
 5294TIP3    H237298   4.506   0.242  12.306  0.8949  0.1963  0.8154
 5295TIP3   OH237299   6.244   0.515  14.006 -0.3483  0.1184 -0.1005
 5295TIP3    H137300   6.307   0.461  13.959  0.8423  0.2925  1.2216
 5295TIP3    H237301   6.264   0.605  13.979  0.9312  0.3064  1.3148
 5296TIP3   OH237302   0.423   2.287   4.163  0.1332 -0.8022  0.1387
 5296TIP3    H137303   0.421   2.299   4.258  0.8920 -1.6640  0.2740
 5296TIP3    H237304   0.510   2.251   4.145  0.5424  0.6659 -1.0526
 5297TIP3   OH237305   6.563   4.485  11.684  0.5287 -0.2356  0.1015
 5297TIP3    H137306   6.602   4.480  11.772 -0.4543 -2.7253  0.4693
 5297TIP3    H237307   6.633   4.521  11.629  2.4990 -2.1488  1.2074
 5298TIP3   OH237308   5.011   3.229  12.670  0.1201  0.8293  0.5527
 5298TIP3    H137309   4.947   3.192  12.609  0.8057 -0.1549  0.4028
 5298TIP3    H237310   5.050   3.153  12.713  1.0016  1.4173  0.8350
 5299TIP3   OH237311   1.208   1.397  14.898 -0.3846  0.2967 -0.6733
 5299TIP3    H137312   1.180   1.365  14.984  0.2325  0.4277 -0.4147
 5299TIP3    H237313   1.295   1.434  14.914 -0.1203  0.0097 -1.4233
 5300TIP3   OH237314   5.682   1.345  11.449  0.4499  0.3204 -0.1836
 5300TIP3    H137315   5.608   1.406  11.441 -0.2549 -0.4595  0.1813
 5300TIP3    H237316   5.732   1.378  11.524  0.1784  0.5610 -0.1060
 5301TIP3   OH237317   4.636   0.077  14.202  0.3482  0.0119 -0.1283
 5301TIP3    H137318   4.664   0.045  14.116  2.0390  0.4604  0.2239
 5301TIP3    H237319   4.623  -0.001  14.254  0.7942 -0.2179 -0.3558
 5302TIP3   OH237320   3.497   6.301  11.229  0.0937 -0.3981  0.0908
 5302TIP3    H137321   3.462   6.385  11.260  0.2027  0.2276 -1.3856
 5302TIP3    H237322   3.421   6.252  11.199  0.2059 -0.0680 -0.7561
 5303TIP3   OH237323   0.816   3.368   1.257 -0.3409 -0.0688  0.5827
 5303TIP3    H137324   0.769   3.397   1.179  1.0688  1.5106  0.2733
 5303TIP3    H237325   0.766   3.405   1.330 -0.4991  0.2209  0.3318
 5304TIP3   OH237326   2.575   1.616  13.435 -0.1685  0.1788 -0.3050
 5304TIP3    H137327   2.539   1.560  13.366  2.3062 -0.5126 -1.1217
 5304TIP3    H237328   2.602   1.555  13.503 -1.7910  0.8004  0.9559
 5305TIP3   OH237329   2.381   0.768   2.609  0.0862 -0.4861 -0.6054
 5305TIP3    H137330   2.412   0.843   2.556 -0.4932 -0.0177 -0.2890
 5305TIP3    H237331   2.418   0.691   2.565 -0.7870 -0.1430 -1.9922
 5306TIP3   OH237332   5.741   3.077   3.939 -0.3255  0.4218 -0.0811
 5306TIP3    H137333   5.673   3.109   3.998  1.5569  2.3873  1.1695
 5306TIP3    H237334   5.750   3.145   3.873 -0.6780 -0.6010 -1.2136
 5307TIP3   OH237335   3.296   4.576   0.079 -0.0280  0.7550 -0.4581
 5307TIP3    H137336   3.354   4.644   0.043  0.1110  1.0060  0.2208
 5307TIP3    H237337   3.341   4.494   0.060  0.3255  0.9197 -0.3431
 5308TIP3   OH237338   1.833   0.435  12.102 -0.1368  0.4193  0.2824
 5308TIP3    H137339   1.780   0.439  12.182 -0.8057  0.2187 -0.1422
 5308TIP3    H237340   1.849   0.527  12.079 -0.0558  0.4777  0.5712
 5309TIP3   OH237341   5.929   1.435  14.425  0.4760  0.0246  0.0939
 5309TIP3    H137342   5.871   1.510  14.410 -0.7881 -0.8733  0.3356
 5309TIP3    H237343   5.914   1.378  14.350 -0.6086 -1.2085  1.1951
 5310TIP3   OH237344   0.635   6.712  15.298 -0.3252 -0.2267  0.3259
 5310TIP3    H137345   0.564   6.694  15.360 -0.6291 -4.5532 -0.9835
 5310TIP3    H237346   0.715   6.690  15.346 -0.2901 -0.3027  0.2326
 5311TIP3   OH237347   2.384   3.921  12.773 -0.3137  0.4025  0.0333
 5311TIP3    H137348   2.338   3.929  12.857 -0.2406 -0.5525  0.1720
 5311TIP3    H237349   2.466   3.968  12.787 -0.3004  0.2541  0.4991
 5312TIP3   OH237350   0.451   6.047   5.601  0.0654 -0.7178 -0.5977
 5312TIP3    H137351   0.517   5.981   5.621 -1.7185 -2.6755 -0.9570
 5312TIP3    H237352   0.499   6.130   5.609  2.7071 -2.0399 -1.4099
 5313TIP3   OH237353   3.046   3.032  15.071 -0.5055 -0.4697 -0.2866
 5313TIP3    H137354   3.019   2.966  15.007 -0.8720 -0.5636 -0.0392
 5313TIP3    H237355   2.990   3.107  15.052  2.1264  1.0412 -2.7583
 5314TIP3   OH237356   5.484   2.476  13.198 -0.4996 -0.0788 -0.5574
 5314TIP3    H137357   5.445   2.397  13.236 -0.3800  0.7207  1.3046
 5314TIP3    H237358   5.450   2.478  13.108 -2.3637 -1.0078  0.0671
 5315TIP3   OH237359   3.973   2.018   5.748 -0.1028 -0.5609  0.1928
 5315TIP3    H137360   4.056   2.049   5.783 -0.2454 -0.0390  0.0869
 5315TIP3    H237361   3.912   2.025   5.821  0.0249 -1.2958  0.3754
 5316TIP3   OH237362   6.652   0.807   2.780 -0.1378 -0.0501  0.6454
 5316TIP3    H137363   6.620   0.885   2.734  0.2354 -0.7052 -0.7800
 5316TIP3    H237364   6.742   0.796   2.750  0.5966  0.2467  2.5952
 5317TIP3   OH237365   2.021   6.339   5.372 -0.0670 -0.5229  0.6025
 5317TIP3    H137366   1.995   6.430   5.363  0.5422 -0.2787  1.2096
 5317TIP3    H237367   1.944   6.295   5.409 -0.4236 -0.2950  0.1368
 5318TIP3   OH237368   1.245   6.075   2.174  0.8047  0.1937  0.5274
 5318TIP3    H137369   1.164   6.111   2.138  0.5583 -0.5445  0.3223
 5318TIP3    H237370   1.288   6.149   2.216 -0.4859  0.3836  1.5701
 5319TIP3   OH237371   6.454   6.668   3.691  0.3765  0.3308  0.3273
 5319TIP3    H137372   6.493   6.600   3.746  1.2439  1.0542  0.6201
 5319TIP3    H237373   6.442   6.743   3.749  0.0334  0.6529 -0.1485
 5320TIP3   OH237374   0.705   5.866   2.446  0.4000 -0.4901 -0.1041
 5320TIP3    H137375   0.683   5.844   2.537 -1.8929  0.7520 -0.2646
 5320TIP3    H237376   0.742   5.785   2.411  0.1364 -1.4139  1.5853
 5321TIP3   OH237377   3.584   0.942  17.033  0.3722 -0.0192  0.6290
 5321TIP3    H137378   3.643   0.885  16.985  0.8079  0.7547  0.2167
 5321TIP3    H237379   3.595   1.028  16.992 -1.6681 -0.0183 -0.0179
 5322TIP3   OH237380   5.594   5.909  16.000 -0.0034  0.4239  0.2493
 5322TIP3    H137381   5.514   5.925  16.051  1.5580  2.5222  2.2638
 5322TIP3    H237382   5.660   5.886  16.066  1.5013  0.5672 -1.1378
 5323TIP3   OH237383   2.105   5.437  13.520  0.2067 -0.4028  0.2341
 5323TIP3    H137384   2.108   5.531  13.540  0.1283  0.3997 -3.0125
 5323TIP3    H237385   2.195   5.407  13.535  0.4935  0.4488  0.3109
 5324TIP3   OH237386   5.605   3.050  15.420 -0.0697  0.4212  0.1717
 5324TIP3    H137387   5.661   3.120  15.454  0.9145 -0.3290  0.1118
 5324TIP3    H237388   5.560   3.016  15.497  0.5920  0.1137  0.4288
 5325TIP3   OH237389   3.738   1.748   1.241 -0.3591  0.0616 -0.1845
 5325TIP3    H137390   3.673   1.686   1.206 -0.0576 -0.0795 -0.5005
 5325TIP3    H237391   3.812   1.693   1.266  1.8559  0.5572 -4.6560
 5326TIP3   OH237392   2.606   1.467   6.090 -0.8432  0.1497  0.5185
 5326TIP3    H137393   2.700   1.472   6.074 -0.9050 -0.5632 -0.0792
 5326TIP3    H237394   2.597   1.485   6.184  0.0016 -1.0468  0.8494
 5327TIP3   OH237395   0.213   4.146  11.808 -0.2129  0.6105 -0.4937
 5327TIP3    H137396   0.211   4.116  11.899 -2.9309 -1.0687 -0.9960
 5327TIP3    H237397   0.158   4.224  11.808  1.2140  1.6519 -0.4417
 5328TIP3   OH237398   4.352   6.027   5.103 -0.1452 -0.3799 -0.3987
 5328TIP3    H137399   4.293   5.965   5.061 -0.8203 -1.2436  1.6555
 5328TIP3    H237400   4.302   6.109   5.109 -0.9839 -0.9378  0.7948
 5329TIP3   OH237401   2.408   3.496  16.254 -0.5051 -0.1303  0.0568
 5329TIP3    H137402   2.322   3.487  16.214 -0.1006 -1.6170 -0.5528
 5329TIP3    H237403   2.450   3.411  16.240  0.2716 -0.1699  2.2344
 5330TIP3   OH237404   0.588   5.835  16.823 -0.2107  0.3349 -0.2789
 5330TIP3    H137405   0.629   5.876  16.747  0.1485 -0.8895 -0.7662
 5330TIP3    H237406   0.647   5.763  16.846 -1.7619 -1.1103 -0.6177
 5331TIP3   OH237407   3.033   4.745  13.872 -0.4883 -0.2989 -0.5197
 5331TIP3    H137408   2.972   4.816  13.892 -0.4028  0.4141 -2.5210
 5331TIP3    H237409   3.120   4.782  13.888 -0.4109  0.3353 -2.2342
 5332TIP3   OH237410   3.776   0.478  11.181 -0.2506  0.9606 -0.0384
 5332TIP3    H137411   3.831   0.401  11.193  1.9684  2.2845 -0.9914
 5332TIP3    H237412   3.729   0.461  11.099  2.0563  1.5120 -1.5971
 5333TIP3   OH237413   5.419   0.021   1.788 -0.5381 -0.0303 -0.1454
 5333TIP3    H137414   5.458   0.031   1.702 -3.1354  0.4469 -1.3434
 5333TIP3    H237415   5.433   0.106   1.831 -0.9337  0.4035 -0.8600
 5334TIP3   OH237416   5.079   1.245   3.361 -0.7340  0.2272  0.3116
 5334TIP3    H137417   5.156   1.259   3.417  0.5203 -1.3788 -0.9026
 5334TIP3    H237418   5.028   1.325   3.370  1.8122  2.0242  0.0529
 5335TIP3   OH237419   1.178   1.628   3.855 -0.3160 -0.7644 -0.0990
 5335TIP3    H137420   1.083   1.622   3.868 -0.6040  2.4284  0.1072
 5335TIP3    H237421   1.214   1.636   3.943 -0.3023  1.6625 -0.2592
 5336TIP3   OH237422   1.084   3.424   1.868 -0.2369 -0.2050  0.2827
 5336TIP3    H137423   1.046   3.492   1.813 -0.2039 -0.4420 -0.0365
 5336TIP3    H237424   1.072   3.456   1.957 -1.7049 -0.5295  0.2307
 5337TIP3   OH237425   6.600   0.935  11.942 -0.5227 -0.4144  0.1828
 5337TIP3    H137426   6.560   0.998  11.883 -0.0654 -0.0037  0.3088
 5337TIP3    H237427   6.546   0.856  11.932 -1.8678  0.3647  0.9714
 5338TIP3   OH237428   1.960   3.397  11.140 -0.0773 -0.8485 -0.1099
 5338TIP3    H137429   2.009   3.343  11.078 -0.3175 -0.9783 -0.1868
 5338TIP3    H237430   2.017   3.403  11.216  0.2954 -0.5494 -0.4028
 5339TIP3   OH237431   2.319   6.752  12.624 -0.1096  0.2946 -0.0051
 5339TIP3    H137432   2.312   6.803  12.704  2.4798  0.9624 -0.1275
 5339TIP3    H237433   2.315   6.816  12.553 -0.0170 -0.0259 -0.3077
 5340TIP3   OH237434   5.878   0.713   0.763 -1.2350 -0.3220 -0.5796
 5340TIP3    H137435   5.815   0.774   0.726 -0.1493  0.9446 -0.4086
 5340TIP3    H237436   5.877   0.731   0.857 -1.3448 -0.9984 -0.4460
 5341TIP3   OH237437   3.545   4.687  15.278  0.1599  0.8263  0.0030
 5341TIP3    H137438   3.573   4.767  15.233  0.2264 -0.1858 -1.8801
 5341TIP3    H237439   3.504   4.717  15.359 -0.2054  2.7902 -0.8666
 5342TIP3   OH237440   6.625   4.715   3.551 -0.3977  0.1536  0.0029
 5342TIP3    H137441   6.591   4.645   3.495  0.9383  1.2430 -2.3283
 5342TIP3    H237442   6.719   4.698   3.556 -0.2425  1.0825  0.4286
 5343TIP3   OH237443   3.148   4.324   0.408 -0.4874 -0.3044 -0.1914
 5343TIP3    H137444   3.087   4.251   0.421 -0.8535  0.1722  0.7993
 5343TIP3    H237445   3.169   4.354   0.496 -0.5129  0.9312 -0.5943
 5344TIP3   OH237446   3.397   5.541  15.841 -0.6255  0.4545 -0.4531
 5344TIP3    H137447   3.325   5.478  15.840  1.6957 -2.4334 -2.7206
 5344TIP3    H237448   3.402   5.573  15.751  0.3123  1.4705 -0.0660
 5345TIP3   OH237449   1.835   3.234   1.315  0.6007  0.4772 -0.4596
 5345TIP3    H137450   1.930   3.243   1.329  0.3992  1.2872  0.4798
 5345TIP3    H237451   1.796   3.289   1.382 -0.5724 -0.7250 -0.1078
 5346TIP3   OH237452   0.392   4.651  13.457 -0.3116  0.7136 -0.0488
 5346TIP3    H137453   0.326   4.602  13.408  0.6908 -0.7603 -0.0144
 5346TIP3    H237454   0.418   4.722  13.398 -1.3931  0.8800 -0.3402
 5347TIP3   OH237455   2.911   3.450   5.009 -0.0481 -0.0870 -0.4474
 5347TIP3    H137456   3.006   3.442   5.018  0.1480  0.2352 -1.8942
 5347TIP3    H237457   2.899   3.522   4.947 -1.2504 -0.0027 -0.1363
 5348TIP3   OH237458   5.978   6.281  16.281  0.2568 -0.3050 -0.2529
 5348TIP3    H137459   6.030   6.346  16.233 -1.1348  1.3305  0.3317
 5348TIP3    H237460   6.005   6.292  16.372  0.1763 -0.7248 -0.1766
 5349TIP3   OH237461   4.177   0.269  14.028  0.4613  0.4506 -0.1343
 5349TIP3    H137462   4.247   0.278  14.093 -0.0278  2.3261  0.1803
 5349TIP3    H237463   4.117   0.340  14.048 -1.8005 -1.3499 -0.1321
 5350TIP3   OH237464   3.305   2.256  13.753 -0.0449 -0.2465  0.2633
 5350TIP3    H137465   3.367   2.185  13.771 -0.1161 -0.5666 -0.7331
 5350TIP3    H237466   3.258   2.228  13.675 -0.6254  0.5406  0.3218
 5351TIP3   OH237467   2.937   3.709   1.746 -0.1063 -0.0564  0.2764
 5351TIP3    H137468   2.929   3.643   1.677 -2.5550 -0.5102  0.9179
 5351TIP3    H237469   2.999   3.773   1.711  1.0080 -1.7934 -1.0825
 5352TIP3   OH237470   6.783   2.090  12.442 -0.4231 -0.0802  0.0702
 5352TIP3    H137471   6.820   2.122  12.360 -0.7771 -1.9163 -0.8646
 5352TIP3    H237472   6.725   2.018  12.416 -2.6735  1.0339  1.7255
 5353TIP3   OH237473   3.300   5.681   4.070 -0.0900  0.1874  0.3525
 5353TIP3    H137474   3.216   5.636   4.057 -0.7790  1.2666  0.8666
 5353TIP3    H237475   3.310   5.685   4.165  0.2876  0.4971  0.3016
 5354TIP3   OH237476   3.600   2.133  16.061  0.0117  0.1759 -0.3588
 5354TIP3    H137477   3.520   2.184  16.069 -1.0043 -1.2503 -0.8657
 5354TIP3    H237478   3.628   2.146  15.970  0.6126  1.0207 -0.0587
 5355TIP3   OH237479   1.577   5.092  12.152 -0.2722 -0.5405 -0.3189
 5355TIP3    H137480   1.655   5.054  12.112  1.3158  1.4284  0.6911
 5355TIP3    H237481   1.588   5.187  12.140 -1.6877 -0.1172  1.3003
 5356TIP3   OH237482   1.886   3.181  15.346 -0.1648 -0.1795 -0.0062
 5356TIP3    H137483   1.872   3.121  15.419  0.7213 -0.8543 -0.3804
 5356TIP3    H237484   1.924   3.127  15.277 -1.8091  0.2477 -1.3073
 5357TIP3   OH237485   5.925   2.871   1.023  0.4078 -0.6178 -0.3105
 5357TIP3    H137486   5.939   2.787   1.066 -0.3568 -0.7608 -0.3174
 5357TIP3    H237487   5.880   2.925   1.088  0.3509 -0.4223 -0.5087
 5358TIP3   OH237488   3.174   2.434  16.254 -0.1599 -0.0581  0.0429
 5358TIP3    H137489   3.253   2.380  16.250  0.5917  1.0265 -0.1565
 5358TIP3    H237490   3.102   2.371  16.250  0.6220 -0.9442 -3.5298
 5359TIP3   OH237491   5.123   1.294  13.288  0.1372 -0.1754 -0.1184
 5359TIP3    H137492   5.146   1.256  13.373  0.5226 -1.3184 -0.7106
 5359TIP3    H237493   5.110   1.219  13.230 -1.0113  0.5574 -0.8661
 5360TIP3   OH237494   0.505   0.483   0.122  0.3199 -0.5867  0.1140
 5360TIP3    H137495   0.435   0.547   0.125 -0.4248 -1.4023  0.4623
 5360TIP3    H237496   0.568   0.511   0.189 -0.0309 -0.2595  0.3038
 5361TIP3   OH237497   4.154   6.442  12.321 -0.2601 -0.3879  0.1567
 5361TIP3    H137498   4.090   6.512  12.315 -0.2659 -0.5188 -4.7832
 5361TIP3    H237499   4.238   6.487  12.329 -0.5284 -0.0561  1.3398
 5362TIP3   OH237500   4.966   4.476   5.519 -0.3666  0.3988 -0.1766
 5362TIP3    H137501   4.994   4.390   5.490 -0.5559 -0.2084  1.3379
 5362TIP3    H237502   5.047   4.525   5.533 -0.1453 -0.2544  0.9871
 5363TIP3   OH237503   5.132   1.375  10.594  0.6251  0.1203 -0.7738
 5363TIP3    H137504   5.163   1.329  10.516 -0.1273 -0.2404 -0.8664
 5363TIP3    H237505   5.068   1.315  10.633  1.2870  0.1134  0.3425
 5364TIP3   OH237506   3.458   2.798  11.633 -0.2119 -0.1116  0.2571
 5364TIP3    H137507   3.516   2.866  11.668  1.1027 -0.1663 -1.7107
 5364TIP3    H237508   3.393   2.846  11.582  0.7282 -0.2773 -1.1494
 5365TIP3   OH237509   0.444   1.303   0.446  0.4177  0.2789  0.1455
 5365TIP3    H137510   0.431   1.396   0.431 -2.2027 -0.3059 -1.9394
 5365TIP3    H237511   0.539   1.292   0.453  0.7751  3.0838  0.6329
 5366TIP3   OH237512   6.482   0.100  13.493 -0.4815 -0.1376 -0.2138
 5366TIP3    H137513   6.551   0.065  13.438 -0.2927 -0.1100  0.0048
 5366TIP3    H237514   6.515   0.090  13.583  0.8375  3.1803 -0.2009
 5367TIP3   OH237515   0.625   5.715   5.882 -0.0684 -0.1044 -0.3075
 5367TIP3    H137516   0.554   5.769   5.917  0.8564  0.8445  0.1543
 5367TIP3    H237517   0.657   5.765   5.806 -1.0742 -1.4171 -1.6450
 5368TIP3   OH237518   4.926   4.187   3.210 -0.4567 -0.0469 -0.1109
 5368TIP3    H137519   4.891   4.124   3.273 -0.5505 -1.2223 -1.2947
 5368TIP3    H237520   5.018   4.196   3.234 -0.0030 -1.9845 -0.9396
 5369TIP3   OH237521   2.368   0.929  11.020 -0.2245 -0.1351  0.0003
 5369TIP3    H137522   2.382   0.881  10.938 -1.7908 -0.4661 -0.1004
 5369TIP3    H237523   2.427   0.888  11.082 -0.0137 -0.7899 -0.6187
 5370TIP3   OH237524   3.995   4.964   2.849  0.2080 -0.0861 -0.2193
 5370TIP3    H137525   3.934   5.036   2.867  0.4747  0.6826 -2.1754
 5370TIP3    H237526   3.976   4.899   2.917 -2.2955  0.4325 -0.3407
 5371TIP3   OH237527   1.480   3.409   3.614  0.3765  0.1059 -0.2590
 5371TIP3    H137528   1.437   3.432   3.532  0.1433 -2.3473 -0.8876
 5371TIP3    H237529   1.408   3.381   3.671  0.6761  0.6346  0.4035
 5372TIP3   OH237530   0.922   4.239  15.970  0.2813  0.1058  0.2070
 5372TIP3    H137531   0.879   4.155  15.984  1.1402 -0.2898  0.5122
 5372TIP3    H237532   0.864   4.285  15.909 -0.4773 -0.4791  0.4598
 5373TIP3   OH237533   1.534   3.451   1.220 -0.1002  0.0627 -0.1613
 5373TIP3    H137534   1.535   3.461   1.316  0.2638  0.7852 -0.2370
 5373TIP3    H237535   1.502   3.535   1.188 -0.1688 -0.1617 -0.6784
 5374TIP3   OH237536   4.289   6.634  16.501 -0.0804 -0.1031  0.2970
 5374TIP3    H137537   4.232   6.710  16.514  1.8356  1.7185 -1.1673
 5374TIP3    H237538   4.328   6.618  16.587  1.4274  2.3020  0.1408
 5375TIP3   OH237539   2.525   4.344  14.794  0.1457 -0.1482 -0.2023
 5375TIP3    H137540   2.460   4.403  14.755 -0.9194 -0.2919  1.2722
 5375TIP3    H237541   2.607   4.366  14.749 -0.3571  1.9572 -0.1989
 5376TIP3   OH237542   5.090   3.322   2.075 -0.6657  0.4053 -0.4694
 5376TIP3    H137543   5.058   3.394   2.129  0.8213 -0.1877  1.3181
 5376TIP3    H237544   5.136   3.365   2.003 -0.5355  1.2337  0.0906
 5377TIP3   OH237545   6.763   6.140  15.871  0.0060 -0.3045  0.1106
 5377TIP3    H137546   6.757   6.109  15.961 -1.6104  0.8587  0.4586
 5377TIP3    H237547   6.768   6.061  15.818  0.6567 -1.0133  1.2062
 5378TIP3   OH237548   2.669   1.570  17.079  0.2687  0.1777 -0.3360
 5378TIP3    H137549   2.629   1.519  17.149 -0.7952  1.7826  0.2766
 5378TIP3    H237550   2.735   1.624  17.123  1.5194 -0.7578 -1.0016
 5379TIP3   OH237551   4.393   3.156   1.973  0.2159 -0.1316 -0.2858
 5379TIP3    H137552   4.447   3.148   1.895 -0.2615 -2.6193 -0.4347
 5379TIP3    H237553   4.455   3.170   2.044  0.9612 -1.2623 -0.6844
 5380TIP3   OH237554   3.691   2.122   4.403 -0.1194  0.0517 -0.0663
 5380TIP3    H137555   3.630   2.121   4.477  0.1780  0.3301  0.1890
 5380TIP3    H237556   3.734   2.207   4.410 -1.0932  0.6924 -1.3980
 5381TIP3   OH237557   5.785   3.152  11.126  0.1215 -0.0352  0.0853
 5381TIP3    H137558   5.708   3.207  11.113 -1.6498 -2.0922  1.1114
 5381TIP3    H237559   5.750   3.070  11.163  2.6197 -1.6887 -0.9290
 5382TIP3   OH237560   3.543   2.652  12.493 -0.0443 -0.3562 -0.5880
 5382TIP3    H137561   3.456   2.688  12.509 -0.8199 -2.3209 -0.0912
 5382TIP3    H237562   3.580   2.639  12.580  2.3032  3.7628 -0.7440
 5383TIP3   OH237563   4.730   4.607  13.546  0.0523 -0.1644  0.1510
 5383TIP3    H137564   4.714   4.695  13.513 -0.8571 -0.4696 -0.2340
 5383TIP3    H237565   4.689   4.606  13.633  1.6716  0.3546  0.9831
 5384TIP3   OH237566   1.619   1.717   2.265 -0.7301  0.2425 -0.2179
 5384TIP3    H137567   1.687   1.660   2.231 -0.2866  0.6382 -0.0076
 5384TIP3    H237568   1.621   1.794   2.207 -0.4440  0.6107  0.2749
 5385TIP3   OH237569   3.236   4.061  10.549  0.2856  0.0370  0.7581
 5385TIP3    H137570   3.329   4.040  10.542  0.1956  0.0254 -0.8103
 5385TIP3    H237571   3.234   4.151  10.583  1.0151  1.1421 -1.8684
 5386TIP3   OH237572   6.400   3.245  15.231  0.2034 -0.7758 -0.2455
 5386TIP3    H137573   6.316   3.199  15.233  0.1932 -0.9349 -2.3184
 5386TIP3    H237574   6.465   3.176  15.216  0.3820 -0.3577 -1.5146
 5387TIP3   OH237575   1.809   2.338  14.193  0.7955  0.4020  0.1487
 5387TIP3    H137576   1.753   2.344  14.270  0.4034  1.9783 -0.2081
 5387TIP3    H237577   1.813   2.245  14.172 -3.0923  0.2839 -0.7956
 5388TIP3   OH237578   1.921   5.518  11.557 -0.2070  0.4960 -0.6514
 5388TIP3    H137579   1.934   5.461  11.482  1.0084  0.5043 -0.4712
 5388TIP3    H237580   1.827   5.512  11.577 -0.4893  0.2893 -1.9917
 5389TIP3   OH237581   3.611   3.061   4.528  0.2314  0.4790  0.1077
 5389TIP3    H137582   3.679   3.120   4.561  0.8750 -0.5055  0.5883
 5389TIP3    H237583   3.575   3.106   4.452  2.3383  0.4419 -0.9822
 5390TIP3   OH237584   6.502   2.585   3.174  0.6933 -0.2020 -0.6486
 5390TIP3    H137585   6.524   2.677   3.161 -0.9617  0.4151  0.4940
 5390TIP3    H237586   6.571   2.551   3.231  0.7503  0.6442 -0.1999
 5391TIP3   OH237587   4.428   4.897   1.247 -0.2383 -0.2077 -0.2688
 5391TIP3    H137588   4.429   4.840   1.324 -3.1608  1.7307  1.3864
 5391TIP3    H237589   4.348   4.875   1.201  0.8064 -0.3989 -2.0767
 5392TIP3   OH237590   5.543   6.358  16.299  0.1548 -0.0082 -0.0968
 5392TIP3    H137591   5.587   6.280  16.266 -0.3737 -0.0730 -0.6597
 5392TIP3    H237592   5.614   6.412  16.335  0.6330 -0.3337 -0.5387
 5393TIP3   OH237593   3.033   1.554  14.724 -0.3043  0.4895  0.4472
 5393TIP3    H137594   3.109   1.496  14.714  1.0329  1.6860  2.9495
 5393TIP3    H237595   3.027   1.600  14.640  0.5145 -0.9821 -0.4626
 5394TIP3   OH237596   1.695   0.120  11.299  0.0210 -0.0267  0.2197
 5394TIP3    H137597   1.603   0.134  11.322  0.4188 -0.0706  1.9535
 5394TIP3    H237598   1.740   0.114  11.383  1.3520 -1.7902 -0.5623
 5395TIP3   OH237599   4.056   4.375   5.216 -0.5045  0.7891  0.4099
 5395TIP3    H137600   4.105   4.434   5.158 -2.2066  0.2678 -1.7016
 5395TIP3    H237601   4.122   4.317   5.253  0.6294  0.8831 -1.3635
 5396TIP3   OH237602   4.644   4.721   1.166  0.1891  0.1391  0.0065
 5396TIP3    H137603   4.564   4.727   1.114 -2.3409 -1.9447  3.1979
 5396TIP3    H237604   4.666   4.812   1.187 -1.3099  0.7761 -1.0139
 5397TIP3   OH237605   5.343   0.778  13.749 -0.4568  0.8484  0.1717
 5397TIP3    H137606   5.262   0.729  13.762  0.9872 -1.2858  1.9038
 5397TIP3    H237607   5.338   0.809  13.659 -2.4189 -0.7431 -0.3449
 5398TIP3   OH237608   3.099   6.403   5.485  0.8470  0.2862  0.0747
 5398TIP3    H137609   3.037   6.460   5.439 -0.5662 -0.9959  0.2962
 5398TIP3    H237610   3.098   6.435   5.575  2.3413  1.7453 -0.3886
 5399TIP3   OH237611   1.343   3.623  17.064 -1.1726  0.2332 -0.3070
 5399TIP3    H137612   1.403   3.573  17.009 -0.6601  0.1918  0.2628
 5399TIP3    H237613   1.340   3.573  17.146 -0.8525  0.9851  0.1789
 5400TIP3   OH237614   5.220   5.116  14.136  0.2491 -0.0532 -0.5403
 5400TIP3    H137615   5.213   5.026  14.167  1.3032  0.1264  0.2505
 5400TIP3    H237616   5.290   5.155  14.188 -1.5412  1.8617  0.6250
 5401TIP3   OH237617   3.123   1.449   0.161  0.2226 -0.1049  0.1928
 5401TIP3    H137618   3.215   1.470   0.177  0.5453 -0.2930 -1.2475
 5401TIP3    H237619   3.096   1.509   0.091 -0.3670 -0.9021 -0.2868
 5402TIP3   OH237620   4.439   2.253   6.149 -0.1866  0.2732  0.0321
 5402TIP3    H137621   4.396   2.298   6.077  0.6416  1.3647  0.1916
 5402TIP3    H237622   4.443   2.161   6.122 -3.6289 -0.1450  0.5273
 5403TIP3   OH237623   3.188   6.202  13.824 -0.1807 -0.2595 -0.0737
 5403TIP3    H137624   3.185   6.296  13.841  0.1521 -0.2364 -0.1371
 5403TIP3    H237625   3.114   6.166  13.873 -1.3810  0.2434 -1.4439
 5404TIP3   OH237626   5.494   3.694  10.950  0.5258 -0.1343  0.2787
 5404TIP3    H137627   5.408   3.675  10.988  0.7821 -1.1598  0.3579
 5404TIP3    H237628   5.475   3.713  10.858  0.2645 -0.9008  0.1638
 5405TIP3   OH237629   1.711   5.501  13.814 -0.0582  0.2249 -0.6895
 5405TIP3    H137630   1.787   5.450  13.843  1.1262  0.7109 -2.7899
 5405TIP3    H237631   1.748   5.576  13.769 -1.8130  0.8610 -1.1335
 5406TIP3   OH237632   2.924   1.516  16.197  0.8646 -0.4452 -0.1897
 5406TIP3    H137633   2.999   1.520  16.255  1.5941  0.9937 -1.1613
 5406TIP3    H237634   2.918   1.425  16.171  1.0634 -0.9434  1.4162
 5407TIP3   OH237635   0.657   4.853  14.426 -0.3964  0.4603 -0.6204
 5407TIP3    H137636   0.614   4.936  14.406 -2.7492 -0.6546 -0.5807
 5407TIP3    H237637   0.679   4.815  14.341 -0.9416  0.3362 -0.7063
 5408TIP3   OH237638   5.156   4.527  15.220 -0.2060 -0.0113 -0.4183
 5408TIP3    H137639   5.231   4.572  15.260 -0.8963  0.7242  0.0862
 5408TIP3    H237640   5.080   4.579  15.247 -0.8356 -0.3413 -1.5069
 5409TIP3   OH237641   0.179   5.251  12.744  0.0752  0.1355 -0.2091
 5409TIP3    H137642   0.105   5.203  12.709  1.8460 -1.5462 -1.8757
 5409TIP3    H237643   0.144   5.338  12.765 -2.8860 -1.3205  1.4494
 5410TIP3   OH237644   0.748   5.712  15.574  0.2921 -0.0666 -0.3925
 5410TIP3    H137645   0.669   5.673  15.611 -1.1864  1.4704 -1.7266
 5410TIP3    H237646   0.795   5.749  15.649 -1.2530  0.6490  0.2704
 5411TIP3   OH237647   5.629   1.798   2.235 -0.2497 -0.5733 -0.3013
 5411TIP3    H137648   5.612   1.802   2.141 -0.5797  1.8688 -0.2075
 5411TIP3    H237649   5.663   1.885   2.257  1.4218 -1.6166  1.5707
 5412TIP3   OH237650   2.587   6.056  14.626 -0.3823  0.5753  0.6442
 5412TIP3    H137651   2.639   6.055  14.546 -1.5626 -0.1744 -0.1545
 5412TIP3    H237652   2.624   5.987  14.680 -1.0151 -0.4948 -0.2535
 5413TIP3   OH237653   2.878   5.936   5.901  0.7304  0.8448 -0.3781
 5413TIP3    H137654   2.824   5.997   5.951 -0.2848 -0.2572 -0.1086
 5413TIP3    H237655   2.904   5.986   5.823  0.8373  1.9728  0.3462
 5414TIP3   OH237656   2.039   1.023  13.199  0.7717  0.2992  0.0302
 5414TIP3    H137657   1.953   1.009  13.159  1.1362  0.1881 -0.7242
 5414TIP3    H237658   2.083   0.938  13.194  0.8765  0.3130  0.5634
 5415TIP3   OH237659   2.697   3.151  16.692  0.2128  0.2533  0.0781
 5415TIP3    H137660   2.767   3.127  16.753  0.2045 -0.9850 -0.3712
 5415TIP3    H237661   2.683   3.244  16.708  1.5895  0.4109  0.5645
 5416TIP3   OH237662   5.738   6.133   0.162 -0.2322  0.5469  0.3758
 5416TIP3    H137663   5.707   6.042   0.169  1.4912 -0.1184 -0.1588
 5416TIP3    H237664   5.833   6.127   0.172  0.3508  1.8389 -3.0443
 5417TIP3   OH237665   5.997   0.146   3.575 -0.0405 -0.0424 -0.0072
 5417TIP3    H137666   5.915   0.175   3.535 -0.4956  0.8488  1.4701
 5417TIP3    H237667   6.024   0.219   3.630  0.6702 -1.0912  1.1000
 5418TIP3   OH237668   2.245   1.681   0.694  0.3924 -0.0203 -0.1152
 5418TIP3    H137669   2.217   1.639   0.614  0.4742  0.7218 -0.5406
 5418TIP3    H237670   2.331   1.719   0.673  0.2460  0.5014  0.2039
 5419TIP3   OH237671   6.616   3.134   1.886 -0.6952  0.0222  0.5084
 5419TIP3    H137672   6.595   3.052   1.930  2.0428 -0.5469  0.9707
 5419TIP3    H237673   6.583   3.202   1.945 -0.0800 -0.7498  1.7885
 5420TIP3   OH237674   5.919   0.411  13.812  0.1963  0.1372  0.1552
 5420TIP3    H137675   5.896   0.461  13.890 -1.9585  0.7064 -0.7565
 5420TIP3    H237676   5.843   0.422  13.753  1.6491 -0.4037 -1.9494
 5421TIP3   OH237677   1.701   2.556   5.554 -0.0636  0.5397  0.3709
 5421TIP3    H137678   1.748   2.477   5.581 -0.9761 -0.1996 -0.1366
 5421TIP3    H237679   1.609   2.535   5.567 -0.3051  1.7532  0.7973
 5422TIP3   OH237680   4.392   6.178   2.000 -0.3038  0.0247  0.1526
 5422TIP3    H137681   4.299   6.200   2.004 -0.2768 -0.0344  1.3438
 5422TIP3    H237682   4.423   6.220   1.919 -2.0386 -2.7341 -2.1441
 5423TIP3   OH237683   4.582   3.457  11.415 -0.4176 -0.3981  0.1076
 5423TIP3    H137684   4.505   3.400  11.416 -1.1121  0.4883 -0.7964
 5423TIP3    H237685   4.547   3.546  11.418  0.6519  0.0195  1.5138
 5424TIP3   OH237686   6.124   6.530   5.225  0.1825  0.1716 -0.3870
 5424TIP3    H137687   6.119   6.460   5.290  2.5726  1.1708  1.0220
 5424TIP3    H237688   6.108   6.487   5.141 -1.0831 -1.5255  0.6695
 5425TIP3   OH237689   0.671   6.270  12.485 -0.6401  0.3930 -0.2206
 5425TIP3    H137690   0.622   6.298  12.408 -0.1893  1.8166 -0.0160
 5425TIP3    H237691   0.659   6.341  12.548  0.9532  0.3730  0.1480
 5426TIP3   OH237692   4.441   3.312  16.658 -0.5985 -0.4170  0.1848
 5426TIP3    H137693   4.517   3.274  16.614 -0.8211 -1.3317  0.5752
 5426TIP3    H237694   4.406   3.375  16.595  0.8652  0.5072  0.2607
 5427TIP3   OH237695   1.581   2.233   1.215  0.1708  0.0264 -0.2974
 5427TIP3    H137696   1.636   2.218   1.292 -0.7869  0.7158  0.5558
 5427TIP3    H237697   1.619   2.309   1.172 -0.1507  0.5527  0.3370
 5428TIP3   OH237698   4.232   2.177   0.272 -0.2248 -0.0571 -0.2814
 5428TIP3    H137699   4.236   2.170   0.177 -0.8683 -1.6276 -0.2213
 5428TIP3    H237700   4.274   2.097   0.304 -0.1848  0.3632  0.7546
 5429TIP3   OH237701   6.353   5.384   2.605  0.2650  0.1153  0.0579
 5429TIP3    H137702   6.409   5.332   2.548  0.0346 -1.6701  1.3954
 5429TIP3    H237703   6.323   5.456   2.549  1.2615 -0.7026 -1.6081
 5430TIP3   OH237704   5.519   4.367   3.258  0.3442  0.1463  0.3306
 5430TIP3    H137705   5.463   4.371   3.335 -0.7984 -1.5467 -0.3552
 5430TIP3    H237706   5.464   4.403   3.187  1.0453  0.8103  0.1090
 5431TIP3   OH237707   1.413   5.547   2.996  0.1740 -0.2626  0.3050
 5431TIP3    H137708   1.480   5.485   3.024 -0.3742 -0.1520  1.9457
 5431TIP3    H237709   1.333   5.518   3.040 -0.4496  0.6631 -0.1752
 5432TIP3   OH237710   5.342   6.231   4.412  0.9976 -0.0337  0.4212
 5432TIP3    H137711   5.391   6.158   4.374 -0.0040 -0.6342  0.2465
 5432TIP3    H237712   5.286   6.190   4.478 -0.2546  0.4258 -0.3295
 5433TIP3   OH237713   5.138   5.267   1.499  0.2786  0.3726 -0.0521
 5433TIP3    H137714   5.051   5.275   1.537 -0.2093  0.4286 -1.1432
 5433TIP3    H237715   5.128   5.296   1.408  1.2119 -0.5627 -0.4850
 5434TIP3   OH237716   5.909   3.981   2.149 -0.3188  0.9940 -0.3939
 5434TIP3    H137717   5.937   3.984   2.058  1.1866  0.6779  0.0306
 5434TIP3    H237718   5.909   4.073   2.177  1.2541  0.9512 -0.1581
 5435TIP3   OH237719   2.774   1.782  13.371 -0.5305  0.5715  0.3369
 5435TIP3    H137720   2.737   1.847  13.431  0.1140 -0.0733  1.4821
 5435TIP3    H237721   2.725   1.702  13.389 -0.1189  0.2925  0.2332
 5436TIP3   OH237722   6.700   1.780  12.577  0.1047 -0.1047 -0.2336
 5436TIP3    H137723   6.644   1.833  12.520  1.1186 -1.1026 -2.2427
 5436TIP3    H237724   6.638   1.729  12.630 -0.9078 -0.2501 -1.5009
 5437TIP3   OH237725   4.198   3.123   0.612 -0.9484  0.1688 -0.3381
 5437TIP3    H137726   4.132   3.156   0.673 -0.1803  1.3448 -0.1078
 5437TIP3    H237727   4.278   3.171   0.635  0.0788 -1.4471 -0.4109
 5438TIP3   OH237728   2.037   4.736  14.768 -0.0774  0.0409  0.0030
 5438TIP3    H137729   2.104   4.800  14.794 -0.8552  0.3335  1.3857
 5438TIP3    H237730   2.000   4.705  14.851 -0.3948 -1.4910 -0.6758
 5439TIP3   OH237731   5.701   0.817   1.275  0.0044  0.0016 -0.4935
 5439TIP3    H137732   5.653   0.797   1.356 -2.2203  0.9216 -1.4852
 5439TIP3    H237733   5.784   0.772   1.284  0.3693  1.0662  2.8475
 5440TIP3   OH237734   6.054   3.754  13.892  0.2101 -0.4585 -0.9650
 5440TIP3    H137735   6.110   3.686  13.853  0.5253 -0.1792 -1.0079
 5440TIP3    H237736   6.049   3.822  13.824  0.1641 -0.2936 -0.7962
 5441TIP3   OH237737   0.624   2.081   1.394 -0.4565 -0.1657 -0.4143
 5441TIP3    H137738   0.538   2.090   1.352 -1.4653 -1.2847  1.3231
 5441TIP3    H237739   0.675   2.030   1.331 -0.7841  1.1060 -1.7884
 5442TIP3   OH237740   5.566   0.147  14.809  0.0679 -0.3029  0.2253
 5442TIP3    H137741   5.488   0.188  14.772  1.9416  2.7717 -0.7302
 5442TIP3    H237742   5.565   0.171  14.901  0.5096  0.9372 -0.0692
 5443TIP3   OH237743   5.172   3.328   3.771  0.0289 -0.3607  0.2387
 5443TIP3    H137744   5.186   3.381   3.850 -1.9878  1.4796 -0.5151
 5443TIP3    H237745   5.135   3.246   3.803 -0.3404  0.1816  1.2470
 5444TIP3   OH237746   0.031   2.456   4.436 -0.5570  0.5752 -0.1496
 5444TIP3    H137747  -0.029   2.383   4.451 -2.2245  2.1130  1.1196
 5444TIP3    H237748  -0.025   2.534   4.435  1.1649  1.8889 -1.2727
 5445TIP3   OH237749   5.914   3.971   4.061  0.1607 -0.1590  0.6933
 5445TIP3    H137750   5.872   3.988   3.977  0.8860  0.6778  0.4830
 5445TIP3    H237751   5.983   4.037   4.067 -1.0030  0.9719  2.7560
 5446TIP3   OH237752   4.104   2.833   1.305 -0.2062 -0.1260 -0.1652
 5446TIP3    H137753   4.143   2.757   1.348 -0.6332 -0.4149 -0.2832
 5446TIP3    H237754   4.077   2.890   1.377  0.3157  0.0224 -0.0802
 5447TIP3   OH237755   3.694   0.994   5.442 -0.3566  0.2022 -0.3296
 5447TIP3    H137756   3.777   0.947   5.436 -0.7056 -0.2705 -1.7102
 5447TIP3    H237757   3.657   0.967   5.527 -1.4539 -3.5981 -1.7987
 5448TIP3   OH237758   3.587   2.790   2.001 -0.8233 -0.3967  0.4409
 5448TIP3    H137759   3.630   2.873   1.981 -2.1237  0.2224  0.0394
 5448TIP3    H237760   3.535   2.807   2.079  1.7450 -1.9235  2.6436
 5449TIP3   OH237761   0.784   4.169  12.754 -0.4115 -0.3545  0.6412
 5449TIP3    H137762   0.818   4.089  12.714  0.4728  0.5344 -0.4805
 5449TIP3    H237763   0.708   4.191  12.701 -0.5006 -0.3205  0.7846
 5450TIP3   OH237764   5.219   2.175  10.890 -0.0401  1.0641  0.0576
 5450TIP3    H137765   5.247   2.242  10.827 -0.8217  0.8561 -0.5237
 5450TIP3    H237766   5.123   2.175  10.885 -0.0950  0.7026  0.8959
 5451TIP3   OH237767   0.893   3.792  10.990  0.1827  0.2514 -0.0405
 5451TIP3    H137768   0.849   3.775  10.907  1.5949  0.9563 -0.9657
 5451TIP3    H237769   0.835   3.853  11.036 -0.1751  0.5710 -0.8959
 5452TIP3   OH237770   0.387   1.705  15.252 -0.3925  0.0375 -0.4750
 5452TIP3    H137771   0.352   1.787  15.216 -2.0500 -1.1400 -1.7411
 5452TIP3    H237772   0.464   1.687  15.199  0.4883  1.1612  0.3675
 5453TIP3   OH237773   4.715   2.467   2.162  0.0825  0.1702 -0.2858
 5453TIP3    H137774   4.760   2.527   2.103  1.1293  0.3659  0.6810
 5453TIP3    H237775   4.659   2.414   2.105 -0.6994  1.8857 -1.1856
 5454TIP3   OH237776   3.936   1.816  12.666  0.0468 -0.0776 -0.0923
 5454TIP3    H137777   3.912   1.806  12.574  0.4143 -0.2256 -0.1725
 5454TIP3    H237778   4.029   1.837  12.665 -0.1420  0.8063  0.2061
 5455TIP3   OH237779   1.387   6.251   4.076  0.8931  0.6480 -0.2602
 5455TIP3    H137780   1.308   6.207   4.045 -0.0799 -0.0711  2.8441
 5455TIP3    H237781   1.394   6.329   4.021 -1.9916  0.7427 -0.6424
 5456TIP3   OH237782   2.860   0.299  14.958 -0.1143  0.2099  0.0874
 5456TIP3    H137783   2.945   0.256  14.945 -0.0269 -0.4074  2.2661
 5456TIP3    H237784   2.797   0.228  14.955 -0.4596  0.5439 -0.6127
 5457TIP3   OH237785   5.144   3.641  12.960 -0.5371 -0.5642 -0.3989
 5457TIP3    H137786   5.145   3.549  12.934 -0.2879 -0.2302 -1.6286
 5457TIP3    H237787   5.169   3.689  12.881  2.0808  0.4233  0.9327
 5458TIP3   OH237788   4.340   4.517  13.054  0.0497  0.3049 -0.5784
 5458TIP3    H137789   4.307   4.607  13.061 -0.7889 -0.0283  0.0665
 5458TIP3    H237790   4.267   4.468  13.016 -0.6896 -0.6629  1.8923
 5459TIP3   OH237791   4.788   3.785  16.411 -0.4273 -0.0492 -0.2817
 5459TIP3    H137792   4.771   3.876  16.437  1.3025 -0.0734  1.1244
 5459TIP3    H237793   4.877   3.787  16.376 -0.1568 -1.2903  0.2939
 5460TIP3   OH237794   1.931   4.557  10.614  0.3312 -0.2449  0.4918
 5460TIP3    H137795   1.923   4.651  10.631  0.2192 -0.2985  0.7416
 5460TIP3    H237796   1.860   4.517  10.665  0.5640 -0.4917  0.6270
 5461TIP3   OH237797   4.105   6.453   3.243  0.4436  0.4098  0.3557
 5461TIP3    H137798   4.092   6.388   3.173 -1.2861 -1.7309  2.4854
 5461TIP3    H237799   4.035   6.516   3.230  0.0257 -0.0727  0.2338
 5462TIP3   OH237800   5.899   5.902   3.270 -0.5099  0.5752  1.2156
 5462TIP3    H137801   5.871   5.992   3.256 -0.1239  0.9965  2.9279
 5462TIP3    H237802   5.951   5.905   3.350  0.3062 -1.0175  0.7937
 5463TIP3   OH237803   0.355   5.259  15.478 -0.2610  0.5576 -0.2366
 5463TIP3    H137804   0.430   5.293  15.428 -1.9782  1.4188 -2.4002
 5463TIP3    H237805   0.313   5.198  15.418 -1.6108  0.5016  0.7352
 5464TIP3   OH237806   2.870   4.990   0.188  0.3403 -0.0819  0.0284
 5464TIP3    H137807   2.964   4.973   0.182  0.6958  1.7949 -0.1979
 5464TIP3    H237808   2.853   5.056   0.121 -1.1176 -0.2576  0.1952
 5465TIP3   OH237809   3.441   4.400   5.675  0.6208  0.0565 -0.2892
 5465TIP3    H137810   3.449   4.413   5.581  0.0319 -0.8980 -0.4881
 5465TIP3    H237811   3.502   4.328   5.694  0.2285 -0.2246 -0.0681
 5466TIP3   OH237812   5.179   3.623  11.660  0.1448 -0.4810 -0.1871
 5466TIP3    H137813   5.238   3.565  11.610  2.0225  0.6649  0.5679
 5466TIP3    H237814   5.178   3.585  11.748  1.0246  0.3490  0.1951
 5467TIP3   OH237815   1.905   5.289   4.886 -0.3126 -0.2489  0.6465
 5467TIP3    H137816   1.977   5.229   4.863  0.5866  0.8035  0.6261
 5467TIP3    H237817   1.848   5.290   4.810  0.4303  0.0131  0.0856
 5468TIP3   OH237818   4.743   1.021   6.417 -0.1861 -0.0228 -0.3335
 5468TIP3    H137819   4.816   1.053   6.363  0.6933 -0.2121  0.7065
 5468TIP3    H237820   4.705   1.100   6.455 -0.5676  0.0801 -0.9118
 5469TIP3   OH237821   5.288   4.769  14.369 -0.1497  0.3011  0.0046
 5469TIP3    H137822   5.331   4.701  14.421  1.4453 -0.7098 -2.4331
 5469TIP3    H237823   5.330   4.850  14.397  0.3360 -0.1566  0.6377
 5470TIP3   OH237824   5.617   2.861   4.138  0.0559  0.1065 -0.1758
 5470TIP3    H137825   5.626   2.928   4.206 -1.3306  0.8786 -0.7140
 5470TIP3    H237826   5.672   2.789   4.168  1.7646  1.5570  0.3100
 5471TIP3   OH237827   2.512   5.108  10.615  0.0488 -0.5157 -0.4382
 5471TIP3    H137828   2.493   5.015  10.611 -0.4339 -0.3868 -1.8684
 5471TIP3    H237829   2.429   5.149  10.641  0.8400 -0.6048  2.6216
 5472TIP3   OH237830   2.696   4.995  13.713 -0.6206  0.4506  0.7817
 5472TIP3    H137831   2.704   4.939  13.636  1.4881  1.2476  0.3402
 5472TIP3    H237832   2.617   5.046  13.699  0.4419  1.5738 -1.5990
 5473TIP3   OH237833   1.778   4.836   4.919  0.1545  0.1204  0.4218
 5473TIP3    H137834   1.858   4.866   4.876 -1.4952 -0.8233 -3.7356
 5473TIP3    H237835   1.783   4.741   4.917 -0.1408  0.0343  2.1818
 5474TIP3   OH237836   3.069   4.496   3.433 -0.1972 -0.3585  0.3004
 5474TIP3    H137837   3.129   4.550   3.382  1.0695 -0.8102  1.2637
 5474TIP3    H237838   3.058   4.543   3.516 -1.7529  0.0628 -0.0965
 5475TIP3   OH237839   3.356   5.602  11.800  0.0493  0.5219  0.3144
 5475TIP3    H137840   3.295   5.539  11.839  0.1245  0.7910  0.8702
 5475TIP3    H237841   3.435   5.596  11.854  0.0414  1.1194  0.3918
 5476TIP3   OH237842   5.247   1.038  10.692  0.4475 -0.3649 -0.3305
 5476TIP3    H137843   5.161   1.078  10.682 -0.0866 -0.7840  1.9608
 5476TIP3    H237844   5.243   0.958  10.639 -1.3986 -1.4624  1.3105
 5477TIP3   OH237845   4.274   3.301  13.521 -0.1899 -0.0057  0.2846
 5477TIP3    H137846   4.289   3.332  13.610 -0.4697  0.4831  0.1663
 5477TIP3    H237847   4.259   3.207  13.530  2.3362 -0.4725  0.4812
 5478TIP3   OH237848   5.903   6.011   2.644  0.0957 -0.0913 -0.5920
 5478TIP3    H137849   5.864   5.938   2.596 -0.3413  0.3110 -0.8513
 5478TIP3    H237850   5.830   6.068   2.667  0.3288 -0.1280  0.3141
 5479TIP3   OH237851   2.871   5.291  12.103 -0.0937 -0.2562 -0.0202
 5479TIP3    H137852   2.915   5.299  12.018  2.7073  0.4342  1.3450
 5479TIP3    H237853   2.901   5.207  12.138  0.7238  0.5158  1.2195
 5480TIP3   OH237854   0.206   0.329  13.567 -0.5873  0.4899 -0.3172
 5480TIP3    H137855   0.213   0.246  13.615  1.1759 -0.5096 -2.1409
 5480TIP3    H237856   0.236   0.395  13.629 -1.3571 -0.3069  0.9528
 5481TIP3   OH237857   3.199   6.178  11.832  0.2869  0.1124  0.0007
 5481TIP3    H137858   3.114   6.175  11.788  0.1600  1.6871  0.0755
 5481TIP3    H237859   3.239   6.093  11.812  0.2495  0.7100 -3.1846
 5482TIP3   OH237860   5.925   1.924  11.153  0.1492 -0.0103  0.0923
 5482TIP3    H137861   5.905   1.938  11.060 -0.6501 -1.0801  0.0754
 5482TIP3    H237862   5.983   1.848  11.154 -0.7085 -0.6907  0.5020
 5483TIP3   OH237863   5.771   4.391   1.071 -0.1426  0.1422  0.2391
 5483TIP3    H137864   5.835   4.435   1.127 -0.0467 -0.0681  0.2951
 5483TIP3    H237865   5.707   4.459   1.050 -0.6084  0.0230  1.2339
 5484TIP3   OH237866   6.616   5.747  13.832  0.0599 -0.0992 -0.2608
 5484TIP3    H137867   6.604   5.840  13.852 -0.0222 -0.5952  2.4737
 5484TIP3    H237868   6.550   5.703  13.886  1.0344 -1.8069 -0.4027
 5485TIP3   OH237869   2.693   0.957   1.168 -0.1557 -0.7491  0.6045
 5485TIP3    H137870   2.677   0.881   1.225  1.6927  0.5332  3.0486
 5485TIP3    H237871   2.698   1.031   1.229 -2.4492  1.5310 -1.7040
 5486TIP3   OH237872   5.486   6.620   9.806 -0.2676  0.7493 -0.0068
 5486TIP3    H137873   5.540   6.679   9.753 -0.6539 -0.3063 -1.6491
 5486TIP3    H237874   5.528   6.620   9.892  0.4795  2.3913 -0.3326
 5487TIP3   OH237875   0.291   5.131  12.437 -0.0705  0.1570 -0.5177
 5487TIP3    H137876   0.262   5.072  12.506 -0.8217 -0.2555 -1.1660
 5487TIP3    H237877   0.228   5.118  12.366  0.2709  1.0878 -1.0121
 5488TIP3   OH237878   1.267   3.106   0.136 -0.1014 -0.4197 -0.4217
 5488TIP3    H137879   1.301   3.117   0.047 -1.5422 -0.3036 -0.9907
 5488TIP3    H237880   1.343   3.121   0.192  0.9399 -0.9121 -1.6317
 5489TIP3   OH237881   1.401   5.264   1.418  0.0349  0.2941 -0.4689
 5489TIP3    H137882   1.352   5.193   1.460 -0.4747 -0.8902 -2.8891
 5489TIP3    H237883   1.478   5.277   1.474 -0.2235 -1.7122  0.4275
 5490TIP3   OH237884   1.908   5.788   4.192 -0.1986 -0.3162  0.5321
 5490TIP3    H137885   1.925   5.695   4.209  2.4171  0.1216  0.6796
 5490TIP3    H237886   1.898   5.793   4.097  1.1491 -0.5955  0.3482
 5491TIP3   OH237887   6.052   3.635   6.036 -0.1713  0.2650 -0.2716
 5491TIP3    H137888   6.093   3.711   6.078  2.4128 -0.9387 -0.4143
 5491TIP3    H237889   6.008   3.589   6.107  1.2415  0.0821  0.5249
 5492TIP3   OH237890   1.003   5.105   4.662 -0.5059  0.1441  0.0845
 5492TIP3    H137891   1.021   5.126   4.754 -1.9192  0.0600  0.4070
 5492TIP3    H237892   1.077   5.051   4.635 -0.4704 -0.5464  1.4418
 5493TIP3   OH237893   2.763   2.738  16.483  0.0557  0.1171  0.2726
 5493TIP3    H137894   2.706   2.665  16.457 -0.8171  1.0417 -0.4923
 5493TIP3    H237895   2.838   2.731  16.423 -1.7339  1.9590 -2.4022
 5494TIP3   OH237896   3.017   0.193  14.171 -0.3065  0.0619 -0.1983
 5494TIP3    H137897   2.953   0.209  14.102  2.1719 -1.1447 -3.0002
 5494TIP3    H237898   3.007   0.100  14.191  2.1442 -0.8741 -2.6506
 5495TIP3   OH237899   5.083   4.915  15.270 -0.4028  0.0760 -0.6211
 5495TIP3    H137900   5.127   4.881  15.191  1.6385 -0.4306  0.6362
 5495TIP3    H237901   5.155   4.949  15.324 -1.5385 -0.9348  1.6517
 5496TIP3   OH237902   3.699   0.094   0.991  0.0526 -0.3761 -0.1095
 5496TIP3    H137903   3.635   0.111   1.060 -0.3810  0.5013 -0.7191
 5496TIP3    H237904   3.648   0.091   0.911  0.5872 -1.1872 -0.4337
 5497TIP3   OH237905   5.207   1.632  10.669  0.0845  0.0521  0.7720
 5497TIP3    H137906   5.267   1.645  10.596  0.0792 -0.4274  0.6746
 5497TIP3    H237907   5.157   1.554  10.644 -0.5353  0.4132  0.8777
 5498TIP3   OH237908   4.856   4.208  11.762  0.2226  0.3477 -0.0104
 5498TIP3    H137909   4.892   4.222  11.674  1.0642  0.5229  0.3490
 5498TIP3    H237910   4.775   4.259  11.763  0.6114  0.9914 -0.4332
 5499TIP3   OH237911   3.888   0.029   0.505  0.0334  0.3569  0.3376
 5499TIP3    H137912   3.867  -0.030   0.578 -1.0222  1.0252  0.6016
 5499TIP3    H237913   3.840  -0.007   0.431  0.5487  0.0762  0.1335
 5500TIP3   OH237914   0.162   6.199   2.788  0.0785 -0.1126 -0.6059
 5500TIP3    H137915   0.187   6.108   2.771  3.0252  0.6259 -0.7728
 5500TIP3    H237916   0.172   6.243   2.704 -4.7506 -0.1321 -1.4586
 5501TIP3   OH237917   6.411   2.847   3.876  0.0435 -0.2325  0.2886
 5501TIP3    H137918   6.470   2.845   3.801 -0.9944  1.3962 -0.6277
 5501TIP3    H237919   6.323   2.854   3.838 -0.5827 -0.3429  1.6492
 5502TIP3   OH237920   1.788   6.473  10.694 -0.4365 -0.3561 -0.3003
 5502TIP3    H137921   1.877   6.483  10.661  0.6127 -0.6267  2.2548
 5502TIP3    H237922   1.732   6.490  10.618  1.7752 -0.6860 -2.1020
 5503TIP3   OH237923   3.279   0.288  12.895 -0.3249 -0.2022 -0.4334
 5503TIP3    H137924   3.261   0.196  12.876  1.9554 -1.0203  0.9468
 5503TIP3    H237925   3.367   0.302  12.859 -0.2296  1.1405  0.3066
 5504TIP3   OH237926   1.685   5.741  14.929 -0.2755 -0.1600 -0.6925
 5504TIP3    H137927   1.770   5.774  14.958  0.8049 -0.1033 -3.5809
 5504TIP3    H237928   1.621   5.799  14.970  1.2449  1.6272 -0.7406
 5505TIP3   OH237929   5.254   2.069  11.428  0.8508 -0.0462 -0.4883
 5505TIP3    H137930   5.192   2.117  11.484 -0.0039  0.9239 -2.1902
 5505TIP3    H237931   5.226   1.978  11.435  1.7513 -0.2232  1.8614
 5506TIP3   OH237932   4.353   3.745  13.347 -0.5160  0.0990  0.3552
 5506TIP3    H137933   4.414   3.807  13.306 -0.4548 -0.2494 -0.0889
 5506TIP3    H237934   4.406   3.666  13.359 -0.6753  0.0402  0.6510
 5507TIP3   OH237935   5.003   5.236   3.082 -0.1528 -0.0722  0.0848
 5507TIP3    H137936   5.004   5.332   3.084 -1.2321 -0.0534  0.5512
 5507TIP3    H237937   4.925   5.212   3.132  1.0751 -1.2514  1.5326
 5508TIP3   OH237938   6.583   0.368   4.252 -0.2215  0.1837 -0.2689
 5508TIP3    H137939   6.661   0.322   4.283 -0.3625  1.0611  1.4761
 5508TIP3    H237940   6.610   0.459   4.244 -0.8861  0.3890 -0.2733
 5509TIP3   OH237941   3.932   3.909   2.998  0.4663 -0.6042 -0.2341
 5509TIP3    H137942   4.013   3.891   2.950  0.9694 -0.9856  0.7347
 5509TIP3    H237943   3.881   3.828   2.991  0.2658 -0.4506 -0.6261
 5510TIP3   OH237944   4.804   5.063  11.644  0.0287  0.6576 -0.1338
 5510TIP3    H137945   4.818   4.996  11.577 -3.5298  0.2549 -0.6625
 5510TIP3    H237946   4.755   5.132  11.599 -0.3075  1.5476  1.4993
 5511TIP3   OH237947   6.424   3.917   1.146  0.1477 -0.4682  0.0344
 5511TIP3    H137948   6.488   3.868   1.197  0.0494 -1.3271 -0.6515
 5511TIP3    H237949   6.465   3.927   1.060 -0.1720 -0.0333 -0.0704
 5512TIP3   OH237950   2.999   2.289   3.374  0.3471  0.1177  0.3199
 5512TIP3    H137951   3.038   2.205   3.397  1.1495  0.6087  0.8074
 5512TIP3    H237952   2.957   2.319   3.454  0.2715  0.2904  0.2163
 5513TIP3   OH237953   6.166   4.223  16.948 -0.3175  0.3540 -0.4573
 5513TIP3    H137954   6.103   4.278  16.901  0.5580  1.1996 -0.6760
 5513TIP3    H237955   6.210   4.172  16.879  0.7269  1.3431 -0.5482
 5514TIP3   OH237956   5.015   0.504   1.794  0.4765 -0.0088  0.4508
 5514TIP3    H137957   4.956   0.572   1.761  0.0882 -0.1779  0.7950
 5514TIP3    H237958   4.958   0.442   1.839  0.9924  0.2034  1.4180
 5515TIP3   OH237959   4.406   2.908  15.574 -0.4048  0.4148 -0.5899
 5515TIP3    H137960   4.315   2.886  15.596 -0.0090  0.2140  0.9614
 5515TIP3    H237961   4.438   2.830  15.528 -0.2720 -0.6170  1.1612
 5516TIP3   OH237962   1.796   5.420  12.689  0.1169 -0.4773  0.0253
 5516TIP3    H137963   1.875   5.464  12.657 -0.3872 -0.3743 -1.1488
 5516TIP3    H237964   1.791   5.443  12.782  1.8612 -1.0926  0.3047
 5517TIP3   OH237965   6.102   3.214   3.217  0.2907  0.1077 -0.6508
 5517TIP3    H137966   6.024   3.201   3.271 -1.0167  2.7937 -1.6995
 5517TIP3    H237967   6.075   3.186   3.129  0.9724 -0.1902 -0.7731
 5518TIP3   OH237968   3.490   4.707  16.842  0.3831  0.4846  0.1876
 5518TIP3    H137969   3.542   4.632  16.812 -1.3351 -0.2640 -1.0164
 5518TIP3    H237970   3.414   4.668  16.884  0.0413  1.5775  0.6048
 5519TIP3   OH237971   2.109   5.617  12.481  0.3728 -0.5694 -0.1310
 5519TIP3    H137972   2.199   5.640  12.505  0.6889 -2.3164  0.4584
 5519TIP3    H237973   2.062   5.612  12.564  0.4266 -2.3354 -0.1604
 5520TIP3   OH237974   1.020   4.440   5.520  0.0215 -0.0075 -0.6240
 5520TIP3    H137975   1.028   4.526   5.561  1.5014 -0.1474 -0.5815
 5520TIP3    H237976   1.038   4.456   5.427 -0.6322 -0.1254 -0.7728
 5521TIP3   OH237977   5.961   6.193  16.813  0.1881 -0.2258 -0.0508
 5521TIP3    H137978   5.931   6.112  16.772  0.7205 -1.8275  2.4819
 5521TIP3    H237979   5.909   6.262  16.772 -0.2526 -1.8237 -2.3327
 5522TIP3   OH237980   2.493   3.089   4.819 -0.3308  0.7111  0.3265
 5522TIP3    H137981   2.581   3.105   4.853 -0.9878  0.1050  2.4184
 5522TIP3    H237982   2.504   3.012   4.762  0.4595  0.5610  0.6702
 5523TIP3   OH237983   0.399   1.588   0.406 -0.1882  0.0723 -0.0291
 5523TIP3    H137984   0.419   1.658   0.468  1.0028 -0.3656  0.0965
 5523TIP3    H237985   0.334   1.627   0.347  0.3089  1.2183  0.1523
 5524TIP3   OH237986   6.756   2.038  10.338  0.2816 -0.3859 -0.2587
 5524TIP3    H137987   6.846   2.007  10.352  0.1392 -0.6898 -0.0179
 5524TIP3    H237988   6.742   2.103  10.407  0.2826 -0.4080 -0.2378
 5525TIP3   OH237989   5.957   2.880   5.870 -0.4766  0.3655  0.0355
 5525TIP3    H137990   5.913   2.885   5.785 -1.7837 -0.3672  0.6453
 5525TIP3    H237991   5.992   2.791   5.874  1.5041  1.0372 -0.6006
 5526TIP3   OH237992   2.989   4.734  16.598  0.0793 -0.0338  0.5217
 5526TIP3    H137993   2.941   4.652  16.611 -2.4619  1.1730 -0.5402
 5526TIP3    H237994   3.006   4.766  16.687 -0.5944 -0.7946  0.9384
 5527TIP3   OH237995   1.125   5.168  15.509 -0.2192  0.1978  0.3028
 5527TIP3    H137996   1.069   5.089  15.504 -0.9072  0.5428  1.9239
 5527TIP3    H237997   1.193   5.153  15.444 -0.4731 -1.6455  0.4013
 5528TIP3   OH237998   4.648   2.439  16.501  0.4599  0.4450 -0.1417
 5528TIP3    H137999   4.605   2.515  16.463 -1.4563 -0.8211 -0.6669
 5528TIP3    H238000   4.728   2.428  16.449  0.7869  2.1046 -0.0168
 5529TIP3   OH238001   3.570   0.687   1.854 -0.4862  0.1459 -0.1762
 5529TIP3    H138002   3.564   0.747   1.928 -0.1865 -0.2966  0.2159
 5529TIP3    H238003   3.479   0.667   1.831 -0.5830 -0.2722  0.5399
 5530TIP3   OH238004   6.359   1.423   4.117 -0.2709  0.1949 -0.0009
 5530TIP3    H138005   6.317   1.435   4.032  0.0540  0.6829 -0.0948
 5530TIP3    H238006   6.420   1.496   4.125  1.7916 -1.3856 -0.5684
 5531TIP3   OH238007   0.765   6.523   3.102 -0.0793 -0.4261  0.5024
 5531TIP3    H138008   0.675   6.530   3.133 -0.8110 -0.2391 -1.5224
 5531TIP3    H238009   0.814   6.585   3.156 -1.4929  0.7243  0.5404
 5532TIP3   OH238010   1.323   3.307  10.256  0.4430  0.1485  0.3255
 5532TIP3    H138011   1.295   3.217  10.272  0.8903  0.1311  1.0641
 5532TIP3    H238012   1.419   3.304  10.263  0.5530  0.4795 -0.7326
 5533TIP3   OH238013   6.542   3.267  17.185 -0.4756 -0.9150  0.7178
 5533TIP3    H138014   6.470   3.205  17.198 -1.4828 -0.0483 -0.4436
 5533TIP3    H238015   6.545   3.317  17.266 -2.7445  0.5359  0.0080
 5534TIP3   OH238016   0.473   4.111   5.030  0.2525  0.1094  0.0963
 5534TIP3    H138017   0.518   4.177   5.083  0.5751  1.6597 -1.9456
 5534TIP3    H238018   0.448   4.158   4.950  1.5584 -2.5231 -2.0175
 5535TIP3   OH238019   4.777   2.792  13.262 -0.3516 -0.1129  0.4306
 5535TIP3    H138020   4.738   2.742  13.191 -2.3359  2.8236 -0.7273
 5535TIP3    H238021   4.738   2.755  13.341  0.0953 -1.8907 -0.1305
 5536TIP3   OH238022   5.647   3.602   1.196  0.4787  0.1721  0.0053
 5536TIP3    H138023   5.728   3.569   1.158  2.0110  4.2759 -0.8346
 5536TIP3    H238024   5.660   3.593   1.291  2.1576  1.0158 -0.0918
 5537TIP3   OH238025   3.372   5.932   5.318 -0.5317  0.5941  0.5719
 5537TIP3    H138026   3.424   5.950   5.396  1.2716 -1.5839 -0.0384
 5537TIP3    H238027   3.298   5.880   5.350 -1.0601  1.6282  1.0945
 5538TIP3   OH238028   4.646   4.892   0.756 -0.0996  0.0181 -0.4209
 5538TIP3    H138029   4.617   4.821   0.813  0.2607 -0.3216 -0.6529
 5538TIP3    H238030   4.567   4.944   0.739 -0.0405  0.6503  1.1052
 5539TIP3   OH238031   0.066   6.550  14.902  0.0915 -0.7197 -0.2193
 5539TIP3    H138032  -0.019   6.560  14.860  0.4495  0.3815 -0.6990
 5539TIP3    H238033   0.056   6.591  14.988  0.3016 -0.0899 -0.4956
 5540TIP3   OH238034   3.966   5.902   4.672 -0.0620  0.4362 -0.4067
 5540TIP3    H138035   3.915   5.888   4.752 -0.5105  2.0791 -0.3701
 5540TIP3    H238036   3.923   5.848   4.606  0.1582 -0.7399  0.3757
 5541TIP3   OH238037   3.909   0.887   3.421 -0.3657 -0.4535 -0.3036
 5541TIP3    H138038   3.888   0.979   3.406  0.3043 -0.4467 -1.2806
 5541TIP3    H238039   3.968   0.864   3.350  1.3763 -0.9996  1.2456
 5542TIP3   OH238040   1.844   2.951  13.830 -0.1361  0.4913 -0.4008
 5542TIP3    H138041   1.920   2.923  13.779 -0.9240  0.4116 -1.5874
 5542TIP3    H238042   1.805   2.870  13.862 -0.4695  0.4383 -0.9277
 5543TIP3   OH238043   1.113   6.045  15.157  0.7311  0.5650 -0.5127
 5543TIP3    H138044   1.138   5.952  15.157  0.7136  0.5614 -0.8021
 5543TIP3    H238045   1.077   6.060  15.070 -1.0508  0.3716  0.1603
 5544TIP3   OH238046   3.117   4.054  14.045  0.5136  0.1727  0.1373
 5544TIP3    H138047   3.069   4.106  13.980 -1.8323 -0.3326  1.3529
 5544TIP3    H238048   3.184   4.009  13.994  1.3262  2.7720 -1.2638
 5545TIP3   OH238049   3.887   3.837   5.184  0.3919  0.3647  0.3167
 5545TIP3    H138050   3.869   3.870   5.096  2.7909  1.9537  0.3400
 5545TIP3    H238051   3.923   3.749   5.170 -3.0579 -1.2007  0.0784
 5546TIP3   OH238052   1.084   4.426  16.876  0.2265 -0.1098  0.0415
 5546TIP3    H138053   1.151   4.456  16.814  0.8793  0.4058  0.9781
 5546TIP3    H238054   1.086   4.331  16.869 -0.1074 -0.0498 -1.1302
 5547TIP3   OH238055   6.325   6.188  15.859 -0.3204  0.2254  0.2050
 5547TIP3    H138056   6.350   6.260  15.802 -0.5914 -0.4440 -0.7920
 5547TIP3    H238057   6.373   6.203  15.941 -0.0786  1.3073 -0.1285
 5548TIP3   OH238058   0.152   4.009  12.378  0.7737 -0.7927  0.3435
 5548TIP3    H138059   0.060   4.035  12.375  1.3589  1.4346 -0.8329
 5548TIP3    H238060   0.184   4.040  12.463  0.9152  0.3595 -0.1168
 5549TIP3   OH238061   4.071   6.421   2.317 -0.1532 -0.1693 -0.0293
 5549TIP3    H138062   4.038   6.349   2.264  1.5697 -2.2117  1.5099
 5549TIP3    H238063   4.112   6.480   2.253  0.1597 -1.5564 -1.1802
 5550TIP3   OH238064   1.762   0.425  14.990  0.0091  0.3411 -0.1901
 5550TIP3    H138065   1.725   0.513  14.989 -0.1192  0.3949 -3.4106
 5550TIP3    H238066   1.852   0.437  14.961 -0.1068 -0.5843 -1.0010
 5551TIP3   OH238067   0.434   3.165  13.726  0.8275 -0.0879 -0.1677
 5551TIP3    H138068   0.408   3.160  13.634  0.3913 -1.5670  0.0164
 5551TIP3    H238069   0.527   3.185  13.724  0.3085  2.6676 -0.8675
 5552TIP3   OH238070   0.161   2.734  13.846  0.2910  0.2914 -0.2240
 5552TIP3    H138071   0.145   2.806  13.785  3.7183  1.1086 -0.3373
 5552TIP3    H238072   0.220   2.675  13.800 -0.6266 -1.4519  0.7284
 5553TIP3   OH238073   0.016   5.083   6.029  0.6011  0.1098 -0.1290
 5553TIP3    H138074   0.080   5.071   6.100  1.9832  2.5519 -0.8296
 5553TIP3    H238075  -0.006   4.995   6.001  3.2855 -0.8600  0.5136
 5554TIP3   OH238076   6.663   2.811  13.629  0.4081  0.2841  0.8282
 5554TIP3    H138077   6.733   2.792  13.566  1.0834  1.5526  1.1528
 5554TIP3    H238078   6.678   2.751  13.702 -0.3174 -1.1271 -0.1346
 5555TIP3   OH238079   5.307   0.178  16.620 -0.0318 -0.4404  0.1891
 5555TIP3    H138080   5.231   0.143  16.574 -0.3779  0.5463 -0.0176
 5555TIP3    H238081   5.374   0.110  16.612 -0.3985 -0.6799 -0.9380
 5556TIP3   OH238082   5.747   6.266  10.050  0.4646  0.6270  0.0853
 5556TIP3    H138083   5.753   6.347  10.101  1.7099  1.0246 -0.6634
 5556TIP3    H238084   5.826   6.217  10.072  0.5920  0.4110 -0.8077
 5557TIP3   OH238085   3.491   6.350   2.648  0.5847  0.3557  0.1213
 5557TIP3    H138086   3.418   6.288   2.639 -1.8875  3.1209 -0.3872
 5557TIP3    H238087   3.496   6.393   2.562  0.4352  2.6285  1.1895
 5558TIP3   OH238088   5.951   2.104   3.821  0.2795 -0.3034  0.2179
 5558TIP3    H138089   5.925   2.196   3.811  2.2036  0.3530  0.8455
 5558TIP3    H238090   5.868   2.056   3.823 -0.7847  1.4470  0.2611
 5559TIP3   OH238091   1.947   5.766  15.071  0.5087  0.4687 -0.4984
 5559TIP3    H138092   2.042   5.755  15.081  0.4191  0.4924  0.4659
 5559TIP3    H238093   1.922   5.826  15.141 -0.3867 -0.4382 -0.0085
 5560TIP3   OH238094   0.600   5.834   3.546  0.3317 -0.1035  0.1191
 5560TIP3    H138095   0.533   5.774   3.576  0.2857  0.5593  1.4244
 5560TIP3    H238096   0.611   5.896   3.618  3.9611 -1.4976  1.0061
 5561TIP3   OH238097   1.760   5.532  16.878 -0.6519  0.2502 -0.0173
 5561TIP3    H138098   1.818   5.558  16.949 -0.2532  0.8332 -0.5427
 5561TIP3    H238099   1.756   5.609  16.821 -3.0660  0.7657  0.7253
 5562TIP3   OH238100   5.557   3.670   3.620 -0.3178  0.1768  0.5383
 5562TIP3    H138101   5.611   3.639   3.692  0.3028  0.5215  0.2209
 5562TIP3    H238102   5.600   3.749   3.588 -1.0390  0.5000  0.3247
 5563TIP3   OH238103   5.117   0.571   3.185  0.7017 -0.2584 -0.0209
 5563TIP3    H138104   5.169   0.643   3.220  1.2801 -0.4526 -0.4708
 5563TIP3    H238105   5.036   0.572   3.237  1.3127 -0.2077  0.9589
 5564TIP3   OH238106   3.574   6.541   4.564 -0.1696 -0.2544 -0.2553
 5564TIP3    H138107   3.606   6.498   4.643 -0.0597 -0.9004 -0.6440
 5564TIP3    H238108   3.644   6.527   4.499 -0.2829  0.2170 -0.4843
 5565TIP3   OH238109   4.387   6.163  13.833  0.2999  0.1814  0.3408
 5565TIP3    H138110   4.335   6.144  13.756 -0.5142  1.0862  0.6500
 5565TIP3    H238111   4.427   6.248  13.815  2.3157 -0.8205 -0.2091
 5566TIP3   OH238112   1.411   4.260  11.095 -0.1885 -0.3824 -0.2885
 5566TIP3    H138113   1.489   4.258  11.152 -0.6144 -0.2205  0.3142
 5566TIP3    H238114   1.383   4.352  11.097 -1.1693 -0.6825  0.5828
 5567TIP3   OH238115   3.671   1.353  16.004  0.6399 -0.3828 -0.1772
 5567TIP3    H138116   3.727   1.350  16.080 -0.1937  0.4430  0.5003
 5567TIP3    H238117   3.729   1.337  15.930  1.5772 -0.5064  0.5737
 5568TIP3   OH238118   4.544   5.431  16.793 -0.2376  0.3690  0.1980
 5568TIP3    H138119   4.610   5.444  16.862  0.8383 -0.3453 -0.6634
 5568TIP3    H238120   4.586   5.464  16.714 -0.5673 -0.8799 -0.5294
 5569TIP3   OH238121   5.325   4.432   4.994  0.1633 -0.5112 -0.5401
 5569TIP3    H138122   5.418   4.431   5.016  0.0330  0.1870  0.0832
 5569TIP3    H238123   5.289   4.356   5.040  0.2450 -0.1838  0.0738
 5570TIP3   OH238124   6.572   3.790   4.063  0.0220 -0.0382 -0.0744
 5570TIP3    H138125   6.505   3.851   4.033  1.1277  0.9005 -0.7030
 5570TIP3    H238126   6.535   3.703   4.046 -0.6494  0.4666 -1.3177
 5571TIP3   OH238127   3.316   5.186  14.971  0.5070 -0.1593  0.0201
 5571TIP3    H138128   3.275   5.151  14.892 -0.4456 -0.2603  0.5432
 5571TIP3    H238129   3.281   5.275  14.979  1.1060  0.0859 -0.0233
 5572TIP3   OH238130   1.474   4.151  14.441  0.0041 -0.3192  0.0938
 5572TIP3    H138131   1.537   4.080  14.432  0.0359 -0.4669  1.2930
 5572TIP3    H238132   1.398   4.122  14.391 -0.4461 -1.7944  1.5417
 5573TIP3   OH238133   4.828   0.813   3.529 -0.4691 -0.1809  0.0745
 5573TIP3    H138134   4.856   0.796   3.439  0.0932  0.5226  0.1035
 5573TIP3    H238135   4.910   0.822   3.578 -0.7686  0.0487  0.5354
 5574TIP3   OH238136   2.683   4.924  14.961  0.3333 -0.4012  0.6073
 5574TIP3    H138137   2.719   4.836  14.953  0.0712 -0.4128 -0.9265
 5574TIP3    H238138   2.759   4.981  14.974  0.6236 -0.7326  0.3707
 5575TIP3   OH238139   4.030   2.606  10.808  0.1979  0.3079  0.1055
 5575TIP3    H138140   4.100   2.572  10.752 -0.6835 -0.0879 -0.7761
 5575TIP3    H238141   4.063   2.690  10.839  1.2617 -0.0886  0.0835
 5576TIP3   OH238142   5.771   5.525   0.638  0.2756 -0.6268  0.8713
 5576TIP3    H138143   5.689   5.502   0.681  1.2407  1.0151  3.8262
 5576TIP3    H238144   5.839   5.484   0.692  1.5056 -0.9357 -0.8118
 5577TIP3   OH238145   6.372   5.644   3.004  0.0577 -0.6657  0.1558
 5577TIP3    H138146   6.325   5.718   2.965  0.9176  0.2176  0.7486
 5577TIP3    H238147   6.430   5.614   2.934  0.6869  0.0997  0.3425
 5578TIP3   OH238148   3.581   6.418   6.558  0.7764 -0.2009  0.1558
 5578TIP3    H138149   3.606   6.500   6.516 -0.9933  0.1227 -0.3089
 5578TIP3    H238150   3.516   6.442   6.624 -2.4263 -1.4682 -2.2734
 5579TIP3   OH238151   5.240   2.693   1.506 -0.2472 -0.2744 -0.2784
 5579TIP3    H138152   5.219   2.714   1.597 -0.3276 -0.2717 -0.2981
 5579TIP3    H238153   5.276   2.774   1.471  2.5260 -1.0181  0.5713
 5580TIP3   OH238154   2.233   5.281  16.437 -0.0368  0.6972 -0.1987
 5580TIP3    H138155   2.141   5.284  16.465  0.3554 -0.5069  1.3247
 5580TIP3    H238156   2.282   5.319  16.510  0.9023 -1.2684  0.2430
 5581TIP3   OH238157   1.222   3.582   1.355 -0.8452  0.0252 -0.2940
 5581TIP3    H138158   1.316   3.601   1.356 -0.6467 -0.8839  0.6063
 5581TIP3    H238159   1.199   3.580   1.263  0.0169  0.2728 -0.5305
 5582TIP3   OH238160   5.108   4.914  13.001  0.4529  0.2789  0.4072
 5582TIP3    H138161   5.117   4.958  12.917  0.3201  0.4805  0.4987
 5582TIP3    H238162   5.014   4.898  13.011  0.5442 -0.4977  0.1343
 5583TIP3   OH238163   0.913   1.209   2.435 -0.5615  0.4120 -0.0312
 5583TIP3    H138164   0.923   1.299   2.466 -2.5340  0.2672  1.2298
 5583TIP3    H238165   0.830   1.209   2.388 -2.2526 -1.3263  2.6567
 5584TIP3   OH238166   0.965   5.705  16.087 -0.3159  0.3687  0.0476
 5584TIP3    H138167   0.951   5.668  16.000 -1.0055  1.5260 -0.3438
 5584TIP3    H238168   1.051   5.746  16.082 -0.7913  1.3275 -0.4155
 5585TIP3   OH238169   5.379   6.482   4.550  0.2438 -0.2021  0.3377
 5585TIP3    H138170   5.461   6.434   4.543  0.5680  0.4346 -0.3909
 5585TIP3    H238171   5.313   6.420   4.520  0.7025 -0.1079 -0.9383
 5586TIP3   OH238172   4.314   5.330  11.228  0.2251 -0.0184  0.4966
 5586TIP3    H138173   4.350   5.386  11.297  0.6151  2.0577 -1.2709
 5586TIP3    H238174   4.324   5.382  11.148 -3.6275 -0.7112 -0.6321
 5587TIP3   OH238175   3.039   3.572  16.276  0.3102  0.5794  0.2329
 5587TIP3    H138176   3.010   3.537  16.360  0.2437  0.0788  0.0017
 5587TIP3    H238177   2.983   3.648  16.260 -0.1657  0.2415  0.2923
 5588TIP3   OH238178   0.234   0.157  13.340  0.4851 -0.9854  0.0531
 5588TIP3    H138179   0.299   0.107  13.389  1.4274  0.0244 -0.1187
 5588TIP3    H238180   0.219   0.235  13.392 -0.2999 -1.0168 -0.1143
 5589TIP3   OH238181   2.517   2.168  16.921 -0.1494  0.5745 -0.0104
 5589TIP3    H138182   2.597   2.211  16.891  1.0226 -0.9044  0.8389
 5589TIP3    H238183   2.472   2.235  16.973  0.5291  1.4122 -0.4677
 5590TIP3   OH238184   3.301   0.042  12.804  0.1356 -0.4295  0.4455
 5590TIP3    H138185   3.388   0.002  12.801  0.6964  0.6579  1.6048
 5590TIP3    H238186   3.278   0.055  12.712  1.9229  0.7584  0.1237
 5591TIP3   OH238187   5.184   1.037  11.497 -0.0394  0.3560 -0.6448
 5591TIP3    H138188   5.240   1.081  11.434 -0.2501  0.2083 -0.9372
 5591TIP3    H238189   5.210   1.073  11.582  0.7478  0.0285 -0.7385
 5592TIP3   OH238190   1.675   4.986  16.037 -0.0036 -0.2233 -0.1421
 5592TIP3    H138191   1.614   5.008  16.107  1.9536  0.2338  1.5407
 5592TIP3    H238192   1.656   4.895  16.015 -0.6767 -0.3639  0.9872
 5593TIP3   OH238193   5.485   0.352  15.337 -0.3514 -0.0538  0.2363
 5593TIP3    H138194   5.567   0.397  15.317  1.6567 -3.4050  0.3421
 5593TIP3    H238195   5.473   0.366  15.431  0.9454 -0.7602  0.5279
 5594TIP3   OH238196   6.067   4.146   2.412 -0.0974 -0.1951 -0.3613
 5594TIP3    H138197   6.011   4.208   2.459 -0.7374 -2.4500  2.0453
 5594TIP3    H238198   6.154   4.160   2.449 -0.5288 -1.6931  1.3789
 5595TIP3   OH238199   5.867   1.837   6.274  0.3525 -0.6398 -0.2829
 5595TIP3    H138200   5.825   1.775   6.333  0.9337  0.0235  0.8751
 5595TIP3    H238201   5.940   1.788   6.236  1.2944 -0.4736  1.2342
 5596TIP3   OH238202   3.849   4.689   6.431 -0.0168  0.2101 -0.1011
 5596TIP3    H138203   3.817   4.765   6.383  0.0558  0.7140  0.6252
 5596TIP3    H238204   3.944   4.696   6.429 -0.0031  0.0163 -0.2159
 5597TIP3   OH238205   4.699   1.258   1.710  0.7175 -0.0714 -0.3908
 5597TIP3    H138206   4.776   1.311   1.689  2.4404 -2.3360 -0.1883
 5597TIP3    H238207   4.709   1.235   1.802  1.1902 -2.4242 -0.9642
 5598TIP3   OH238208   3.120   6.272  16.747 -0.0555  0.0394  1.2606
 5598TIP3    H138209   3.048   6.284  16.809  0.2202  0.4877  1.5033
 5598TIP3    H238210   3.185   6.338  16.773  0.3387 -0.2009  0.8988
 5599TIP3   OH238211   6.282   0.830   5.379  0.1666  0.0617  0.6913
 5599TIP3    H138212   6.282   0.925   5.364 -1.1009  0.2148  1.4711
 5599TIP3    H238213   6.370   0.811   5.411  0.7800  0.7925 -0.5086
 5600TIP3   OH238214   4.430   1.198   3.878  0.0307  0.7655  0.8899
 5600TIP3    H138215   4.371   1.132   3.841 -1.3908  2.3602  0.1393
 5600TIP3    H238216   4.418   1.190   3.973  0.6755 -0.7071  0.8726
 5601TIP3   OH238217   6.098   6.192   2.253 -0.7483  0.3865 -0.5258
 5601TIP3    H138218   6.060   6.279   2.262 -1.5609  0.0927 -1.0111
 5601TIP3    H238219   6.022   6.133   2.255 -0.3723 -0.1768 -2.1073
 5602TIP3   OH238220   6.651   4.253   4.130 -0.0446 -0.7571 -0.0856
 5602TIP3    H138221   6.717   4.252   4.061 -0.0196 -1.0376 -0.0581
 5602TIP3    H238222   6.641   4.345   4.152 -0.1926 -0.6429 -0.6010
 5603TIP3   OH238223   0.254   4.946   5.759 -0.1558 -0.0897  0.4197
 5603TIP3    H138224   0.332   4.901   5.789 -0.0165 -0.9992 -1.2401
 5603TIP3    H238225   0.224   4.896   5.683  0.1293  2.6752 -1.6717
 5604TIP3   OH238226   2.722   4.945  13.217  0.2729 -0.5811 -0.0462
 5604TIP3    H138227   2.727   4.850  13.221 -0.7409 -0.6680 -0.4252
 5604TIP3    H238228   2.654   4.968  13.280  0.7336 -0.0825  0.2722
 5605TIP3   OH238229   5.894   4.619   3.816 -0.1162  0.1184 -0.5423
 5605TIP3    H138230   5.905   4.556   3.745 -0.8115  0.7191 -1.2107
 5605TIP3    H238231   5.843   4.690   3.777 -1.2831  0.0669  0.7971
 5606TIP3   OH238232   2.044   0.360  13.268 -0.1141  0.4108  0.4134
 5606TIP3    H138233   1.988   0.430  13.237 -0.4936 -0.1310 -0.1399
 5606TIP3    H238234   2.133   0.391  13.251 -0.2913  0.5399 -0.2936
 5607TIP3   OH238235   6.208   4.424   1.532 -0.3334 -0.6359  0.2704
 5607TIP3    H138236   6.121   4.462   1.523  0.8505  1.9807 -2.2136
 5607TIP3    H238237   6.261   4.496   1.567  1.1546 -1.5304 -0.0628
 5608TIP3   OH238238   5.043   2.927   5.793  0.0129  0.0824  0.2787
 5608TIP3    H138239   5.048   2.966   5.880 -1.4573 -1.3391  1.0410
 5608TIP3    H238240   5.092   2.845   5.801  1.7432  0.9157 -0.8885
 5609TIP3   OH238241   0.574   4.246  15.346  0.0527  0.7060 -0.3854
 5609TIP3    H138242   0.544   4.229  15.257 -0.5361  1.8684 -0.4192
 5609TIP3    H238243   0.635   4.319  15.338  1.0204 -0.0239  0.0150
 5610TIP3   OH238244   2.936   5.241  16.558 -0.1379  0.3433 -1.0434
 5610TIP3    H138245   2.947   5.162  16.612  0.3172  0.6516 -0.6674
 5610TIP3    H238246   2.995   5.228  16.484  2.5829  1.7516  0.6964
 5611TIP3   OH238247   2.793   4.238   5.082  0.2682  0.7711 -0.6331
 5611TIP3    H138248   2.715   4.294   5.080  0.5865  1.3564  1.3262
 5611TIP3    H238249   2.864   4.294   5.048  0.0081  0.4805 -1.7016
 5612TIP3   OH238250   5.497   5.625  16.863 -0.6389 -0.4219 -0.0096
 5612TIP3    H138251   5.523   5.658  16.949 -1.5903  0.8887 -0.1954
 5612TIP3    H238252   5.575   5.632  16.809  0.0730 -1.6145  0.8287
 5613TIP3   OH238253   4.270   1.876  12.946  0.0780 -0.4393 -0.6935
 5613TIP3    H138254   4.319   1.951  12.978 -2.0753  1.1025 -0.8669
 5613TIP3    H238255   4.276   1.882  12.851 -0.1851 -0.4479 -0.7103
 5614TIP3   OH238256   6.070   3.719   6.459  0.0877 -0.3500 -0.0155
 5614TIP3    H138257   6.026   3.635   6.444 -0.4167  0.0765 -1.0878
 5614TIP3    H238258   6.074   3.760   6.372 -0.6468  1.2084  0.6381
 5615TIP3   OH238259   2.813   5.129  17.190 -0.1405  0.1981 -0.1296
 5615TIP3    H138260   2.893   5.181  17.194  0.7089 -1.1108  0.4443
 5615TIP3    H238261   2.818   5.081  17.108  0.3657 -0.9446  0.5483
 5616TIP3   OH238262   4.280   3.054   5.337  0.2044  0.1113  0.6437
 5616TIP3    H138263   4.342   3.047   5.264 -2.9878  0.3609 -2.3614
 5616TIP3    H238264   4.266   2.964   5.365  0.3480 -0.1539 -0.1143
 5617TIP3   OH238265   5.373   3.939  16.364 -0.2157 -0.2943  0.2767
 5617TIP3    H138266   5.364   3.967  16.456  0.2819 -1.3429  0.6581
 5617TIP3    H238267   5.468   3.940  16.349 -0.3074  0.0311 -0.2884
 5618TIP3   OH238268   0.974   0.875   5.402 -0.3932  0.3068 -0.0854
 5618TIP3    H138269   0.933   0.961   5.390  2.8876  2.1076  0.5775
 5618TIP3    H238270   0.947   0.825   5.325 -1.8056  2.1784 -0.8760
 5619TIP3   OH238271   5.617   5.838   0.557  0.5291  0.3342  0.6045
 5619TIP3    H138272   5.645   5.926   0.581 -1.4017  0.4768  2.6403
 5619TIP3    H238273   5.638   5.785   0.633 -0.1505 -0.5492  0.1952
 5620TIP3   OH238274   5.054   1.537   3.059 -0.1936  0.2073 -0.1411
 5620TIP3    H138275   5.005   1.611   3.095 -0.0447  0.8822 -1.3017
 5620TIP3    H238276   5.076   1.563   2.970  2.0744 -0.1578  0.2365
 5621TIP3   OH238277   1.579   3.280   0.589 -0.0939  0.0854  0.2885
 5621TIP3    H138278   1.596   3.374   0.588  0.0365  0.0575 -0.2381
 5621TIP3    H238279   1.549   3.259   0.501  0.5035 -0.4767  0.2037
 5622TIP3   OH238280   5.060   4.596   6.227 -0.2455 -0.0160 -0.1807
 5622TIP3    H138281   5.089   4.658   6.160  2.0526 -1.3834 -0.5919
 5622TIP3    H238282   5.128   4.600   6.294  0.1190 -2.1743 -0.3384
 5623TIP3   OH238283   4.027   5.924  10.701 -0.3490  0.2598  0.5200
 5623TIP3    H138284   3.966   5.962  10.765  0.3402  1.4958  0.4818
 5623TIP3    H238285   4.027   5.986  10.629 -1.9811 -1.6727 -1.2703
 5624TIP3   OH238286   5.547   0.444   2.651  0.1427  0.0024  0.4025
 5624TIP3    H138287   5.594   0.502   2.592 -0.6187  0.5848  0.3593
 5624TIP3    H238288   5.590   0.359   2.640 -0.0492  0.0728 -1.0731
 5625TIP3   OH238289   0.251   2.280   3.577  0.7377  0.1507 -0.1448
 5625TIP3    H138290   0.267   2.294   3.670  0.6651 -0.6946  0.0096
 5625TIP3    H238291   0.336   2.254   3.542  0.8715  0.9369 -0.4173
 5626TIP3   OH238292   4.479   3.575   6.185  0.6057  0.2283 -0.2517
 5626TIP3    H138293   4.544   3.520   6.228 -1.3342 -2.7865 -0.8552
 5626TIP3    H238294   4.453   3.638   6.252  0.4808 -1.8144  1.7292
 5627TIP3   OH238295   1.409   3.394   2.742 -0.1186 -0.0931 -0.4911
 5627TIP3    H138296   1.322   3.356   2.748 -0.4851  0.8973  1.2805
 5627TIP3    H238297   1.457   3.355   2.815  0.0789  1.3335  0.1728
 5628TIP3   OH238298   5.367   5.298   2.357  0.3354  0.4114  0.0839
 5628TIP3    H138299   5.281   5.320   2.393  0.2295 -0.6116  0.5225
 5628TIP3    H238300   5.427   5.310   2.431  0.3006 -0.4953  0.2819
 5629TIP3   OH238301   2.955   3.119   3.709  0.2440 -0.6966  0.3376
 5629TIP3    H138302   2.870   3.161   3.699  0.1365 -0.3678  2.1881
 5629TIP3    H238303   2.954   3.046   3.647 -0.8220  0.1138 -0.6417
 5630TIP3   OH238304   4.915   2.139   4.049 -0.0090  0.5447  0.8153
 5630TIP3    H138305   4.967   2.128   3.970  0.8525  0.8994  1.3069
 5630TIP3    H238306   4.884   2.230   4.044  0.0567  0.5714  0.8772
 5631TIP3   OH238307   0.751   6.776  15.947 -0.3606  0.4280 -0.2610
 5631TIP3    H138308   0.800   6.713  15.894  0.1384  1.9405 -1.6785
 5631TIP3    H238309   0.758   6.743  16.037  0.9570 -0.8350 -0.7938
 5632TIP3   OH238310   5.308   0.321  15.633  0.4436  0.0965  0.0665
 5632TIP3    H138311   5.245   0.335  15.704  2.9243  1.4085  2.2139
 5632TIP3    H238312   5.377   0.268  15.674  1.6644  0.3592 -1.5666
 5633TIP3   OH238313   5.394   3.977  11.482  0.0841 -0.2735  0.0258
 5633TIP3    H138314   5.440   3.899  11.515  3.3176  1.5015  0.1390
 5633TIP3    H238315   5.391   3.965  11.387 -0.9558 -1.2531  0.1668
 5634TIP3   OH238316   4.999   5.697  15.536 -0.7340  0.0613 -0.1399
 5634TIP3    H138317   5.075   5.732  15.490 -1.1822  1.2286 -0.0439
 5634TIP3    H238318   5.013   5.603  15.540  0.3255  0.1849 -0.8009
 5635TIP3   OH238319   5.038   2.635   3.546  0.2279 -0.0728 -0.3189
 5635TIP3    H138320   5.069   2.591   3.467 -3.0684 -1.6006 -0.9491
 5635TIP3    H238321   4.997   2.715   3.515  2.1573  1.2382  0.3436
 5636TIP3   OH238322   0.193   4.404  12.737 -0.4347 -0.3298 -0.2691
 5636TIP3    H138323   0.198   4.487  12.785 -0.4685  0.8505 -2.2155
 5636TIP3    H238324   0.116   4.360  12.774 -1.0246  0.9702  0.1025
 5637TIP3   OH238325   3.942   3.502   5.980  0.0277  0.3313 -0.2358
 5637TIP3    H138326   3.913   3.511   6.070 -0.5078  2.0485 -0.5495
 5637TIP3    H238327   3.864   3.470   5.933 -0.2202  1.1296 -0.3823
 5638TIP3   OH238328   1.327   3.764  13.311 -0.1294  0.1196  0.0524
 5638TIP3    H138329   1.344   3.697  13.244 -1.2571  1.3585 -1.5618
 5638TIP3    H238330   1.375   3.841  13.279  0.2697  0.4072  1.3122
 5639TIP3   OH238331   1.994   3.723  12.028  0.2610  0.3482  0.4070
 5639TIP3    H138332   2.090   3.722  12.027  0.3061 -1.0992 -1.6689
 5639TIP3    H238333   1.970   3.681  12.111  1.5640 -3.0222 -0.7416
 5640TIP3   OH238334   5.129   0.679  16.691 -0.2058  0.0331 -0.4932
 5640TIP3    H138335   5.083   0.749  16.645 -3.2152 -0.5931  1.2379
 5640TIP3    H238336   5.157   0.718  16.774  1.1053  0.0145 -0.9146
 5641TIP3   OH238337   6.013   1.372  13.351 -0.7938  0.5441 -0.4099
 5641TIP3    H138338   5.972   1.450  13.313  0.5027  1.0542 -0.8040
 5641TIP3    H238339   6.092   1.358  13.299 -0.4026 -0.3532  0.3929
 5642TIP3   OH238340   4.404   2.430  16.616 -0.5239  0.2041 -0.1994
 5642TIP3    H138341   4.497   2.420  16.591 -0.8913 -0.4632 -1.4121
 5642TIP3    H238342   4.396   2.381  16.698  0.0676 -0.2920 -0.4280
 5643TIP3   OH238343   5.586   4.954   0.997 -0.4928 -0.2729  0.1376
 5643TIP3    H138344   5.654   4.887   1.001 -0.4932 -0.2291  2.4530
 5643TIP3    H238345   5.599   4.996   0.912  0.9267 -1.7250 -0.4293
 5644TIP3   OH238346   5.206   5.179   3.509 -0.7959 -0.4596  0.4988
 5644TIP3    H138347   5.302   5.175   3.511 -0.5007  3.2850  2.4529
 5644TIP3    H238348   5.185   5.225   3.428 -1.2366 -3.2943 -1.1214
 5645TIP3   OH238349   6.736   6.498  12.651 -0.1796  0.7000  0.5191
 5645TIP3    H138350   6.792   6.466  12.580  1.1219  3.3829  0.2194
 5645TIP3    H238351   6.666   6.546  12.606  1.4137  3.6145  0.9397
 5646TIP3   OH238352   6.120   3.026   2.474 -0.3640  0.0386 -0.0465
 5646TIP3    H138353   6.213   3.037   2.454 -0.4576  0.6163 -0.1779
 5646TIP3    H238354   6.102   2.935   2.452  0.5910 -0.6337  1.7040
 5647TIP3   OH238355   1.409   5.376  12.198 -0.2025 -0.0580  0.7538
 5647TIP3    H138356   1.376   5.286  12.197 -1.1977  0.2887  1.3411
 5647TIP3    H238357   1.338   5.428  12.161 -0.2208  0.6694  1.7852
 5648TIP3   OH238358   1.375   4.668  11.766 -0.0922 -0.6621 -0.2733
 5648TIP3    H138359   1.421   4.703  11.842 -0.3223 -1.8634  0.4479
 5648TIP3    H238360   1.312   4.735  11.742  1.8903  0.9779 -1.1917
 5649TIP3   OH238361   0.490   1.997   4.023 -0.1075  0.0078 -0.2809
 5649TIP3    H138362   0.553   1.932   3.993  0.0355  0.1494 -0.2833
 5649TIP3    H238363   0.538   2.079   4.025 -0.1928  0.0521  0.0548
 5650TIP3   OH238364   6.106   1.146   1.151  0.3741 -0.1249 -0.1302
 5650TIP3    H138365   6.101   1.231   1.107  2.1763  1.3387  2.2512
 5650TIP3    H238366   6.182   1.153   1.208 -1.5999 -1.9388  3.0299
 5651TIP3   OH238367   6.131   0.595   0.399  0.0210  0.3122 -0.0717
 5651TIP3    H138368   6.096   0.652   0.331  0.6012  0.0379 -0.6094
 5651TIP3    H238369   6.059   0.585   0.462 -0.2232  1.3014 -0.1732
 5652TIP3   OH238370   2.540   2.085  15.607  0.4855 -0.4265 -0.3022
 5652TIP3    H138371   2.524   2.040  15.524  0.9344 -0.3944 -0.4076
 5652TIP3    H238372   2.621   2.133  15.592  0.5103 -0.3396  0.1253
 5653TIP3   OH238373   5.653   5.216  13.704 -0.2455  0.1958  0.0101
 5653TIP3    H138374   5.683   5.145  13.760  0.4551 -0.2982 -0.9555
 5653TIP3    H238375   5.726   5.233  13.645 -0.8415  0.9030 -0.5557
 5654TIP3   OH238376   1.418   5.597  15.284  0.3065  0.0079  0.2819
 5654TIP3    H138377   1.417   5.511  15.242 -0.0115  0.4385 -0.6116
 5654TIP3    H238378   1.508   5.628  15.273  0.1611  0.2240 -0.2990
 5655TIP3   OH238379   2.931   2.404   2.409  0.3033 -0.2521  0.5463
 5655TIP3    H138380   2.872   2.369   2.476  0.7759  0.2840  1.2679
 5655TIP3    H238381   2.945   2.332   2.349 -3.4439  0.4049 -1.3829
 5656TIP3   OH238382   0.032   3.945  17.223  0.1464  0.2701  0.2097
 5656TIP3    H138383   0.012   3.877  17.158 -0.3708 -0.8545  1.4968
 5656TIP3    H238384  -0.013   3.916  17.303 -3.4741  4.0685 -0.1176
 5657TIP3   OH238385   5.488   2.974   4.613 -0.3960 -0.2601 -0.0572
 5657TIP3    H138386   5.532   2.978   4.698  1.8760  0.1948 -1.1492
 5657TIP3    H238387   5.428   3.048   4.613 -0.0622  0.0297  0.9602
 5658TIP3   OH238388   2.431   6.781  15.901  0.3186  0.7205  0.2666
 5658TIP3    H138389   2.518   6.751  15.873  0.5033  2.0711 -0.7035
 5658TIP3    H238390   2.370   6.721  15.857  0.6814  1.6117 -1.5277
 5659TIP3   OH238391   3.096   6.304   1.538  0.1055  0.2489  0.3185
 5659TIP3    H138392   3.111   6.397   1.550 -0.6021  0.4288 -0.1586
 5659TIP3    H238393   3.006   6.289   1.567 -0.4753  0.0889 -1.4534
 5660TIP3   OH238394   1.137   4.513   3.494  0.3636  0.4172  0.0516
 5660TIP3    H138395   1.131   4.433   3.547  0.9838 -0.1700 -0.7468
 5660TIP3    H238396   1.108   4.487   3.407 -1.1720  1.5069  0.1819
 5661TIP3   OH238397   4.964   3.720   3.810  0.7069 -0.0140  0.5835
 5661TIP3    H138398   5.007   3.687   3.889 -0.8941 -0.0287  1.5124
 5661TIP3    H238399   4.892   3.658   3.795  1.1423 -0.1493 -1.0596
 5662TIP3   OH238400   1.275   1.369   1.640  0.5520 -0.0786 -0.2208
 5662TIP3    H138401   1.287   1.451   1.593  0.8701 -0.6217 -1.1175
 5662TIP3    H238402   1.210   1.321   1.588  0.6209 -0.5269  0.1020
 5663TIP3   OH238403   4.616   3.539   5.778  0.0834  0.3255 -0.5323
 5663TIP3    H138404   4.642   3.571   5.864  2.8442 -2.3764 -0.1829
 5663TIP3    H238405   4.687   3.568   5.720  0.1612 -0.9689 -1.1128
 5664TIP3   OH238406   1.933   1.570  16.465 -0.4286  0.1563 -0.1899
 5664TIP3    H138407   1.915   1.506  16.534 -1.3913 -1.9005 -2.2179
 5664TIP3    H238408   2.008   1.534  16.418 -0.8226  0.6743 -1.2320
 5665TIP3   OH238409   6.735   5.999  14.875 -0.0584 -0.0012 -0.0469
 5665TIP3    H138410   6.796   6.024  14.805 -0.1055 -0.5087 -0.2764
 5665TIP3    H238411   6.667   6.066  14.872  1.8327  2.2063  2.0347
 5666TIP3   OH238412   0.768   4.442   6.257  0.4380  0.1057 -1.0481
 5666TIP3    H138413   0.798   4.428   6.347  1.4285 -0.0133 -1.3823
 5666TIP3    H238414   0.780   4.536   6.242 -1.4198  0.4568 -0.4788
 5667TIP3   OH238415   1.734   0.714  14.029  0.2114  0.4256 -0.3755
 5667TIP3    H138416   1.646   0.737  13.998 -0.0590  0.5390  0.4548
 5667TIP3    H238417   1.733   0.737  14.122  2.1340  3.4838 -0.9625
 5668TIP3   OH238418   2.854   1.746   0.025  0.2155  0.2368 -0.0898
 5668TIP3    H138419   2.785   1.802   0.061 -0.0822 -0.0808 -0.1546
 5668TIP3    H238420   2.925   1.752   0.088 -0.9547 -1.7119  1.5225
 5669TIP3   OH238421   3.870   1.409   2.438 -0.0584 -0.7211  0.2401
 5669TIP3    H138422   3.954   1.432   2.399  0.9359 -0.9759  2.1238
 5669TIP3    H238423   3.816   1.487   2.427  0.3424 -0.6146 -1.1437
 5670TIP3   OH238424   2.897   4.773   5.798  0.7312 -0.3408 -0.3939
 5670TIP3    H138425   2.949   4.692   5.807 -1.1750 -1.5069  1.1630
 5670TIP3    H238426   2.806   4.744   5.809 -0.2801  1.6618 -2.5976
 5671TIP3   OH238427   6.606   1.296  10.772 -0.2751 -0.3995  0.2884
 5671TIP3    H138428   6.640   1.383  10.794 -1.2426  0.4780 -1.4661
 5671TIP3    H238429   6.682   1.247  10.741  0.3146 -0.2780  1.4790
 5672TIP3   OH238430   0.565   2.041   1.029  0.1356  0.7885 -0.2272
 5672TIP3    H138431   0.654   2.041   0.995  0.1939  1.8739 -0.1118
 5672TIP3    H238432   0.558   2.123   1.077 -0.9247  0.7052 -0.2195
 5673TIP3   OH238433   0.495   6.509   1.325  0.3303  0.1868 -0.2874
 5673TIP3    H138434   0.588   6.492   1.307 -0.0776 -0.6800 -1.7474
 5673TIP3    H238435   0.474   6.585   1.269  0.5248  1.4497  1.2763
 5674TIP3   OH238436   1.996   4.370   0.476 -0.5284 -0.0793 -0.0242
 5674TIP3    H138437   1.937   4.300   0.506 -1.7953  0.5180 -1.0364
 5674TIP3    H238438   1.944   4.450   0.482  0.6358  0.6699  0.3313
 5675TIP3   OH238439   1.650   0.688   4.122  0.6763  0.4756  0.5727
 5675TIP3    H138440   1.601   0.621   4.169  0.0195  0.6171  0.1108
 5675TIP3    H238441   1.722   0.640   4.080  0.4005  0.1056  0.5098
 5676TIP3   OH238442   5.302   1.903  15.381  0.1508 -0.2654 -0.7307
 5676TIP3    H138443   5.299   1.953  15.463  1.5799 -1.5465  0.1704
 5676TIP3    H238444   5.279   1.966  15.313 -1.3806  0.7687  0.6598
 5677TIP3   OH238445   5.862   5.091  16.570 -0.2229  0.0450 -0.6957
 5677TIP3    H138446   5.796   5.045  16.622  0.5686 -0.9091 -0.5182
 5677TIP3    H238447   5.926   5.122  16.634 -0.1934  0.4733 -0.9279
 5678TIP3   OH238448   3.918   2.469  15.397 -0.0521  0.1626 -0.1510
 5678TIP3    H138449   3.861   2.493  15.469 -0.3484  2.0013 -0.9277
 5678TIP3    H238450   3.905   2.538  15.332  1.6232 -0.4037 -1.1644
 5679TIP3   OH238451   3.806   0.426   6.109  0.4618  0.0845 -0.1326
 5679TIP3    H138452   3.842   0.374   6.037 -2.3399  0.2711 -1.7949
 5679TIP3    H238453   3.793   0.363   6.180 -0.6134 -1.0070 -1.2615
 5680TIP3   OH238454   5.204   5.684  14.512 -0.4126 -0.1101  0.0083
 5680TIP3    H138455   5.274   5.703  14.451  1.3443  2.4086  2.5349
 5680TIP3    H238456   5.125   5.678  14.458  1.3587 -0.6396 -2.6832
 5681TIP3   OH238457   6.232   3.867  15.202  0.2550  0.0726  0.1464
 5681TIP3    H138458   6.227   3.848  15.296  1.5839 -2.0586 -0.1339
 5681TIP3    H238459   6.160   3.817  15.164  1.0930 -0.9393 -0.1622
 5682TIP3   OH238460   6.743   5.545   4.245 -0.1262 -0.2402  0.2836
 5682TIP3    H138461   6.721   5.469   4.299  1.3884 -0.0917  1.1620
 5682TIP3    H238462   6.814   5.514   4.189 -0.1394  0.2772 -0.0199
 5683TIP3   OH238463   1.548   2.637   2.348 -0.1028  0.4391 -0.2628
 5683TIP3    H138464   1.630   2.635   2.398  0.7936 -1.4893 -1.6909
 5683TIP3    H238465   1.494   2.568   2.389  0.5833 -1.0549 -1.7670
 5684TIP3   OH238466   6.081   4.698   2.987 -0.4645  0.1093 -0.5360
 5684TIP3    H138467   6.002   4.742   3.018 -0.7813 -0.4837 -0.4822
 5684TIP3    H238468   6.054   4.607   2.973  0.0402  0.0461 -1.1565
 5685TIP3   OH238469   6.480   6.266  13.956  0.1257 -0.2052 -0.9173
 5685TIP3    H138470   6.444   6.233  14.038 -0.3212  2.4345  0.0539
 5685TIP3    H238471   6.411   6.322  13.921  0.7101 -0.4912 -2.6077
 5686TIP3   OH238472   1.135   5.452  15.447 -0.1135  0.2204  0.2884
 5686TIP3    H138473   1.111   5.360  15.439 -1.0423  0.5074 -0.3594
 5686TIP3    H238474   1.055   5.500  15.426  0.6289  1.1878 -0.4068
 5687TIP3   OH238475   2.416   0.911  10.555  0.3941 -0.2882  0.3295
 5687TIP3    H138476   2.508   0.886  10.558  1.7156  3.7951  0.6027
 5687TIP3    H238477   2.400   0.954  10.639 -1.3636  0.2102 -0.2225
 5688TIP3   OH238478   5.490   6.077   2.130 -0.1828 -0.1867 -0.0170
 5688TIP3    H138479   5.395   6.072   2.140 -0.0678 -0.4115  1.0952
 5688TIP3    H238480   5.503   6.109   2.041 -1.2779 -1.5670 -0.7307
 5689TIP3   OH238481   2.992   5.195   3.532 -0.2693  0.7111 -0.0132
 5689TIP3    H138482   3.037   5.263   3.483 -1.5800  1.5057 -0.1574
 5689TIP3    H238483   3.055   5.168   3.599  0.5978  1.4103 -0.5316
 5690TIP3   OH238484   0.658   1.913   3.440 -0.6122 -0.1826 -0.4971
 5690TIP3    H138485   0.727   1.861   3.482 -1.5177 -3.4998 -2.7181
 5690TIP3    H238486   0.702   1.956   3.366 -0.3184  0.2927 -0.0493
 5691TIP3   OH238487   2.792   1.515  13.034  0.2789  0.0132  0.0970
 5691TIP3    H138488   2.706   1.528  12.992  0.1804  0.9282  0.5426
 5691TIP3    H238489   2.798   1.421  13.047 -1.4119  0.0537  1.5635
 5692TIP3   OH238490   3.878   4.781  15.305 -0.1121 -0.0812  0.3195
 5692TIP3    H138491   3.787   4.759  15.325 -0.0068  0.0077  0.9115
 5692TIP3    H238492   3.902   4.721  15.234 -0.8275  0.3261 -0.2699
 5693TIP3   OH238493   6.346   0.142   5.492 -0.4291  0.1424  0.1147
 5693TIP3    H138494   6.316   0.091   5.417 -1.0185 -0.7970  0.9689
 5693TIP3    H238495   6.266   0.177   5.531 -0.3207 -0.9866  1.4198
 5694TIP3   OH238496   3.629   1.845   6.323 -0.1343 -0.5820 -0.0940
 5694TIP3    H138497   3.605   1.827   6.414 -1.1176  0.6906 -0.0648
 5694TIP3    H238498   3.724   1.837   6.321 -0.1754 -1.5623  0.8117
 5695TIP3   OH238499   0.659   5.424   5.429  0.3247 -0.4132 -0.4523
 5695TIP3    H138500   0.670   5.493   5.495 -1.3399  0.7223 -1.3056
 5695TIP3    H238501   0.734   5.366   5.443  1.7995  1.5509  0.3161
 5696TIP3   OH238502   5.027   2.641  14.084  0.2920 -0.3192 -0.6443
 5696TIP3    H138503   4.976   2.658  14.005 -0.5615 -0.4651 -0.1444
 5696TIP3    H238504   5.042   2.546  14.083 -1.5644 -0.6821  0.4071
 5697TIP3   OH238505   0.401   5.824   3.034  0.0985  0.6359  0.1705
 5697TIP3    H138506   0.395   5.918   3.049  1.4359  0.8013 -0.1847
 5697TIP3    H238507   0.491   5.801   3.057  0.3206 -0.2260 -1.3859
 5698TIP3   OH238508   1.152   3.076   5.639  0.1750  0.1741 -0.5583
 5698TIP3    H138509   1.094   3.077   5.715  1.0054 -0.6309  0.1132
 5698TIP3    H238510   1.228   3.024   5.668  1.1894  1.1340 -1.4259
 5699TIP3   OH238511   2.577   0.535   1.443 -0.0932 -0.1499 -0.0285
 5699TIP3    H138512   2.527   0.567   1.368 -0.9732  0.7683  0.9246
 5699TIP3    H238513   2.602   0.446   1.418 -1.4044 -0.3026 -0.9061
 5700TIP3   OH238514   3.070   3.235   5.246 -0.6475 -0.3728 -0.0324
 5700TIP3    H138515   3.083   3.145   5.277  3.4286  0.8675  2.5503
 5700TIP3    H238516   3.030   3.281   5.319 -0.3787  0.4685 -0.3973
 5701TIP3   OH238517   5.571   3.274  16.631  0.2417  0.2522  0.3824
 5701TIP3    H138518   5.571   3.182  16.656 -0.3036  0.0070 -0.5044
 5701TIP3    H238519   5.502   3.282  16.565 -0.0098  1.3769  0.7488
 5702TIP3   OH238520   3.251   2.578   4.576 -0.7271  0.5703 -0.2947
 5702TIP3    H138521   3.290   2.656   4.617  1.4484 -0.3151 -0.5738
 5702TIP3    H238522   3.190   2.545   4.642 -0.4783  1.5964  0.4771
 5703TIP3   OH238523   0.602   0.411   1.841 -0.0825 -0.8354 -0.3449
 5703TIP3    H138524   0.556   0.492   1.863  2.0122 -0.2133  2.3564
 5703TIP3    H238525   0.537   0.342   1.854 -1.0813  0.2038  0.3391
 5704TIP3   OH238526   3.080   0.035   1.805  0.1919  0.6944  0.4092
 5704TIP3    H138527   2.999  -0.015   1.809 -0.0606  1.1180  0.6832
 5704TIP3    H238528   3.148  -0.029   1.783 -0.3586  0.4984 -0.7622
 5705TIP3   OH238529   1.722   2.885   0.577  0.2345 -0.7886 -0.0646
 5705TIP3    H138530   1.776   2.961   0.561  0.7605 -1.4123 -1.3762
 5705TIP3    H238531   1.706   2.847   0.491 -1.3876 -1.2482  0.3863
 5706TIP3   OH238532   3.354   0.859  16.063  0.3619  0.3801 -0.2640
 5706TIP3    H138533   3.325   0.768  16.070  1.5306  0.0315  0.3866
 5706TIP3    H238534   3.427   0.865  16.125  0.1426  1.8320 -0.1190
 5707TIP3   OH238535   5.511   4.546   4.011 -0.6984 -0.5143  0.4869
 5707TIP3    H138536   5.452   4.473   4.030 -1.0835 -0.4081 -0.2634
 5707TIP3    H238537   5.592   4.505   3.982 -0.8234 -0.6475  0.3270
 5708TIP3   OH238538   3.732   4.651   1.524 -0.6433 -0.0639  0.8388
 5708TIP3    H138539   3.791   4.608   1.462 -2.0021 -1.8148  0.6621
 5708TIP3    H238540   3.757   4.743   1.522  0.1863 -0.2802 -1.3695
 5709TIP3   OH238541   6.552   2.473  14.692 -0.3047 -0.7274  0.1035
 5709TIP3    H138542   6.488   2.544  14.700 -0.4497 -1.0388  2.6708
 5709TIP3    H238543   6.571   2.468  14.598 -2.1140  1.0578 -0.4359
 5710TIP3   OH238544   6.768   4.009  15.388  0.5260  0.3165 -0.0741
 5710TIP3    H138545   6.735   3.925  15.356 -0.4098  0.6273  0.0280
 5710TIP3    H238546   6.807   4.051  15.311 -0.0874  0.2912 -0.4066
 5711TIP3   OH238547   0.675   5.857   3.277  0.4691 -0.1196 -0.1845
 5711TIP3    H138548   0.685   5.935   3.332 -0.9058 -0.2069  0.2144
 5711TIP3    H238549   0.663   5.785   3.339 -0.7962 -0.2638 -0.5632
 5712TIP3   OH238550   3.818   0.707  12.241 -0.2626  0.1075  0.5292
 5712TIP3    H138551   3.830   0.632  12.299 -0.1273  0.3376  0.7997
 5712TIP3    H238552   3.856   0.781  12.288  2.0832 -0.1270 -0.8570
 5713TIP3   OH238553   6.523   0.718   3.627 -0.8160 -0.3716  0.0565
 5713TIP3    H138554   6.598   0.759   3.671 -1.1438  0.2586  0.0364
 5713TIP3    H238555   6.477   0.790   3.585 -0.9513 -0.8689 -0.6683
 5714TIP3   OH238556   2.500   2.910   4.545  0.1409 -0.2929  0.1104
 5714TIP3    H138557   2.491   2.816   4.527  0.9714 -0.5613  0.9906
 5714TIP3    H238558   2.570   2.939   4.486 -1.1826  0.1508 -1.3142
 5715TIP3   OH238559   1.169   4.821   6.689  0.4305  0.3114  0.1638
 5715TIP3    H138560   1.219   4.901   6.670  1.1249 -0.2833 -0.5306
 5715TIP3    H238561   1.077   4.850   6.689  0.7345  1.4222  1.4773
 5716TIP3   OH238562   5.119   1.845  13.606 -0.1290 -0.5096  0.7206
 5716TIP3    H138563   5.196   1.851  13.549 -0.5945 -2.2736 -0.1786
 5716TIP3    H238564   5.120   1.754  13.637 -0.9355 -0.0935  2.0592
 5717TIP3   OH238565   3.812   6.390  16.174  0.6187  0.7715  0.8273
 5717TIP3    H138566   3.726   6.351  16.159  0.8755  0.3458  0.4220
 5717TIP3    H238567   3.859   6.377  16.091  1.1042  0.9076  1.0788
 5718TIP3   OH238568   4.931   3.134  14.928 -0.1851 -0.1344  0.2249
 5718TIP3    H138569   4.853   3.123  14.983 -0.4880  0.8677  0.0123
 5718TIP3    H238570   4.960   3.044  14.910 -2.2290 -0.6275 -1.0051
 5719TIP3   OH238571   0.371   1.537   4.870  0.4987 -0.3362  0.4494
 5719TIP3    H138572   0.351   1.445   4.852 -2.1704  0.2210  0.1287
 5719TIP3    H238573   0.348   1.548   4.963  0.0487  0.1710  0.2824
 5720TIP3   OH238574   5.148   6.610  14.742  0.1131  0.5384 -0.1131
 5720TIP3    H138575   5.191   6.652  14.817  0.3246  2.9201 -1.4671
 5720TIP3    H238576   5.066   6.658  14.731 -1.4403 -1.8328  0.4377
 5721TIP3   OH238577   3.325   1.372  15.735  0.5086  0.5342 -0.3501
 5721TIP3    H138578   3.310   1.291  15.785 -2.2178  2.5284  2.4821
 5721TIP3    H238579   3.273   1.361  15.655 -1.1005 -0.0095  0.7167
 5722TIP3   OH238580   1.120   1.247   4.904  0.7180  0.0308 -0.6337
 5722TIP3    H138581   1.074   1.329   4.924 -2.7756 -1.7017 -0.7507
 5722TIP3    H238582   1.177   1.233   4.980 -0.4879  1.3462  0.5835
 5723TIP3   OH238583   2.736   3.910  15.570 -0.3100  0.2870  0.2673
 5723TIP3    H138584   2.784   3.911  15.487 -1.2917  1.6350 -0.3070
 5723TIP3    H238585   2.648   3.880  15.546 -0.1892 -0.7556  1.0771
 5724TIP3   OH238586   1.173   4.534   1.271 -0.1103  0.5462 -0.5165
 5724TIP3    H138587   1.210   4.461   1.223  2.6557  0.6235  1.2676
 5724TIP3    H238588   1.106   4.495   1.328 -0.0060 -0.2723 -0.9507
 5725TIP3   OH238589   6.018   6.689  13.824 -0.3131  0.1920  0.3902
 5725TIP3    H138590   6.078   6.667  13.894 -0.1036  0.3974  0.2753
 5725TIP3    H238591   6.018   6.784  13.821  0.5486  0.1681 -0.6379
 5726TIP3   OH238592   6.236   3.911  12.196  0.1181  0.5497  0.6564
 5726TIP3    H138593   6.250   4.005  12.197 -2.3120  1.2034 -3.8678
 5726TIP3    H238594   6.151   3.898  12.239  0.6108  0.2870  1.5968
 5727TIP3   OH238595   6.008   4.262   5.484 -0.7180  1.2017 -0.7262
 5727TIP3    H138596   6.010   4.167   5.476  0.1204  1.1252  0.1372
 5727TIP3    H238597   6.047   4.294   5.403  1.1948  0.7194 -0.0491
 5728TIP3   OH238598   0.512   3.476  15.205 -0.6241 -0.2935 -0.3770
 5728TIP3    H138599   0.445   3.456  15.271 -2.0735  1.8799 -1.0876
 5728TIP3    H238600   0.465   3.470  15.122  0.2103  0.6795 -0.9267
 5729TIP3   OH238601   0.167   5.034   6.244 -0.2893  0.4778 -0.0526
 5729TIP3    H138602   0.224   4.958   6.235 -0.9874  0.1513 -2.2831
 5729TIP3    H238603   0.121   5.020   6.327  2.0293  0.2319  1.2911
 5730TIP3   OH238604   1.162   0.320  15.909 -0.7386  0.7205  0.3586
 5730TIP3    H138605   1.128   0.403  15.942  0.0949  0.9860  0.5840
 5730TIP3    H238606   1.252   0.317  15.941  0.0050  0.8275 -1.5932
 5731TIP3   OH238607   2.932   3.620   2.612  0.3281  0.1221  0.2203
 5731TIP3    H138608   3.018   3.635   2.572  0.4400 -0.3693  0.2713
 5731TIP3    H238609   2.903   3.707   2.639  0.6861  0.3301 -0.0453
 5732TIP3   OH238610   5.364   2.504   5.396  0.1277  0.1062 -0.2073
 5732TIP3    H138611   5.322   2.434   5.446  0.3914  0.5618  0.6598
 5732TIP3    H238612   5.449   2.468   5.371  0.2402  0.0953  0.1906
 5733TIP3   OH238613   1.659   3.789   5.084  0.1277 -0.6775  0.5568
 5733TIP3    H138614   1.692   3.869   5.045 -0.4763 -0.4818  0.4460
 5733TIP3    H238615   1.722   3.721   5.056 -0.6489 -0.6813 -1.3393
 5734TIP3   OH238616   2.913   0.641   5.031  0.4825 -0.4833  0.7815
 5734TIP3    H138617   2.939   0.714   4.975 -0.7775  1.6212  2.7260
 5734TIP3    H238618   2.994   0.592   5.046  1.7433  1.4243  0.6165
 5735TIP3   OH238619   3.099   1.078   4.630 -0.2826 -0.1602  0.1456
 5735TIP3    H138620   3.027   1.019   4.610 -0.4177  0.1363 -0.2606
 5735TIP3    H238621   3.134   1.104   4.544 -0.4583  0.6288  0.3007
 5736TIP3   OH238622   4.904   0.148  14.419  0.2965  0.0365 -0.0088
 5736TIP3    H138623   4.984   0.182  14.459  0.7394  0.3526 -1.1148
 5736TIP3    H238624   4.908   0.054  14.434  1.3607 -0.0790 -0.8308
 5737TIP3   OH238625   0.620   1.376  11.496  0.2275  0.1603  0.2248
 5737TIP3    H138626   0.683   1.385  11.568  1.6515 -0.2682 -0.9119
 5737TIP3    H238627   0.563   1.452  11.506 -0.8366 -0.8559  2.8946
 5738TIP3   OH238628   0.783   2.992  13.183  0.7581 -0.2669  0.5135
 5738TIP3    H138629   0.772   3.051  13.108  0.0241 -0.7921  0.1956
 5738TIP3    H238630   0.821   3.047  13.252  1.3428  0.2417 -0.2085
 5739TIP3   OH238631   3.064   2.244   4.960  0.0055 -0.3335  0.0754
 5739TIP3    H138632   3.063   2.163   4.909  3.0539 -1.3698  1.4387
 5739TIP3    H238633   3.017   2.222   5.041 -0.0887 -0.3994  0.0024
 5740TIP3   OH238634   5.705   6.121  14.755  0.5139 -0.2431  0.1044
 5740TIP3    H138635   5.777   6.061  14.773 -0.4729 -1.7802 -0.8454
 5740TIP3    H238636   5.693   6.118  14.660  0.0808  1.0561  0.0951
 5741TIP3   OH238637   0.305   3.528  11.990 -0.3071  1.0786  0.2345
 5741TIP3    H138638   0.268   3.559  11.907  1.2541  0.8526 -0.5985
 5741TIP3    H238639   0.287   3.434  11.990  4.6722 -0.3099 -2.9149
 5742TIP3   OH238640   4.951   0.994  11.621 -0.1549  0.4473 -0.4835
 5742TIP3    H138641   5.038   0.993  11.581 -0.4158 -1.0265 -1.0947
 5742TIP3    H238642   4.915   1.079  11.598  0.7872  0.7298 -0.9727
 5743TIP3   OH238643   5.601   0.480   4.894 -0.4038  0.2904  0.7325
 5743TIP3    H138644   5.619   0.430   4.973  0.8947 -1.2074 -0.4326
 5743TIP3    H238645   5.599   0.571   4.923 -0.2167 -0.2375  2.5108
 5744TIP3   OH238646   5.598   2.535   1.589 -0.1181 -0.5211  0.2574
 5744TIP3    H138647   5.624   2.504   1.502  0.4123 -0.2736  0.3222
 5744TIP3    H238648   5.532   2.472   1.618 -0.3238 -0.5851 -0.3403
 5745TIP3   OH238649   5.937   4.753   2.121 -0.5536 -0.2154  0.0558
 5745TIP3    H138650   5.952   4.659   2.108 -3.8065 -0.7968 -0.2296
 5745TIP3    H238651   5.906   4.784   2.036  1.7445  1.5003 -0.2393
 5746TIP3   OH238652   2.942   3.334   4.639 -0.9634 -0.0666  0.0427
 5746TIP3    H138653   2.959   3.371   4.726 -0.3650  0.4448 -0.2830
 5746TIP3    H238654   2.854   3.363   4.617 -0.7116  0.7142  0.0322
 5747TIP3   OH238655   5.095   1.852   2.553 -0.5197  0.0322 -0.3980
 5747TIP3    H138656   5.101   1.941   2.519 -1.5136  0.0937 -0.4429
 5747TIP3    H238657   5.100   1.862   2.648 -0.0326  0.0781 -0.4285
 5748TIP3   OH238658   4.535   4.483  10.680 -1.0110 -0.4120 -0.0818
 5748TIP3    H138659   4.599   4.420  10.645 -0.7628 -1.9639  2.8155
 5748TIP3    H238660   4.589   4.554  10.714 -0.7104 -1.6250  2.1758
 5749TIP3   OH238661   4.856   6.336   5.899 -0.2299  0.0146  0.2620
 5749TIP3    H138662   4.769   6.357   5.934  0.0969 -0.8357  1.6737
 5749TIP3    H238663   4.876   6.249   5.935  1.2449  0.2440  0.0646
 5750TIP3   OH238664   1.935   2.490  12.447 -0.1126 -0.2700 -0.4819
 5750TIP3    H138665   1.987   2.523  12.520 -1.9047  1.9573 -0.1022
 5750TIP3    H238666   1.847   2.522  12.463 -1.0788 -1.6920 -2.4471
 5751TIP3   OH238667   6.478   4.134  11.038 -0.5017 -0.2916 -0.0237
 5751TIP3    H138668   6.494   4.068  10.970 -1.5922 -0.6671  0.0650
 5751TIP3    H238669   6.562   4.143  11.083  0.5667  0.7558 -2.0811
 5752TIP3   OH238670   1.554   5.141   4.073 -0.7397  0.5956  0.3997
 5752TIP3    H138671   1.539   5.164   4.165 -0.2078  0.1999  0.5941
 5752TIP3    H238672   1.601   5.058   4.077  1.6567  1.8509 -0.1440
 5753TIP3   OH238673   5.807   0.219  11.217  0.3128  0.0178 -0.2256
 5753TIP3    H138674   5.868   0.147  11.206  1.9618  1.4987 -1.2687
 5753TIP3    H238675   5.849   0.278  11.280 -0.4287  0.6473 -0.2957
 5754TIP3   OH238676   3.701   3.627  14.509 -0.0033 -0.1117  0.4480
 5754TIP3    H138677   3.638   3.564  14.545 -0.3556 -0.1140 -0.1675
 5754TIP3    H238678   3.649   3.704  14.490  0.3003  0.1134  0.5282
 5755TIP3   OH238679   6.771   1.685  16.196  0.1343 -0.0873 -0.1281
 5755TIP3    H138680   6.734   1.730  16.120  1.2234  0.8566 -0.1281
 5755TIP3    H238681   6.801   1.756  16.253 -0.2907 -0.7918  1.0014
 5756TIP3   OH238682   0.133   3.814  13.584  0.3934 -0.0575 -0.0401
 5756TIP3    H138683   0.146   3.790  13.493 -1.0072 -0.0782 -0.2585
 5756TIP3    H238684   0.221   3.829  13.618  0.9371 -0.1276 -1.3636
 5757TIP3   OH238685   6.394   0.999  16.606 -0.2536 -0.5656 -0.0942
 5757TIP3    H138686   6.321   1.042  16.650  0.2438 -0.6906  0.8757
 5757TIP3    H238687   6.366   0.992  16.514 -1.0269  0.3032  0.0623
 5758TIP3   OH238688   2.483   5.278   3.025  0.1339  0.2678 -0.0822
 5758TIP3    H138689   2.444   5.201   3.068 -0.1811  0.2014 -0.4830
 5758TIP3    H238690   2.414   5.344   3.027  0.3295  0.4680  0.0628
 5759TIP3   OH238691   2.279   0.437  14.089 -0.3046 -0.3626  0.3584
 5759TIP3    H138692   2.233   0.444  14.006  0.9442  2.4524 -0.2142
 5759TIP3    H238693   2.328   0.355  14.083 -0.7433 -0.5329 -1.3824
 5760TIP3   OH238694   6.377   6.743  15.643  0.4421 -0.3151  0.1187
 5760TIP3    H138695   6.362   6.701  15.558  0.9158 -0.1642 -0.0416
 5760TIP3    H238696   6.293   6.734  15.689 -0.2311  0.7808 -0.8576
 5761TIP3   OH238697   3.752   1.552   4.392 -0.0256 -0.0592 -0.4240
 5761TIP3    H138698   3.726   1.509   4.473 -0.8942  0.9487 -0.1536
 5761TIP3    H238699   3.821   1.613   4.418 -0.2572  0.2169 -0.4608
 5762TIP3   OH238700   6.234   2.801  16.614 -0.2677 -0.2093  0.1660
 5762TIP3    H138701   6.318   2.840  16.589 -0.7251  0.9403  0.3615
 5762TIP3    H238702   6.190   2.785  16.531 -0.1239 -0.1928  0.0850
 5763TIP3   OH238703   3.482   2.346  12.910 -0.3167  0.0543 -0.3698
 5763TIP3    H138704   3.534   2.284  12.860  0.2463 -0.7004  1.1044
 5763TIP3    H238705   3.546   2.398  12.959 -0.8672 -0.7686  1.3256
 5764TIP3   OH238706   0.483   5.869   1.954 -0.0271  0.3988  0.6194
 5764TIP3    H138707   0.478   5.811   1.878 -1.4112  0.0722  0.9266
 5764TIP3    H238708   0.558   5.839   2.004 -1.4317 -2.0018  1.4406
 5765TIP3   OH238709   1.462   3.185  12.550  0.0359  0.0063  0.5739
 5765TIP3    H138710   1.499   3.129  12.482  0.5448 -0.0057  0.8531
 5765TIP3    H238711   1.381   3.218  12.512  1.7816  2.5203 -1.3230
 5766TIP3   OH238712   0.135   4.813  11.709 -0.0327  0.3980  0.7717
 5766TIP3    H138713   0.132   4.798  11.614 -1.4658  0.2621  0.8233
 5766TIP3    H238714   0.221   4.780  11.735  0.6105  0.9506 -0.5588
 5767TIP3   OH238715   5.233   3.745  16.148 -1.0287  0.2511 -0.0020
 5767TIP3    H138716   5.295   3.798  16.199 -1.3348  1.2087 -0.5909
 5767TIP3    H238717   5.288   3.681  16.104 -0.5372  0.6136  0.0702
 5768TIP3   OH238718   1.569   3.448   4.255 -0.0671 -0.1527  0.1085
 5768TIP3    H138719   1.595   3.528   4.209 -0.7793  0.7010  1.1521
 5768TIP3    H238720   1.555   3.384   4.185 -0.9013  1.0378 -0.8560
 5769TIP3   OH238721   6.015   5.745  14.067 -0.0401  0.3010 -0.3149
 5769TIP3    H138722   6.046   5.727  14.156 -0.9856 -0.5895 -0.1369
 5769TIP3    H238723   6.042   5.668  14.016 -0.6531  0.1915 -0.4869
 5770TIP3   OH238724   1.982   2.821   3.052 -0.7074 -0.2009  0.4775
 5770TIP3    H138725   1.916   2.752   3.057  1.8296 -2.8330  0.0441
 5770TIP3    H238726   2.000   2.831   2.958 -1.5535  1.6817  0.4613
 5771TIP3   OH238727   0.000   2.350   1.967  0.0236 -0.7247 -0.3175
 5771TIP3    H138728  -0.070   2.301   1.925 -0.9505 -0.4765  0.9582
 5771TIP3    H238729  -0.045   2.417   2.019  1.2905  1.2399 -1.6159
 5772TIP3   OH238730   1.157   6.518   6.076  0.8448 -0.3385  0.5461
 5772TIP3    H138731   1.227   6.480   6.128  1.2183 -1.3675 -0.6467
 5772TIP3    H238732   1.100   6.562   6.139 -0.2177 -3.7834  2.2649
 5773TIP3   OH238733   5.969   3.754   0.860 -0.1104 -0.4320 -0.3328
 5773TIP3    H138734   6.019   3.796   0.931  1.2766 -0.7284 -1.0872
 5773TIP3    H238735   5.880   3.788   0.869  0.8934  2.6576 -0.8802
 5774TIP3   OH238736   3.466   5.817  13.561 -0.1302 -0.4777  0.5963
 5774TIP3    H138737   3.464   5.728  13.597  0.9683 -0.6856  0.1918
 5774TIP3    H238738   3.529   5.812  13.489 -1.0747  0.3179 -0.3027
 5775TIP3   OH238739   4.675   3.566   6.530 -0.0839 -0.5881  0.0448
 5775TIP3    H138740   4.643   3.648   6.493  0.3209 -0.7822 -0.7594
 5775TIP3    H238741   4.728   3.593   6.605 -0.0649 -0.1194 -0.1324
 5776TIP3   OH238742   5.892   2.123  16.523  0.1105  0.3404 -0.1237
 5776TIP3    H138743   5.893   2.214  16.493  1.0962  0.0992 -0.8819
 5776TIP3    H238744   5.879   2.129  16.617  1.4358  1.3378  0.0176
 5777TIP3   OH238745   2.160   4.906   5.592  0.6183 -0.0103 -0.1573
 5777TIP3    H138746   2.108   4.861   5.658  1.3250 -1.8136 -0.7615
 5777TIP3    H238747   2.186   4.988   5.633 -0.9080 -0.0356  0.9150
 5778TIP3   OH238748   3.573   3.161   2.456  0.1539 -0.4633 -0.4817
 5778TIP3    H138749   3.492   3.122   2.491 -0.5829 -0.9391 -2.5702
 5778TIP3    H238750   3.634   3.087   2.450  1.0552  0.0045  1.6908
 5779TIP3   OH238751   2.741   3.238   3.585  0.1236 -0.3180  0.4237
 5779TIP3    H138752   2.650   3.211   3.598  0.0675  0.0732  0.9257
 5779TIP3    H238753   2.757   3.226   3.492 -0.5629 -0.0508  0.2636
 5780TIP3   OH238754   1.352   3.583  15.515 -0.4918  0.3358 -0.2551
 5780TIP3    H138755   1.382   3.613  15.600 -2.0350  2.4360 -0.3916
 5780TIP3    H238756   1.353   3.661  15.460 -1.8325 -0.4720 -1.4881
 5781TIP3   OH238757   3.322   3.876   6.447 -0.1023 -0.5516  0.7894
 5781TIP3    H138758   3.309   3.969   6.430 -1.8723 -0.8442  0.4072
 5781TIP3    H238759   3.399   3.853   6.395 -1.1434  0.1628 -1.1789
 5782TIP3   OH238760   0.496   0.998   3.312  0.7393 -0.2709 -0.4467
 5782TIP3    H138761   0.436   1.022   3.241 -0.8574 -1.2163  0.5290
 5782TIP3    H238762   0.496   0.902   3.311  2.6759 -0.2960 -0.7456
 5783TIP3   OH238763   6.246   1.995  15.038 -0.1085 -0.1684  0.1497
 5783TIP3    H138764   6.274   1.967  15.126  0.6700  0.6084  0.1590
 5783TIP3    H238765   6.315   1.963  14.980  0.8916  1.8128  0.1743
 5784TIP3   OH238766   1.885   1.019   2.277 -0.5597  0.3394  0.3128
 5784TIP3    H138767   1.845   0.997   2.194  0.1482  0.0915  0.0321
 5784TIP3    H238768   1.915   0.936   2.313 -0.3311  0.5158  0.5363
 5785TIP3   OH238769   1.672   3.069   3.786  0.1836  0.6004 -0.1105
 5785TIP3    H138770   1.700   3.158   3.764  0.7375  0.8288  1.3488
 5785TIP3    H238771   1.710   3.054   3.873 -2.0242 -0.1217  0.7790
 5786TIP3   OH238772   1.907   0.405   5.297 -0.2041  0.2004 -0.0150
 5786TIP3    H138773   1.812   0.398   5.288 -0.2576  0.0725  0.5731
 5786TIP3    H238774   1.940   0.320   5.268 -0.4105 -0.4170  1.4718
 5787TIP3   OH238775   5.624   4.118   4.135 -0.1953 -0.1928 -0.5164
 5787TIP3    H138776   5.586   4.055   4.196 -1.4858  1.1414  0.1458
 5787TIP3    H238777   5.706   4.144   4.175 -1.6040  1.6148  1.4214
 5788TIP3   OH238778   5.755   1.314  12.294 -0.1146 -0.6611  0.5683
 5788TIP3    H138779   5.696   1.382  12.327 -0.3346 -0.7778  0.4207
 5788TIP3    H238780   5.739   1.239  12.350 -2.4228 -1.7469 -1.3547
 5789TIP3   OH238781   5.137   5.306   5.449 -0.6803 -0.9410  0.3441
 5789TIP3    H138782   5.050   5.326   5.484  0.7413  3.2344  2.1391
 5789TIP3    H238783   5.134   5.337   5.358 -0.9540 -0.2570  0.5778
 5790TIP3   OH238784   5.303   5.733  11.881 -0.0400  0.0213 -0.0686
 5790TIP3    H138785   5.325   5.697  11.795  1.5880 -0.3036  0.4465
 5790TIP3    H238786   5.319   5.827  11.873  1.7028 -0.2076  0.2993
 5791TIP3   OH238787   4.920   4.590  16.064 -0.1642 -0.2705 -0.2533
 5791TIP3    H138788   4.933   4.685  16.066 -1.6089 -0.0572  0.0185
 5791TIP3    H238789   4.907   4.566  16.155 -1.5253 -0.4599 -0.4863
 5792TIP3   OH238790   0.281   0.386   2.010  0.0678  0.6234 -0.2347
 5792TIP3    H138791   0.288   0.419   1.921 -0.0412  0.3091 -0.3625
 5792TIP3    H238792   0.331   0.448   2.063  0.2939  0.7054 -0.5435
 5793TIP3   OH238793   6.151   0.096  15.904  0.2991 -0.0271 -0.7505
 5793TIP3    H138794   6.167   0.124  15.814 -1.1641  1.4358 -0.6107
 5793TIP3    H238795   6.137   0.002  15.898 -0.7829  0.1900 -2.2244
 5794TIP3   OH238796   6.659   1.711   5.173 -0.2303 -0.3382  0.2597
 5794TIP3    H138797   6.594   1.695   5.242 -2.0461  1.4148 -0.9395
 5794TIP3    H238798   6.614   1.769   5.111  1.6423 -1.1116 -1.9460
 5795TIP3   OH238799   3.482   1.642  16.361  0.0861  0.4274  0.8704
 5795TIP3    H138800   3.431   1.625  16.282  0.8376 -1.1793  0.6861
 5795TIP3    H238801   3.568   1.603  16.343  0.3465  0.2228  2.3955
 5796TIP3   OH238802   6.023   5.877   2.319 -0.2636  0.6706 -0.0177
 5796TIP3    H138803   5.978   5.949   2.275  1.5054  2.3621  0.8318
 5796TIP3    H238804   6.059   5.824   2.249 -2.4160 -0.0210 -0.6846
 5797TIP3   OH238805   4.474   4.124  14.590 -0.3813 -0.6919 -0.3848
 5797TIP3    H138806   4.428   4.062  14.647  1.2563 -1.1224  0.5121
 5797TIP3    H238807   4.561   4.086  14.578  0.5141  1.2008 -0.1944
 5798TIP3   OH238808   0.416   0.602  14.328 -0.6997  0.2486 -0.2290
 5798TIP3    H138809   0.478   0.569  14.393 -0.1626 -1.3106 -1.4737
 5798TIP3    H238810   0.469   0.653  14.267 -1.0938  1.1289  0.1382
 5799TIP3   OH238811   3.292   0.198  12.217  0.5446 -0.7717 -0.4873
 5799TIP3    H138812   3.363   0.154  12.264 -0.3868 -1.1524  0.6172
 5799TIP3    H238813   3.231   0.128  12.195 -0.8777 -0.1249  1.1362
 5800TIP3   OH238814   1.964   3.645  15.704 -0.1280  0.1298  0.8107
 5800TIP3    H138815   1.934   3.567  15.748 -2.8637  0.4566 -0.2852
 5800TIP3    H238816   1.924   3.718  15.751 -0.0183  0.6935  0.0732
 5801TIP3   OH238817   3.553   1.160   4.787  0.5131  0.1241  0.9327
 5801TIP3    H138818   3.536   1.213   4.865  0.1718  0.2029  0.8058
 5801TIP3    H238819   3.467   1.125   4.762  0.9225 -1.5135  1.7428
 5802TIP3   OH238820   0.316   0.707   0.079 -0.0207 -0.4145 -0.1048
 5802TIP3    H138821   0.257   0.730   0.151  1.0767  1.3183  0.3120
 5802TIP3    H238822   0.272   0.741   0.001 -0.9075 -1.7269 -0.2181
 5803TIP3   OH238823   3.081   2.386   3.128  0.1544  0.2801 -0.8655
 5803TIP3    H138824   3.100   2.304   3.082 -1.0492 -0.0794 -0.7541
 5803TIP3    H238825   3.037   2.359   3.209  0.0022  1.0166 -0.6918
 5804TIP3   OH238826   5.056   2.481   1.658 -0.0944  0.6012  0.1149
 5804TIP3    H138827   5.117   2.449   1.591 -0.5282  0.7229 -0.3359
 5804TIP3    H238828   5.113   2.521   1.724  0.5209 -1.4359  0.9118
 5805TIP3   OH238829   1.579   3.198   4.076  0.6480  0.7714  0.4818
 5805TIP3    H138830   1.665   3.160   4.095  0.1021 -0.5528  0.4230
 5805TIP3    H238831   1.591   3.246   3.994  1.3752  0.7780  0.5850
 5806TIP3   OH238832   4.679   5.120   1.321 -0.5457  0.0014 -0.1004
 5806TIP3    H138833   4.628   5.039   1.317  0.4102 -0.7413  1.5380
 5806TIP3    H238834   4.765   5.093   1.355  0.4320  1.4408 -1.2955
 5807TIP3   OH238835   4.165   0.033  12.908  0.2447 -0.3375  0.2829
 5807TIP3    H138836   4.252   0.062  12.933  0.5541 -0.5793 -0.4788
 5807TIP3    H238837   4.152  -0.049  12.955  0.8675 -0.8535 -0.4177
 5808TIP3   OH238838   4.166   5.727   2.692 -0.4980  0.1460 -0.2295
 5808TIP3    H138839   4.161   5.648   2.747  1.2277  0.3310  0.2324
 5808TIP3    H238840   4.169   5.694   2.603 -0.1295 -0.2888 -0.0552
 5809TIP3   OH238841   6.341   1.028   2.292  0.2453  0.4568 -0.3440
 5809TIP3    H138842   6.250   1.041   2.265  0.0598 -1.8883 -1.0927
 5809TIP3    H238843   6.335   0.979   2.374  0.8910  3.2950  1.5776
 5810TIP3   OH238844   1.519   5.554  12.865  0.5457 -0.9245 -0.6737
 5810TIP3    H138845   1.585   5.520  12.925  0.3771 -0.8350 -0.4290
 5810TIP3    H238846   1.546   5.645  12.848  2.2480 -1.7976 -3.1243
 5811TIP3   OH238847   3.478   4.804   3.890  0.8303 -0.2471 -0.0328
 5811TIP3    H138848   3.419   4.797   3.815 -0.9397 -1.1534  1.3579
 5811TIP3    H238849   3.437   4.868   3.948  1.5160 -0.4674  0.7194
 5812TIP3   OH238850   5.343   1.760   2.287  0.0291  0.4042 -0.1673
 5812TIP3    H138851   5.435   1.778   2.274  0.4862 -1.4521  0.1463
 5812TIP3    H238852   5.297   1.833   2.246  1.6393  2.3508  1.3281
 5813TIP3   OH238853   4.324   2.756  14.854  0.1355  0.3040 -0.1669
 5813TIP3    H138854   4.396   2.810  14.822  0.6438 -0.3500 -0.1551
 5813TIP3    H238855   4.278   2.728  14.774  1.1531 -0.9835 -0.3373
 5814TIP3   OH238856   6.371   3.302  10.591 -0.0202 -0.1333 -0.5069
 5814TIP3    H138857   6.416   3.240  10.648 -0.3642 -0.6557 -0.7998
 5814TIP3    H238858   6.306   3.249  10.544  0.6075  0.1704 -1.7680
 5815TIP3   OH238859   0.710   4.510   5.579  0.4314 -0.1469 -0.2345
 5815TIP3    H138860   0.657   4.445   5.626 -1.7614  1.4261 -0.3554
 5815TIP3    H238861   0.769   4.458   5.524 -0.3849 -2.0123  0.5631
 5816TIP3   OH238862   6.083   0.635   1.836  0.6591  0.2009 -0.6942
 5816TIP3    H138863   6.159   0.603   1.884  0.4199 -0.0868 -0.5012
 5816TIP3    H238864   6.069   0.570   1.767  0.0077 -0.2686 -0.1341
 5817TIP3   OH238865   2.397   6.439  14.200 -0.4378 -0.0766 -0.6056
 5817TIP3    H138866   2.429   6.507  14.141 -0.7567  0.7215  0.1093
 5817TIP3    H238867   2.306   6.424  14.173 -1.0203  1.2579  0.4912
 5818TIP3   OH238868   2.809   3.445  13.259 -0.2722 -0.3789 -0.0638
 5818TIP3    H138869   2.750   3.389  13.208  1.9521 -1.0483 -2.0825
 5818TIP3    H238870   2.814   3.402  13.345 -1.2653 -1.3316 -0.4590
 5819TIP3   OH238871   2.387   5.142  12.927 -0.0189  0.7906  0.2659
 5819TIP3    H138872   2.345   5.185  12.853  0.0294  0.5205  0.0839
 5819TIP3    H238873   2.373   5.049  12.914  1.5018  0.6152 -0.3497
 5820TIP3   OH238874   5.065   3.994   5.216 -0.1229  0.0796  0.4562
 5820TIP3    H138875   5.045   3.905   5.245 -0.8629  0.4001  0.9556
 5820TIP3    H238876   4.986   4.025   5.172  1.1890 -0.6332 -2.6642
 5821TIP3   OH238877   4.323   5.619  14.241 -0.3199  0.2236  0.0233
 5821TIP3    H138878   4.320   5.591  14.150 -0.2676  2.8641 -0.8951
 5821TIP3    H238879   4.413   5.651  14.253 -0.5130  0.4968  0.8056
 5822TIP3   OH238880   6.108   3.787   5.077  0.7179 -0.0501  0.0252
 5822TIP3    H138881   6.180   3.847   5.061  0.3812  0.5308  0.6076
 5822TIP3    H238882   6.146   3.717   5.130  0.4872  1.1757  1.8864
 5823TIP3   OH238883   5.027   0.248  13.548 -0.0896  0.7484  0.0706
 5823TIP3    H138884   5.020   0.275  13.456 -1.1369  2.2989  0.5533
 5823TIP3    H238885   5.000   0.326  13.598 -1.6058 -0.6726  1.6338
 5824TIP3   OH238886   3.094   1.493  13.496  0.9257  0.5429 -0.2032
 5824TIP3    H138887   3.111   1.587  13.499 -1.0099  0.9252  0.0944
 5824TIP3    H238888   3.013   1.485  13.448 -0.1127 -0.7737  1.6294
 5825TIP3   OH238889   2.466   1.876   2.790 -0.2046 -0.2649 -0.2431
 5825TIP3    H138890   2.442   1.787   2.763 -0.5574  0.5600 -2.9138
 5825TIP3    H238891   2.438   1.881   2.882 -0.6137 -2.7344 -0.1609
 5826TIP3   OH238892   6.390   3.255  13.065 -0.5726 -0.0264 -0.7435
 5826TIP3    H138893   6.332   3.322  13.029 -0.2801  0.7631  0.2125
 5826TIP3    H238894   6.474   3.270  13.022  0.3979  2.3128  1.6729
 5827TIP3   OH238895   4.917   3.321   1.050 -0.0058 -0.2936  0.0485
 5827TIP3    H138896   4.996   3.267   1.042  1.2732  1.6401 -1.0676
 5827TIP3    H238897   4.933   3.377   1.126 -0.3196  0.0972 -0.1682
 5828TIP3   OH238898   3.278   6.054   5.095  0.6431  0.6045  0.0875
 5828TIP3    H138899   3.281   6.013   5.182 -0.7660 -0.7738 -0.4601
 5828TIP3    H238900   3.227   6.134   5.108  0.5353  0.4658  0.5353
 5829TIP3   OH238901   1.025   5.537  14.248 -0.3225  0.0330  0.4485
 5829TIP3    H138902   1.022   5.494  14.333  1.1961  0.4579  0.7553
 5829TIP3    H238903   1.111   5.579  14.246 -0.0569 -0.4947 -1.5463
 5830TIP3   OH238904   6.151   6.227  13.947 -0.9737 -0.1718  0.2545
 5830TIP3    H138905   6.149   6.242  13.853  0.2271 -0.0269  0.2351
 5830TIP3    H238906   6.079   6.166  13.963 -0.1669 -1.5235 -1.0102
 5831TIP3   OH238907   0.333   0.651   1.025  0.2237 -0.3513 -0.4683
 5831TIP3    H138908   0.276   0.622   0.954 -1.0363 -0.4776  0.5398
 5831TIP3    H238909   0.295   0.734   1.054  0.9374 -0.1139 -0.1935
 5832TIP3   OH238910   0.208   0.708   1.614 -0.0713 -0.1158 -0.0074
 5832TIP3    H138911   0.262   0.630   1.601  0.3581  0.0684  0.5755
 5832TIP3    H238912   0.121   0.684   1.583  0.2430 -0.5703 -0.5388
 5833TIP3   OH238913   4.444   5.276   4.517 -0.0136 -0.2471  0.1568
 5833TIP3    H138914   4.435   5.272   4.422 -0.4989  1.1740  0.1307
 5833TIP3    H238915   4.355   5.264   4.550  0.4576 -3.5002  0.5964
 5834TIP3   OH238916   4.634   5.901   5.234 -0.2963 -0.0120  0.1155
 5834TIP3    H138917   4.581   5.934   5.306 -0.8065  0.8437 -0.6389
 5834TIP3    H238918   4.610   5.955   5.158  1.5012  0.2762 -0.3018
 5835TIP3   OH238919   5.849   1.353   2.397  0.0651  0.5424  0.5008
 5835TIP3    H138920   5.811   1.381   2.313 -1.0091 -0.7380  0.5303
 5835TIP3    H238921   5.778   1.366   2.460 -0.5817 -2.3717  0.4768
 5836TIP3   OH238922   1.998   4.560  15.243  0.4978  0.7067  0.5004
 5836TIP3    H138923   2.053   4.548  15.320  0.1450 -0.8299  0.5485
 5836TIP3    H238924   1.967   4.472  15.222 -2.2334  1.5513  0.6800
 5837TIP3   OH238925   3.412   4.729  16.515 -0.5810  0.4194  0.4401
 5837TIP3    H138926   3.392   4.691  16.601 -0.1352 -1.1374 -0.1193
 5837TIP3    H238927   3.357   4.679  16.454 -1.2060  1.7925 -0.1533
 5838TIP3   OH238928   5.762   5.132  10.628 -0.3267  0.1949  0.0041
 5838TIP3    H138929   5.738   5.047  10.664  3.3123 -0.2830  1.7884
 5838TIP3    H238930   5.779   5.115  10.535  0.8070 -1.2021  0.4335
 5839TIP3   OH238931   5.085   3.671   4.031 -0.2085 -0.3507  0.1687
 5839TIP3    H138932   5.175   3.639   4.040 -0.3038 -0.1237  2.4116
 5839TIP3    H238933   5.035   3.619   4.093 -1.0820  1.4773  1.0486
 5840TIP3   OH238934   2.607   3.401   1.718  0.4804  0.2798 -0.5747
 5840TIP3    H138935   2.681   3.403   1.779  0.2296 -1.7010 -0.1358
 5840TIP3    H238936   2.551   3.474   1.745  1.5272  0.8870  0.0260
 5841TIP3   OH238937   2.623   3.926   3.285  0.0331  0.3277 -0.1997
 5841TIP3    H138938   2.629   4.022   3.292 -0.0425  0.3662 -0.6484
 5841TIP3    H238939   2.555   3.903   3.349 -0.5713  0.6648 -0.7030
 5842TIP3   OH238940   6.623   4.535   6.428  0.3363  0.1438  0.4372
 5842TIP3    H138941   6.535   4.504   6.451  0.5058 -0.3330  0.4674
 5842TIP3    H238942   6.670   4.455   6.402  1.0452  0.2563  1.3433
 5843TIP3   OH238943   1.969   0.547  11.631  0.5105 -0.6523 -0.1774
 5843TIP3    H138944   1.994   0.595  11.551  0.3568  0.8347  0.6198
 5843TIP3    H238945   1.948   0.459  11.600 -0.8231  0.2285 -1.9889
 5844TIP3   OH238946   5.718   4.578   4.850 -0.4561 -0.2562 -0.5193
 5844TIP3    H138947   5.807   4.589   4.817  0.0905  0.4370  1.0921
 5844TIP3    H238948   5.719   4.493   4.894 -0.5522 -0.1829 -0.3752
 5845TIP3   OH238949   4.018   1.790  11.165 -0.3177  0.1151 -0.3611
 5845TIP3    H138950   3.943   1.762  11.218  0.7020  1.1408  1.7510
 5845TIP3    H238951   4.008   1.885  11.157 -0.1967  0.0334 -1.6511
 5846TIP3   OH238952   5.593   3.970   6.104  0.2700 -0.1244  0.0554
 5846TIP3    H138953   5.591   3.988   6.198 -0.8389 -1.5870  0.3514
 5846TIP3    H238954   5.502   3.982   6.075  0.2381 -1.4127 -0.4455
 5847TIP3   OH238955   6.247   2.250   1.424 -0.3607 -0.0911  0.1070
 5847TIP3    H138956   6.158   2.252   1.389 -0.5841 -2.3658  0.3425
 5847TIP3    H238957   6.237   2.215   1.513  0.6964  0.3201  0.4015
 5848TIP3   OH238958   3.318   2.803   2.513 -0.5534 -0.1563 -0.2143
 5848TIP3    H138959   3.273   2.781   2.595 -0.8503  0.6647 -0.1522
 5848TIP3    H238960   3.270   2.755   2.446  0.2738 -1.6093  0.1797
 5849TIP3   OH238961   0.189   6.403  11.171  0.2429  0.2322 -0.2660
 5849TIP3    H138962   0.246   6.332  11.143  1.5333  1.0070  0.3327
 5849TIP3    H238963   0.232   6.483  11.139 -0.9511  0.7901 -0.5547
 5850TIP3   OH238964   5.811   2.368   0.831  0.4146 -0.0672  0.2691
 5850TIP3    H138965   5.739   2.327   0.879  0.4257 -0.0237  0.3236
 5850TIP3    H238966   5.883   2.373   0.895  0.2435  0.5181  0.4266
 5851TIP3   OH238967   4.990   5.948  13.943 -0.0406 -0.5429 -0.2034
 5851TIP3    H138968   4.933   5.986  13.876 -1.1016 -1.3139  0.2324
 5851TIP3    H238969   5.068   6.003  13.942 -1.5447  1.7205  0.4901
 5852TIP3   OH238970   1.310   3.389  15.303 -0.0217 -0.6325 -0.3592
 5852TIP3    H138971   1.323   3.454  15.372  1.0019 -0.7479 -0.4361
 5852TIP3    H238972   1.273   3.439  15.230 -0.3319 -0.3577 -0.0179
 5853TIP3   OH238973   3.342   3.646  15.108  0.1137 -0.2684  0.3248
 5853TIP3    H138974   3.257   3.633  15.149  0.9419 -2.4881  1.4667
 5853TIP3    H238975   3.355   3.568  15.055  0.8679  0.6964 -0.9818
 5854TIP3   OH238976   1.034   3.024   5.194 -0.7875 -0.2677  0.2000
 5854TIP3    H138977   0.958   2.970   5.170  1.0204 -2.0002 -2.0706
 5854TIP3    H238978   1.060   3.065   5.112  0.1967  1.0564  1.1458
 5855TIP3   OH238979   6.420   0.477   2.535 -0.4510  0.3300  0.7192
 5855TIP3    H138980   6.364   0.498   2.461 -0.9323 -1.5097  0.5287
 5855TIP3    H238981   6.432   0.561   2.581 -1.8278  1.0892 -0.2615
 5856TIP3   OH238982   5.080   6.281   5.015  0.1896  0.0170  0.1853
 5856TIP3    H138983   5.041   6.237   5.091  0.0376 -0.7632 -0.3253
 5856TIP3    H238984   5.036   6.241   4.939 -0.6539  1.7254 -0.2877
 5857TIP3   OH238985   5.667   4.917   5.388 -0.3359 -0.3721 -0.2335
 5857TIP3    H138986   5.716   4.836   5.398 -0.2233 -0.2942 -0.1559
 5857TIP3    H238987   5.692   4.970   5.463 -0.1714 -0.1442 -0.4446
 5858TIP3   OH238988   0.372   0.117   2.133  0.2872 -0.3150 -0.2487
 5858TIP3    H138989   0.310   0.052   2.100  0.0048 -0.0347 -0.2673
 5858TIP3    H238990   0.318   0.188   2.166  0.5571 -0.6970  1.0850
 5859TIP3   OH238991   3.352   1.542   4.082 -0.8270  0.4927 -0.1003
 5859TIP3    H138992   3.324   1.482   4.151  1.8969 -1.0547 -0.2012
 5859TIP3    H238993   3.345   1.629   4.122  0.6027 -0.3377  2.1925
 5860TIP3   OH238994   0.579   2.364   1.816  0.3500  0.4612 -0.0061
 5860TIP3    H138995   0.515   2.316   1.869  2.2046 -2.2737 -0.0391
 5860TIP3    H238996   0.590   2.447   1.862  0.3955 -0.9791  2.8280
 5861TIP3   OH238997   3.931   2.906   1.823  1.1138 -0.4921 -0.0194
 5861TIP3    H138998   4.024   2.926   1.820  1.1253 -0.4424  0.5368
 5861TIP3    H238999   3.922   2.827   1.770  1.2738  0.1993 -1.1017
 5862TIP3   OH239000   4.750   4.824   5.231 -0.5034  0.3920 -0.2476
 5862TIP3    H139001   4.710   4.737   5.242 -0.7875  0.5349 -0.1500
 5862TIP3    H239002   4.687   4.884   5.270 -0.3128  0.6452 -0.3319
 5863TIP3   OH239003   4.894   4.019  14.765 -0.3780 -0.2605 -0.6839
 5863TIP3    H139004   4.925   3.990  14.680  1.0096  0.2753 -0.4048
 5863TIP3    H239005   4.906   3.944  14.822 -1.4720 -0.6739 -0.9903
 5864TIP3   OH239006   2.233   2.785  16.390  0.0135 -0.7856  1.1566
 5864TIP3    H139007   2.291   2.743  16.453  0.4406 -0.9603  0.6573
 5864TIP3    H239008   2.281   2.782  16.307 -0.3301 -0.1240  0.9242
 5865TIP3   OH239009   2.335   1.871   3.742  0.5556 -0.0604 -0.0388
 5865TIP3    H139010   2.320   1.787   3.699  0.5309 -0.4315  0.6908
 5865TIP3    H239011   2.351   1.932   3.670 -2.3522 -0.0353 -0.7744
 5866TIP3   OH239012   0.460   0.903  12.129  0.2190  0.4332 -0.2784
 5866TIP3    H139013   0.553   0.923  12.123  0.5725 -0.2087  2.1909
 5866TIP3    H239014   0.418   0.989  12.137  0.9090  0.6504  1.4450
 5867TIP3   OH239015   1.978   3.949   1.481 -0.0564  0.3759 -0.0700
 5867TIP3    H139016   1.885   3.968   1.479 -0.1513 -0.0629  0.2957
 5867TIP3    H239017   1.996   3.922   1.571 -0.1031 -2.1873 -0.7624
 5868TIP3   OH239018   3.898   1.416   0.798 -0.6433  0.2728 -0.2182
 5868TIP3    H139019   3.992   1.397   0.795 -0.9485 -1.9134  1.5282
 5868TIP3    H239020   3.870   1.413   0.706  0.3531 -3.0952 -0.5322
 5869TIP3   OH239021   0.794   2.035  12.609  0.3187  0.8127  0.4960
 5869TIP3    H139022   0.840   2.030  12.525 -0.0738 -1.2131  0.3471
 5869TIP3    H239023   0.830   1.963  12.660 -2.6932 -0.9637  0.3377
 5870TIP3   OH239024   5.823   1.829   4.001  0.8900 -0.1709 -0.9169
 5870TIP3    H139025   5.835   1.873   4.085 -1.4668 -2.5897  0.8678
 5870TIP3    H239026   5.749   1.875   3.962  0.3642 -0.6121 -0.4585
 5871TIP3   OH239027   5.792   3.812   4.266 -0.8919  0.1411 -0.4975
 5871TIP3    H139028   5.840   3.860   4.198  0.4310  0.4606  0.6123
 5871TIP3    H239029   5.705   3.798   4.229 -1.1424  2.8322 -1.1303
 5872TIP3   OH239030   2.368   4.672  12.641 -0.1507 -0.0077  0.3982
 5872TIP3    H139031   2.381   4.578  12.633  0.0483  0.0926 -0.5938
 5872TIP3    H239032   2.325   4.698  12.559  1.0230  0.9559  0.0468
 5873TIP3   OH239033   4.570   5.203   4.942 -0.3257 -0.4576 -0.2355
 5873TIP3    H139034   4.628   5.127   4.939 -1.8824 -1.6799 -0.8643
 5873TIP3    H239035   4.589   5.251   4.862  0.6381 -0.1866  0.1421
 5874TIP3   OH239036   4.148   6.316   1.678  0.0103 -0.5327 -0.0409
 5874TIP3    H139037   4.114   6.372   1.608  0.2235  0.8465  0.9262
 5874TIP3    H239038   4.079   6.252   1.693 -1.4180  1.1036  0.6440
 5875TIP3   OH239039   6.072   1.726   4.622  0.0446  0.3836 -0.1108
 5875TIP3    H139040   6.062   1.806   4.675  1.5287 -1.2794  2.9283
 5875TIP3    H239041   5.996   1.674   4.644  0.5183 -0.1905  0.1988
 5876TIP3   OH239042   1.607   0.619   2.132 -0.5615  0.2249  0.1012
 5876TIP3    H139043   1.573   0.700   2.095 -1.8209  0.2166  1.1491
 5876TIP3    H239044   1.539   0.590   2.192  0.0695 -1.3714  0.0985
 5877TIP3   OH239045   4.161   3.451   4.520  0.0817 -0.0032  0.6127
 5877TIP3    H139046   4.155   3.426   4.428  2.3580 -0.2559  0.4653
 5877TIP3    H239047   4.157   3.547   4.519  2.3965  0.1437 -0.0576
 5878TIP3   OH239048   6.556   0.349  15.109  0.1304  0.0937 -0.3359
 5878TIP3    H139049   6.612   0.410  15.158 -0.4167  1.0747 -0.8887
 5878TIP3    H239050   6.593   0.350  15.020 -0.1653 -0.0154 -0.4617
 5879TIP3   OH239051   0.756   2.231  11.551  0.0949 -0.2141 -0.2512
 5879TIP3    H139052   0.709   2.187  11.621 -0.5839 -2.0315 -1.7678
 5879TIP3    H239053   0.842   2.188  11.548 -0.6943 -1.8356 -1.9671
 5880TIP3   OH239054   1.341   3.408   1.766 -0.3482  0.7991 -0.2420
 5880TIP3    H139055   1.364   3.500   1.777 -1.0800  1.1142 -1.2006
 5880TIP3    H239056   1.251   3.401   1.795 -0.2635  0.3529 -0.0675
 5881TIP3   OH239057   4.313   0.970   3.781 -0.4450 -0.0487  0.4353
 5881TIP3    H139058   4.350   0.912   3.715 -0.7834  1.3101 -1.0154
 5881TIP3    H239059   4.218   0.957   3.774 -0.5808  1.2879 -0.5363
 5882TIP3   OH239060   4.806   1.000   0.258 -0.0515 -0.2214 -0.8712
 5882TIP3    H139061   4.811   0.905   0.251  1.7433 -0.3182  0.8227
 5882TIP3    H239062   4.760   1.016   0.341  2.5595  0.2498  0.5943
 5883TIP3   OH239063   4.918   5.009   1.432 -0.1352 -0.0926  0.0661
 5883TIP3    H139064   4.954   4.943   1.490 -1.2903  0.2490  1.2288
 5883TIP3    H239065   4.922   4.970   1.345  0.6456 -1.0452  0.5117
 5884TIP3   OH239066   4.087   1.468  10.531  0.1999  0.1519 -0.3511
 5884TIP3    H139067   4.072   1.392  10.587  0.1669  1.6477  1.8100
 5884TIP3    H239068   4.164   1.445  10.480  1.4926 -0.5766  1.7782
 5885TIP3   OH239069   4.540   0.723   2.302  0.3397 -0.3965  0.1036
 5885TIP3    H139070   4.480   0.782   2.347  0.1483 -0.5884  0.1021
 5885TIP3    H239071   4.548   0.648   2.362  0.0671 -0.6633 -0.1911
 5886TIP3   OH239072   5.050   1.920   2.855  0.2458 -0.8860  0.2189
 5886TIP3    H139073   4.977   1.969   2.817  1.0352 -0.7711 -1.2169
 5886TIP3    H239074   5.010   1.869   2.925 -1.2145 -0.8174 -0.5169
 5887TIP3   OH239075   2.869   3.450   3.764  0.2137 -0.3513  0.0785
 5887TIP3    H139076   2.948   3.437   3.815  0.5284  0.2988 -0.2298
 5887TIP3    H239077   2.888   3.411   3.678 -0.6741 -2.3567  0.7276
 5888TIP3   OH239078   3.693   6.527   3.560  0.0075  0.2536  0.0643
 5888TIP3    H139079   3.785   6.553   3.563  0.5209 -1.5049  1.1416
 5888TIP3    H239080   3.686   6.474   3.481 -0.4878  1.6838 -0.8805
 5889TIP3   OH239081   6.683   2.011   4.436 -0.0956  0.0536 -0.2247
 5889TIP3    H139082   6.623   2.008   4.510 -0.1589  0.1232 -0.2728
 5889TIP3    H239083   6.734   1.930   4.443 -0.4109 -0.1645 -0.3637
 5890TIP3   OH239084   0.516   5.372  16.527 -0.1796  0.2900  0.3894
 5890TIP3    H139085   0.458   5.387  16.452  0.3119 -1.3100 -0.3695
 5890TIP3    H239086   0.461   5.326  16.591 -1.4324  4.0308  2.3391
 5891TIP3   OH239087   4.204   6.010   2.675 -0.4455  0.3730 -0.2105
 5891TIP3    H139088   4.219   5.916   2.678 -1.1320  0.2784  0.2837
 5891TIP3    H239089   4.244   6.038   2.592  0.1712 -0.2724 -0.1362
 5892TIP3   OH239090   1.358   1.940   5.931 -0.6645 -0.2587 -0.1314
 5892TIP3    H139091   1.358   1.873   5.861  1.6232  0.8731 -1.3319
 5892TIP3    H239092   1.428   1.912   5.990 -0.1786  0.6954 -0.2522
 5893TIP3   OH239093   5.370   1.352  13.556 -0.3678 -0.0886  0.1512
 5893TIP3    H139094   5.310   1.289  13.597 -0.9837  1.7345  2.2866
 5893TIP3    H239095   5.364   1.430  13.612 -0.6340  2.3892 -3.0567
 5894TIP3   OH239096   2.735   6.020   6.288 -0.1514 -0.3894  0.3573
 5894TIP3    H139097   2.700   6.091   6.235 -0.8730  0.4503  1.8932
 5894TIP3    H239098   2.830   6.028   6.279 -0.2478 -0.7084 -1.3193
 5895TIP3   OH239099   5.369   4.735   5.128  0.8147  0.2300 -0.3754
 5895TIP3    H139100   5.415   4.808   5.087  3.4788 -0.1356  1.6933
 5895TIP3    H239101   5.330   4.773   5.207  1.6631 -0.4203  0.3687
 5896TIP3   OH239102   3.659   5.367  11.501  0.0445 -0.3857 -0.5219
 5896TIP3    H139103   3.597   5.439  11.491  0.6273  0.0218 -1.3733
 5896TIP3    H239104   3.605   5.288  11.498 -0.5497 -0.0028 -0.0881
 5897TIP3   OH239105   6.099   0.976   0.522 -0.4121  0.0550 -0.2008
 5897TIP3    H139106   6.086   1.019   0.607  0.3385  0.3953 -0.2475
 5897TIP3    H239107   6.074   1.042   0.457  0.2101  0.2436 -0.2604
 5898TIP3   OH239108   6.662   2.061  17.219 -0.0763  0.1881 -0.4843
 5898TIP3    H139109   6.674   2.140  17.272  0.3144 -0.8571  1.0560
 5898TIP3    H239110   6.572   2.035  17.236 -0.4730  0.7533 -1.6621
 5899TIP3   OH239111   6.753   4.436  13.413 -0.0689 -0.1089  0.4616
 5899TIP3    H139112   6.739   4.385  13.492  0.2588 -0.8168  0.0760
 5899TIP3    H239113   6.845   4.461  13.416 -0.6207  2.0961  1.5731
 5900TIP3   OH239114   6.314   3.241  10.252  0.2851 -0.0531  0.1566
 5900TIP3    H139115   6.393   3.192  10.277  0.1693  0.0251  0.6763
 5900TIP3    H239116   6.335   3.332  10.272 -0.2543 -0.1309  1.1193
 5901TIP3   OH239117   6.703   3.444   2.214 -0.3380 -0.3425 -0.1108
 5901TIP3    H139118   6.751   3.527   2.211 -0.2194 -0.2914  1.6880
 5901TIP3    H239119   6.772   3.377   2.218 -0.2667 -0.2547  2.8028
 5902TIP3   OH239120   1.489   0.741  16.069  0.3713 -0.1219 -0.1160
 5902TIP3    H139121   1.502   0.827  16.109  0.6874  0.0608 -0.6005
 5902TIP3    H239122   1.400   0.745  16.034  0.3066 -0.0691  0.0540
 5903TIP3   OH239123   6.511   3.215  12.788 -0.1945 -0.4026 -0.0554
 5903TIP3    H139124   6.586   3.232  12.730 -0.5828  0.9147 -0.1872
 5903TIP3    H239125   6.434   3.224  12.731 -0.5716  0.7603  0.6114
 5904TIP3   OH239126   0.821   5.557  14.507  0.2638 -0.0262 -1.0845
 5904TIP3    H139127   0.840   5.528  14.597 -1.5545  2.4133  0.2217
 5904TIP3    H239128   0.896   5.528  14.456  1.7317 -0.8914  1.3712
 5905TIP3   OH239129   2.599   0.379   2.702 -0.2852 -0.5434 -0.0270
 5905TIP3    H139130   2.522   0.326   2.685 -1.0692  0.6993 -0.4581
 5905TIP3    H239131   2.582   0.462   2.657  1.6211 -0.4962 -0.7618
 5906TIP3   OH239132   0.417   1.543  16.222  0.3883 -0.0235 -0.1689
 5906TIP3    H139133   0.358   1.534  16.148  1.4131 -0.9866 -0.9079
 5906TIP3    H239134   0.442   1.635  16.223  0.5164 -0.0378 -1.1587
 5907TIP3   OH239135   5.264   3.661   2.927  0.5223 -0.1536 -0.1499
 5907TIP3    H139136   5.248   3.664   3.022  1.8439  1.0780  0.0554
 5907TIP3    H239137   5.327   3.590   2.916 -0.2831 -0.8784 -0.2367
 5908TIP3   OH239138   3.182   4.272   2.275  0.2441  0.0723 -0.3430
 5908TIP3    H139139   3.254   4.315   2.230  1.5163 -1.7839 -0.1850
 5908TIP3    H239140   3.104   4.319   2.246  1.4698  2.1543 -0.5065
 5909TIP3   OH239141   2.695   1.970   0.066  0.1814 -0.1266  0.0820
 5909TIP3    H139142   2.631   1.941   0.001  0.9932  1.6724 -1.5917
 5909TIP3    H239143   2.722   2.057   0.037  0.7515  0.6723  2.7323
 5910TIP3   OH239144   3.980   5.356   1.280 -0.1989 -0.3309 -0.0646
 5910TIP3    H139145   3.939   5.271   1.291 -0.6414 -0.4363 -2.1133
 5910TIP3    H239146   4.024   5.373   1.363 -0.4306 -2.3682  0.5148
 5911TIP3   OH239147   6.062   2.804  14.018 -0.0046  0.5062 -0.3564
 5911TIP3    H139148   6.079   2.728  13.963 -1.1295  1.0262 -1.4889
 5911TIP3    H239149   6.004   2.859  13.965 -1.4964  0.8305  1.5141
 5912TIP3   OH239150   3.564   6.271  15.375 -0.0120  0.2123  0.2883
 5912TIP3    H139151   3.638   6.319  15.337  0.4520 -1.5661 -1.2487
 5912TIP3    H239152   3.602   6.221  15.446  0.3144 -0.7065 -0.5058
 5913TIP3   OH239153   3.575   5.340   1.039 -0.4850 -0.4665  0.2415
 5913TIP3    H139154   3.636   5.299   0.978 -0.4006 -0.8840  0.5987
 5913TIP3    H239155   3.596   5.300   1.124 -0.9698 -0.2974  0.4437
 5914TIP3   OH239156   1.729   6.117   5.760 -0.0654 -0.0048  0.2169
 5914TIP3    H139157   1.730   6.182   5.830  0.1985 -0.6653  0.8347
 5914TIP3    H239158   1.802   6.059   5.780 -0.5671 -0.7522 -0.0887
 5915TIP3   OH239159   5.143   4.738   4.486 -0.2317 -0.3002  0.4143
 5915TIP3    H139160   5.219   4.796   4.479 -0.3696  0.0682  1.6576
 5915TIP3    H239161   5.084   4.767   4.417  0.2487  0.2094  0.2118
 5916TIP3   OH239162   1.727   4.589  12.928  0.6209  0.1480  0.0968
 5916TIP3    H139163   1.753   4.515  12.982  2.1660  1.3915  1.1271
 5916TIP3    H239164   1.792   4.657  12.946 -0.4269  1.5817 -1.2234
 5917TIP3   OH239165   5.711   5.221  12.271  0.4311 -0.1460 -0.6197
 5917TIP3    H139166   5.795   5.202  12.230 -0.8082 -2.4508 -2.3442
 5917TIP3    H239167   5.673   5.291  12.218  1.1377  0.7430  0.0269
 5918TIP3   OH239168   2.083   3.212   5.433 -0.1488  0.8683 -0.1510
 5918TIP3    H139169   2.001   3.214   5.384  0.4512  1.0301 -1.1792
 5918TIP3    H239170   2.151   3.215   5.366  0.7015  0.6516  0.6805
 5919TIP3   OH239171   4.923   3.102   1.402  0.1283 -0.9867  0.1538
 5919TIP3    H139172   4.982   3.038   1.362  0.7789 -0.2531 -0.0801
 5919TIP3    H239173   4.871   3.137   1.328  1.0134  0.0352 -0.0109
 5920TIP3   OH239174   5.546   4.985  16.925  0.5571 -0.1723 -0.8516
 5920TIP3    H139175   5.618   4.923  16.913  1.3341  0.6878 -0.7283
 5920TIP3    H239176   5.589   5.070  16.937 -0.3170 -0.0644  2.4973
 5921TIP3   OH239177   2.182   6.357  15.754  0.6355  0.0597 -0.3669
 5921TIP3    H139178   2.197   6.266  15.729  2.9934  0.4670 -0.7253
 5921TIP3    H239179   2.220   6.364  15.842  0.3322  0.6518 -0.2783
 5922TIP3   OH239180   4.701   2.908  10.846  0.0209  0.0664 -0.3261
 5922TIP3    H139181   4.737   2.916  10.934 -0.7369 -0.4624  0.0425
 5922TIP3    H239182   4.707   2.815  10.826  0.2858  0.1979 -0.8789
 5923TIP3   OH239183   5.565   2.314  10.829  0.4200 -0.3605  0.1430
 5923TIP3    H139184   5.475   2.319  10.796  0.8503 -0.6139 -1.1064
 5923TIP3    H239185   5.601   2.235  10.789  1.3029 -0.0979  0.4001
 5924TIP3   OH239186   5.103   6.235   1.103 -0.3387 -0.3190  0.3542
 5924TIP3    H139187   5.101   6.152   1.150 -0.4933 -0.3205  0.3473
 5924TIP3    H239188   5.168   6.222   1.034  1.6882  0.4904  2.0406
 5925TIP3   OH239189   3.480   4.005  12.117 -0.4250  0.0892  0.4160
 5925TIP3    H139190   3.432   3.949  12.178 -1.0214  0.8211  0.6275
 5925TIP3    H239191   3.543   4.052  12.172 -1.1817  0.9902  0.5407
 5926TIP3   OH239192   1.903   2.340   5.044  0.2470  0.2589 -0.4039
 5926TIP3    H139193   1.985   2.290   5.049  0.2331  0.1427 -1.1452
 5926TIP3    H239194   1.844   2.295   5.105  0.3709 -0.3802 -0.7411
 5927TIP3   OH239195   3.430   3.785  11.151  0.3019  0.3324 -0.7351
 5927TIP3    H139196   3.401   3.866  11.192 -0.0021 -1.1003  2.1914
 5927TIP3    H239197   3.371   3.773  11.077 -0.6615  1.9924 -0.2939
 5928TIP3   OH239198   6.732   1.345  14.795 -0.1889 -0.0420  0.2050
 5928TIP3    H139199   6.817   1.387  14.805 -1.3269  2.1463  1.1549
 5928TIP3    H239200   6.698   1.379  14.712 -0.6926  0.1311  0.4794
 5929TIP3   OH239201   5.755   2.115  15.758 -0.0001  0.4985  0.5087
 5929TIP3    H139202   5.734   2.082  15.846 -1.5935  2.0799  0.8036
 5929TIP3    H239203   5.675   2.100  15.708  0.4491  0.7757 -0.3037
 5930TIP3   OH239204   2.171   3.039   1.064 -0.3297  0.3457  0.0438
 5930TIP3    H139205   2.230   3.103   1.104  0.5560 -0.5478  0.2106
 5930TIP3    H239206   2.192   2.957   1.108 -0.2318 -0.4138 -1.3569
 5931TIP3   OH239207   5.908   6.718  13.361  0.0523 -0.1076  0.0343
 5931TIP3    H139208   5.944   6.794  13.315 -2.1611  1.2778  0.4415
 5931TIP3    H239209   5.925   6.645  13.302 -0.0582  1.1352 -1.6221
 5932TIP3   OH239210   2.857   3.107  11.373  0.1300 -0.1528 -0.8864
 5932TIP3    H139211   2.779   3.070  11.413  0.8995  0.1043  0.9252
 5932TIP3    H239212   2.908   3.031  11.344  0.3659 -0.4290  0.2145
 5933TIP3   OH239213   4.750   3.308   2.846  0.5821 -0.9565  0.5791
 5933TIP3    H139214   4.707   3.222   2.849  0.4230 -0.9104 -0.1233
 5933TIP3    H239215   4.823   3.300   2.907  1.3227 -2.0164 -0.3980
 5934TIP3   OH239216   5.710   3.446   3.523  0.7262  0.2059 -0.1434
 5934TIP3    H139217   5.684   3.390   3.450  1.0278  0.5803 -0.5439
 5934TIP3    H239218   5.635   3.503   3.537  1.0611  0.8426 -0.8644
 5935TIP3   OH239219   6.118   6.284   0.364  0.4904  0.1854 -0.6563
 5935TIP3    H139220   6.077   6.229   0.297 -2.6199  1.2669  0.1997
 5935TIP3    H239221   6.119   6.229   0.442 -3.0105  1.2468  0.3138
 5936TIP3   OH239222   6.572   1.230  11.609 -0.1081 -0.1066 -0.5232
 5936TIP3    H139223   6.587   1.286  11.533 -0.8288  0.5222 -0.2160
 5936TIP3    H239224   6.655   1.183  11.622  1.2158  2.3020  0.3870
 5937TIP3   OH239225   4.060   2.018  15.077 -0.3546 -0.0506 -0.0700
 5937TIP3    H139226   4.045   1.964  15.000  0.7642 -0.3042 -0.1253
 5937TIP3    H239227   3.974   2.024  15.119 -1.2401  0.9689 -1.8882
 5938TIP3   OH239228   6.491   0.711  12.828  0.2582  0.1420  0.2304
 5938TIP3    H139229   6.477   0.650  12.902  0.7997  1.0045  1.0629
 5938TIP3    H239230   6.517   0.654  12.756 -0.2043 -0.7186  0.7130
 5939TIP3   OH239231   3.475   3.259  13.444 -0.1146  0.5367  0.2651
 5939TIP3    H139232   3.568   3.245  13.426 -0.0615  1.4850 -0.2900
 5939TIP3    H239233   3.458   3.348  13.412 -1.2237  0.3516  0.3119
 5940TIP3   OH239234   4.608   3.409   2.002  0.2160  0.4678 -0.2991
 5940TIP3    H139235   4.673   3.473   2.032 -0.3656  1.0279 -0.2038
 5940TIP3    H239236   4.610   3.341   2.069  4.4448 -2.3185 -2.7853
 5941TIP3   OH239237   4.389   0.730   4.811  0.2821 -0.5526 -0.1088
 5941TIP3    H139238   4.368   0.772   4.728 -3.0225  4.1276  2.5901
 5941TIP3    H239239   4.323   0.662   4.821 -1.5357  1.1542  0.0198
 5942TIP3   OH239240   4.103   1.083   4.012 -0.2221  0.2301 -1.4244
 5942TIP3    H139241   4.110   1.150   3.944  0.9782  1.6949  0.0716
 5942TIP3    H239242   4.183   1.091   4.062 -1.0857 -0.7761  0.1975
 5943TIP3   OH239243   4.365   2.898   1.476 -0.1127 -0.6595  0.0763
 5943TIP3    H139244   4.311   2.820   1.473  0.8065 -1.3422  0.6292
 5943TIP3    H239245   4.453   2.868   1.453  0.3760  0.0835  0.8784
 5944TIP3   OH239246   5.942   0.163   1.719 -0.4238  0.7704  0.2982
 5944TIP3    H139247   5.975   0.073   1.725 -1.3011  0.4963  1.3926
 5944TIP3    H239248   5.919   0.186   1.809 -1.5889  1.5496 -0.1775
 5945TIP3   OH239249   3.687   1.649   2.399  0.0082  0.2218  0.1340
 5945TIP3    H139250   3.600   1.620   2.370 -0.3110  2.3941 -1.2616
 5945TIP3    H239251   3.670   1.699   2.478 -0.4343  2.8855 -1.5380
 5946TIP3   OH239252   2.563   2.625   3.314  0.1872  0.1395  0.0151
 5946TIP3    H139253   2.572   2.545   3.366  2.0119  0.9865  1.1251
 5946TIP3    H239254   2.487   2.670   3.351  0.3218 -0.1705  0.6888
 5947TIP3   OH239255   5.984   3.532   5.202  0.1524  0.1963 -0.1099
 5947TIP3    H139256   6.071   3.533   5.243  0.2479 -0.3523 -0.3012
 5947TIP3    H239257   5.940   3.456   5.238 -0.2754  0.5017  0.0268
 5948TIP3   OH239258   6.735   5.052   0.908 -0.7767  0.1377 -0.9402
 5948TIP3    H139259   6.814   5.069   0.960 -2.0086  1.1575  0.6956
 5948TIP3    H239260   6.698   4.973   0.946 -1.2509  0.4155 -0.8252
 5949TIP3   OH239261   5.943   2.969   1.412 -0.1715  0.3934  0.0624
 5949TIP3    H139262   5.901   2.898   1.462  1.3358 -1.1345 -0.7253
 5949TIP3    H239263   5.878   2.993   1.347 -1.3646  0.9686  1.4066
 5950TIP3   OH239264   5.284   5.269  12.754  0.0624 -0.0451  0.7072
 5950TIP3    H139265   5.296   5.341  12.693 -0.9246 -0.9373 -0.5826
 5950TIP3    H239266   5.196   5.280  12.788  0.3928  0.1074  1.5303
 5951TIP3   OH239267   0.131   2.035  11.555  0.6216  0.4119 -0.4342
 5951TIP3    H139268   0.107   2.074  11.471 -0.6733  1.2916  0.3044
 5951TIP3    H239269   0.209   2.083  11.582 -0.6809  2.2810  0.2428
 5952TIP3   OH239270   0.318   4.327  12.085 -0.3197  0.4194 -0.0561
 5952TIP3    H139271   0.288   4.415  12.110  0.1087  0.6991 -0.4998
 5952TIP3    H239272   0.398   4.343  12.036  0.8074 -0.3238  1.4541
 5953TIP3   OH239273   6.098   4.918  15.104  0.1094 -0.3134 -0.0301
 5953TIP3    H139274   6.135   4.858  15.039  1.6765  1.5431 -0.9975
 5953TIP3    H239275   6.161   4.916  15.176 -0.2101 -0.3706  0.2474
 5954TIP3   OH239276   2.169   2.561  11.410  0.2346 -0.5781 -0.0603
 5954TIP3    H139277   2.171   2.633  11.473  0.7028 -1.0318  0.4621
 5954TIP3    H239278   2.218   2.593  11.335 -1.6676  0.5514 -0.8683
 5955TIP3   OH239279   0.724   3.537  11.755  0.5882  0.1206  0.2518
 5955TIP3    H139280   0.676   3.467  11.712  1.4895 -0.7995  0.6976
 5955TIP3    H239281   0.711   3.613  11.699  0.0614 -0.5442 -0.5474
 5956TIP3   OH239282   2.024   0.370   4.708  0.1162  1.1429 -0.4062
 5956TIP3    H139283   1.943   0.324   4.686 -1.3639  2.7100  1.3815
 5956TIP3    H239284   2.056   0.403   4.623 -0.9638  0.2903 -1.1775
 5957TIP3   OH239285   5.628   5.167   4.038  0.7057 -0.0083  0.0482
 5957TIP3    H139286   5.544   5.200   4.068 -0.1973 -0.7299 -1.5349
 5957TIP3    H239287   5.633   5.078   4.073  1.1770  0.3043  0.7860
 5958TIP3   OH239288   5.837   1.831  12.268 -0.2331  0.9121 -0.0017
 5958TIP3    H139289   5.818   1.738  12.281 -1.0143  0.9791 -0.5668
 5958TIP3    H239290   5.864   1.863  12.354 -0.2224  0.2211  0.2549
 5959TIP3   OH239291   2.567   2.525  16.375 -0.0558 -0.4310 -0.2150
 5959TIP3    H139292   2.500   2.588  16.401  1.2231  0.9886 -0.2502
 5959TIP3    H239293   2.530   2.440  16.398 -1.5859  0.3595  0.3708
 5960TIP3   OH239294   1.153   5.218   4.353 -0.1414 -0.4089 -0.0363
 5960TIP3    H139295   1.187   5.223   4.442 -1.7533 -1.3556  0.6793
 5960TIP3    H239296   1.129   5.308   4.331 -1.7768 -0.4425  1.3774
 5961TIP3   OH239297   4.737   4.607   0.277 -0.0949  0.5777 -0.0816
 5961TIP3    H139298   4.658   4.658   0.295 -0.2038  0.1392  0.7152
 5961TIP3    H239299   4.808   4.658   0.316 -0.2498 -0.0473  1.0461
 5962TIP3   OH239300   4.868   3.822   0.287 -0.0834 -0.5143 -0.2682
 5962TIP3    H139301   4.900   3.912   0.278 -0.7943 -0.2350 -0.0994
 5962TIP3    H239302   4.821   3.822   0.370  0.5244 -1.2396  0.0857
 5963TIP3   OH239303   2.895   1.701   1.896  0.0595 -0.2063  0.1423
 5963TIP3    H139304   2.920   1.781   1.944 -0.5795  0.0984 -0.0274
 5963TIP3    H239305   2.861   1.733   1.813 -1.5962 -0.5567  0.6493
 5964TIP3   OH239306   0.376   4.936   2.503  0.1020 -0.1032 -0.3214
 5964TIP3    H139307   0.298   4.985   2.478 -1.3146 -1.7880  0.6209
 5964TIP3    H239308   0.446   5.002   2.505 -1.3898  1.5571 -0.5789
 5965TIP3   OH239309   2.292   0.249   4.668  0.2437  0.0891 -0.1158
 5965TIP3    H139310   2.359   0.285   4.725  0.5571  0.0580 -0.4656
 5965TIP3    H239311   2.213   0.301   4.687  0.5367  0.5648 -0.1910
 5966TIP3   OH239312   0.659   5.111  13.858 -0.4263  0.2817 -0.5314
 5966TIP3    H139313   0.660   5.133  13.765  0.0913 -0.2092 -0.6479
 5966TIP3    H239314   0.649   5.016  13.860  4.5017 -0.5209 -0.2938
 5967TIP3   OH239315   0.462   5.792   1.692  0.2709  0.1643 -0.4514
 5967TIP3    H139316   0.379   5.817   1.653 -0.7905 -2.4872 -0.1300
 5967TIP3    H239317   0.481   5.706   1.653  2.5640  0.4312 -0.0623
 5968TIP3   OH239318   4.291   6.427  11.736  0.6561 -0.1603  0.5249
 5968TIP3    H139319   4.269   6.393  11.823 -1.0328  2.3558  1.1827
 5968TIP3    H239320   4.208   6.427  11.689  1.7910 -3.0414 -1.8201
 5969TIP3   OH239321   5.752   6.277   4.261 -0.2413 -0.5337 -0.5044
 5969TIP3    H139322   5.761   6.287   4.355  1.4269  2.1755 -0.8455
 5969TIP3    H239323   5.746   6.182   4.247 -1.4715 -0.9580  2.3331
 5970TIP3   OH239324   1.876   1.819  14.045 -0.5548  0.1258 -0.0477
 5970TIP3    H139325   1.930   1.804  14.123 -0.4384  0.0390 -0.1448
 5970TIP3    H239326   1.935   1.865  13.985 -0.7099  0.3887 -0.0020
 5971TIP3   OH239327   4.402   3.301   0.363 -0.2426  0.1656  0.2541
 5971TIP3    H139328   4.488   3.294   0.321  1.0523  0.6997  2.6429
 5971TIP3    H239329   4.343   3.328   0.293  1.9295  1.7912 -1.0610
 5972TIP3   OH239330   5.071   1.690  11.774  0.5098  0.1463  0.7181
 5972TIP3    H139331   5.121   1.709  11.854  1.3218  1.2336 -0.0104
 5972TIP3    H239332   5.002   1.755  11.773 -0.6618 -1.0309  1.4509
 5973TIP3   OH239333   0.919   4.519  14.210 -0.1734  0.4406  0.6254
 5973TIP3    H139334   0.944   4.611  14.220 -2.0217  1.0671 -0.0481
 5973TIP3    H239335   0.841   4.510  14.265  0.5573 -1.0193  1.4769
 5974TIP3   OH239336   4.752   3.456   4.412  0.0653  0.0961 -0.1920
 5974TIP3    H139337   4.808   3.448   4.489 -0.2511 -1.0151 -0.0606
 5974TIP3    H239338   4.705   3.373   4.408 -1.2141  0.8126 -0.5861
 5975TIP3   OH239339   4.689   0.387  16.075 -0.7940  0.0190 -0.0494
 5975TIP3    H139340   4.636   0.344  16.008 -0.2329 -1.0684  0.1721
 5975TIP3    H239341   4.662   0.346  16.157 -1.3730  1.2386  0.3905
 5976TIP3   OH239342   5.414   6.647  13.966  0.0177  0.2941 -0.3604
 5976TIP3    H139343   5.381   6.633  13.878  1.8120  0.5884 -1.1200
 5976TIP3    H239344   5.474   6.721  13.958 -1.5974  1.9587  1.6071
 5977TIP3   OH239345   2.436   3.152   2.047  0.2971  0.1954  0.3431
 5977TIP3    H139346   2.395   3.236   2.027  1.0536  0.8455  1.3862
 5977TIP3    H239347   2.375   3.109   2.107 -0.2219 -0.1407 -0.4069
 5978TIP3   OH239348   4.450   4.391   6.229  0.1943 -0.0164 -0.5767
 5978TIP3    H139349   4.420   4.388   6.320 -1.0565 -1.7601 -0.9887
 5978TIP3    H239350   4.410   4.470   6.193  1.7179  1.4002  0.6555
 5979TIP3   OH239351   6.753   0.908  12.840  0.1778  0.0690  0.2559
 5979TIP3    H139352   6.762   0.930  12.932 -0.6331 -0.2647  0.4242
 5979TIP3    H239353   6.674   0.855  12.835 -1.0889  1.9423 -0.9527
 5980TIP3   OH239354   6.409   3.811   5.593  0.1339  0.1444  0.6809
 5980TIP3    H139355   6.390   3.882   5.654 -0.6090  0.0423  0.5778
 5980TIP3    H239356   6.444   3.741   5.648  1.9736  0.9866  0.6368
 5981TIP3   OH239357   0.035   3.602  12.977 -0.3062  0.0689 -0.0424
 5981TIP3    H139358   0.082   3.533  13.024  1.1929  0.3279 -1.0817
 5981TIP3    H239359   0.099   3.635  12.914 -1.5874  1.1582 -0.8124
 5982TIP3   OH239360   2.995   0.551   3.276 -0.0440 -0.3027 -0.5418
 5982TIP3    H139361   2.953   0.472   3.311  0.6700 -1.0755 -1.3761
 5982TIP3    H239362   2.936   0.622   3.302 -1.3972 -1.2437 -0.8780
 5983TIP3   OH239363   0.883   4.470  13.474  0.3326  0.7708  0.4331
 5983TIP3    H139364   0.879   4.556  13.515  1.2121  1.8046 -1.5315
 5983TIP3    H239365   0.823   4.476  13.400  0.2385 -0.3952  0.3971
 5984TIP3   OH239366   2.965   3.408  14.382  0.1038  0.0529 -0.3545
 5984TIP3    H139367   2.933   3.499  14.388  1.4695  0.5906 -0.9022
 5984TIP3    H239368   2.916   3.372  14.307 -0.7599  0.1867  0.1273
 5985TIP3   OH239369   1.046   2.667   5.116  0.7734  0.9663  0.8140
 5985TIP3    H139370   0.969   2.713   5.149 -0.2006 -0.9413  1.4049
 5985TIP3    H239371   1.065   2.601   5.184  1.6979  0.1119 -0.2347
 5986TIP3   OH239372   2.021   5.285   4.164 -0.2203 -0.3387  0.1570
 5986TIP3    H139373   2.001   5.195   4.137  0.4975 -0.4637  0.0211
 5986TIP3    H239374   2.026   5.334   4.082  1.0510 -0.5304  0.0990
 5987TIP3   OH239375   4.167   2.791  11.231  0.1982  0.4683  0.0845
 5987TIP3    H139376   4.148   2.698  11.223 -1.5490  0.7452  0.5490
 5987TIP3    H239377   4.138   2.828  11.147 -1.2041  0.8666  0.7122
 5988TIP3   OH239378   4.739   5.038  15.435  0.0457 -0.3844 -0.1718
 5988TIP3    H139379   4.672   5.062  15.500  1.8444 -0.3422  1.7767
 5988TIP3    H239380   4.783   4.962  15.473  2.6503  1.0089 -0.1855
 5989TIP3   OH239381   1.629   0.690  14.637  0.1907  0.6716  0.7505
 5989TIP3    H139382   1.650   0.648  14.554 -3.2929 -2.0335  1.0401
 5989TIP3    H239383   1.700   0.662  14.696  1.0991  0.1612 -0.5297
 5990TIP3   OH239384   6.730   0.250   6.030 -0.0278 -0.1598 -0.2658
 5990TIP3    H139385   6.668   0.293   6.089 -0.1602  0.3981 -0.8013
 5990TIP3    H239386   6.713   0.156   6.041 -0.1470 -0.0600  0.4705
 5991TIP3   OH239387   5.791   1.128  11.050  0.2579  0.1394 -0.1231
 5991TIP3    H139388   5.811   1.095  11.138 -1.5344 -0.8721 -0.0500
 5991TIP3    H239389   5.820   1.058  10.991  0.7140  0.4708 -0.3008
 5992TIP3   OH239390   0.721   6.128   2.640  0.3480  0.3653  0.3070
 5992TIP3    H139391   0.631   6.120   2.608  1.0649 -0.6333 -1.6049
 5992TIP3    H239392   0.733   6.052   2.697 -0.3574  1.1489  1.5494
 5993TIP3   OH239393   0.348   0.260   3.187  0.4349 -0.0871 -0.1283
 5993TIP3    H139394   0.267   0.295   3.225 -0.0116 -1.5459  0.3394
 5993TIP3    H239395   0.319   0.200   3.118  1.1405 -0.0068 -0.5047
 5994TIP3   OH239396   3.692   0.354  16.521  0.0023 -0.0237 -0.0949
 5994TIP3    H139397   3.661   0.319  16.437  0.3765 -1.0031  0.1656
 5994TIP3    H239398   3.649   0.299  16.587 -0.1303  0.6110  0.3582
 5995TIP3   OH239399   2.965   5.015  14.978  0.3089  0.0551  0.4550
 5995TIP3    H139400   2.992   4.924  14.972 -0.6715 -0.3056  1.1771
 5995TIP3    H239401   2.992   5.054  14.895  1.1696 -0.7613  0.3327
 5996TIP3   OH239402   1.613   3.813   6.521 -0.5253 -0.0008  0.1325
 5996TIP3    H139403   1.656   3.862   6.591 -1.0790 -0.8435  1.1015
 5996TIP3    H239404   1.520   3.827   6.535 -0.6497 -0.3298 -0.3249
 5997TIP3   OH239405   6.344   0.868   4.894  0.3238  0.1424  0.5350
 5997TIP3    H139406   6.378   0.795   4.946 -1.3399  0.7864  2.6759
 5997TIP3    H239407   6.269   0.831   4.847  1.0149 -0.1046 -0.4099
 5998TIP3   OH239408   5.664   0.764  14.474  0.0376 -0.1494  0.1530
 5998TIP3    H139409   5.602   0.756  14.401  0.9376 -0.1280 -0.6242
 5998TIP3    H239410   5.741   0.716  14.446  0.6634  0.4533  0.8086
 5999TIP3   OH239411   1.616   5.925   4.283 -0.2119  0.7029  0.8861
 5999TIP3    H139412   1.699   5.896   4.245  0.4104  1.4104  1.6650
 5999TIP3    H239413   1.557   5.936   4.208 -0.3843 -2.1194  0.4958
 6000TIP3   OH239414   5.656   3.136  10.866 -0.0926  0.1031 -0.4287
 6000TIP3    H139415   5.574   3.183  10.880 -0.3988 -0.3437 -0.7365
 6000TIP3    H239416   5.709   3.196  10.813 -0.7249 -0.1541 -1.3707
 6001TIP3   OH239417   3.539   3.870  15.696  0.4709 -0.4340 -0.0114
 6001TIP3    H139418   3.492   3.791  15.722 -2.3150  1.4524  1.0913
 6001TIP3    H239419   3.478   3.917  15.639  2.2104  0.7898 -0.9785
 6002TIP3   OH239420   3.531   1.335  11.428 -0.0779 -0.2471  0.5948
 6002TIP3    H139421   3.613   1.344  11.477 -0.6927 -3.0959  2.3893
 6002TIP3    H239422   3.546   1.263  11.368 -0.9858 -0.2109  0.3065
 6003TIP3   OH239423   0.133   0.833  14.379 -0.3191  0.6295 -0.4558
 6003TIP3    H139424   0.157   0.917  14.418  1.9952  0.2632 -0.9640
 6003TIP3    H239425   0.196   0.771  14.415 -2.9969 -1.3167  1.2432
 6004TIP3   OH239426   1.469   4.373   0.631  0.4649 -0.7802 -0.6461
 6004TIP3    H139427   1.404   4.340   0.570 -0.5797 -1.1740  0.6423
 6004TIP3    H239428   1.481   4.465   0.607 -1.0242 -0.5401 -0.5221
 6005TIP3   OH239429   2.977   5.205   0.649 -0.1533  0.0835  0.1085
 6005TIP3    H139430   3.035   5.199   0.574  0.4483  3.6755  0.1073
 6005TIP3    H239431   3.030   5.244   0.718 -1.4920 -0.3400  1.4412
 6006TIP3   OH239432   2.059   5.839   0.066 -0.4757 -0.4263  0.3454
 6006TIP3    H139433   2.111   5.867   0.142 -1.1055  0.7618  0.3680
 6006TIP3    H239434   1.988   5.788   0.103 -1.1688  0.7212  0.6513
 6007TIP3   OH239435   1.886   2.301   2.216  0.8180  0.2830  0.0210
 6007TIP3    H139436   1.904   2.340   2.302 -1.6472  3.2104 -0.5926
 6007TIP3    H239437   1.955   2.334   2.159  1.2910  0.0529  0.4613
 6008TIP3   OH239438   4.359   1.322  12.030  0.2974 -0.4721  0.5435
 6008TIP3    H139439   4.302   1.297  11.957  0.7840 -0.6264  0.2068
 6008TIP3    H239440   4.302   1.323  12.106 -0.1566 -0.6116  0.2087
 6009TIP3   OH239441   3.297   1.822   5.453 -0.4709  0.0734  0.3795
 6009TIP3    H139442   3.287   1.759   5.524 -0.4462  0.0125  0.3291
 6009TIP3    H239443   3.287   1.770   5.373 -1.1649  0.2565  0.3395
 6010TIP3   OH239444   0.127   1.884   5.570 -0.4098  0.0434  0.1451
 6010TIP3    H139445   0.038   1.873   5.604 -0.8348  1.2270 -0.5320
 6010TIP3    H239446   0.115   1.895   5.476  0.1641  2.8366  0.3171
 6011TIP3   OH239447   0.089   5.201  11.824  0.0314 -0.5451 -0.0899
 6011TIP3    H139448   0.105   5.296  11.826 -0.5381 -0.4533  0.7440
 6011TIP3    H239449  -0.004   5.193  11.804  0.0612 -0.9265 -0.0792
 6012TIP3   OH239450   3.519   3.653   3.863  0.4734 -0.4503  0.0540
 6012TIP3    H139451   3.489   3.632   3.952  1.6918 -1.6190  0.2211
 6012TIP3    H239452   3.440   3.680   3.817 -0.0722  0.9077  1.6926
 6013TIP3   OH239453   5.784   0.700  12.166  0.0011  0.3984 -0.2483
 6013TIP3    H139454   5.865   0.656  12.141  0.5635  1.4448 -0.3348
 6013TIP3    H239455   5.743   0.723  12.082  0.5953  1.5888 -0.2374
 6014TIP3   OH239456   1.156   0.059   4.403  0.2391 -0.1917 -0.1986
 6014TIP3    H139457   1.126   0.080   4.314 -0.6363  0.1590  0.1636
 6014TIP3    H239458   1.128  -0.032   4.416 -3.2497  0.8766  1.0871
 6015TIP3   OH239459   3.451   6.659  14.855  0.5785 -0.0415  0.1110
 6015TIP3    H139460   3.471   6.705  14.774  0.8728 -0.8989 -0.3104
 6015TIP3    H239461   3.508   6.583  14.855 -0.9298 -1.2234  0.0794
 6016TIP3   OH239462   0.262   2.916   5.685  0.8776  0.2354 -0.6241
 6016TIP3    H139463   0.258   2.968   5.765 -0.5068 -0.8241  0.0343
 6016TIP3    H239464   0.355   2.902   5.670  1.1630 -0.4599  1.4451
 6017TIP3   OH239465   2.789   1.643   2.838 -0.1132  0.2524  0.3715
 6017TIP3    H139466   2.823   1.696   2.910  1.0257 -0.5782  0.4733
 6017TIP3    H239467   2.865   1.595   2.805 -0.7782 -0.0139 -0.8449
 6018TIP3   OH239468   3.932   6.566  17.021 -0.6033 -0.1341  0.5767
 6018TIP3    H139469   3.998   6.593  16.958 -1.2189 -0.4311 -0.2121
 6018TIP3    H239470   3.952   6.474  17.038 -2.1312 -0.9195 -1.4264
 6019TIP3   OH239471   2.863   1.885  15.042 -0.4360 -0.2986  0.6321
 6019TIP3    H139472   2.927   1.910  15.109  0.8657  0.9689 -0.9772
 6019TIP3    H239473   2.897   1.803  15.007  0.3574  0.3579 -0.2009
 6020TIP3   OH239474   5.525   0.694  15.309  0.2875 -0.0411  0.4462
 6020TIP3    H139475   5.487   0.780  15.326 -0.5105 -0.2193 -0.3474
 6020TIP3    H239476   5.504   0.643  15.387 -1.4309 -0.2295 -0.0983
 6021TIP3   OH239477   5.850   4.605  17.085  0.1210 -0.1984  0.2878
 6021TIP3    H139478   5.845   4.623  16.991 -1.0163  1.3340  0.6134
 6021TIP3    H239479   5.795   4.527  17.097 -0.1920 -0.0624 -0.2272
 6022TIP3   OH239480   6.767   6.148   5.428 -0.0804  0.1878  0.1675
 6022TIP3    H139481   6.772   6.081   5.496 -1.3565  0.7943  0.9017
 6022TIP3    H239482   6.858   6.167   5.406  0.3676 -0.0793  1.6481
 6023TIP3   OH239483   3.557   5.456  17.005  0.4231 -0.4383  0.2816
 6023TIP3    H139484   3.541   5.502  16.923  0.7534  0.2959  0.6167
 6023TIP3    H239485   3.653   5.452  17.012  0.3996 -0.1028  0.8422
 6024TIP3   OH239486   2.674   5.874   1.077  0.3769  0.2348  0.5657
 6024TIP3    H139487   2.631   5.816   1.139  1.8436 -0.5117  0.9194
 6024TIP3    H239488   2.620   5.953   1.076 -1.0968 -0.7468  0.8194
 6025TIP3   OH239489   0.341   5.536  13.484  0.4910 -0.0442  0.3399
 6025TIP3    H139490   0.299   5.455  13.512  1.3303 -0.6994 -0.2227
 6025TIP3    H239491   0.389   5.567  13.561 -1.0791  0.7733  1.0163
 6026TIP3   OH239492   1.003   4.139  15.180  0.3690  0.1700 -0.3032
 6026TIP3    H139493   1.084   4.188  15.164 -0.1961  0.9454 -0.8578
 6026TIP3    H239494   1.008   4.115  15.273 -0.0826  2.7907  0.5092
 6027TIP3   OH239495   4.211   5.059  13.274 -0.1547  0.2205  0.3425
 6027TIP3    H139496   4.154   5.110  13.216 -0.6614 -0.6235  0.0670
 6027TIP3    H239497   4.151   5.003  13.323  0.4775 -1.6466 -0.8937
 6028TIP3   OH239498   2.972   6.162   0.319 -0.3597  0.1731  0.0082
 6028TIP3    H139499   2.948   6.244   0.275  0.7466  0.3838 -0.2531
 6028TIP3    H239500   3.046   6.129   0.268  1.5528  0.8649  2.1664
 6029TIP3   OH239501   4.390   3.787  12.212 -0.1850 -1.0371 -0.6286
 6029TIP3    H139502   4.427   3.718  12.156 -0.4802 -0.6707 -1.2837
 6029TIP3    H239503   4.443   3.864  12.192 -1.1820 -0.5503 -1.4472
 6030TIP3   OH239504   1.707   5.088  12.635 -0.4809 -0.1044  0.4853
 6030TIP3    H139505   1.681   5.001  12.664  0.1188  0.2906  2.3117
 6030TIP3    H239506   1.799   5.078  12.610 -0.8159 -0.2965 -0.7454
 6031TIP3   OH239507   0.922   5.746   3.604 -0.1493  0.1062  0.1666
 6031TIP3    H139508   0.916   5.798   3.524  1.5895  2.1269  1.2394
 6031TIP3    H239509   0.873   5.797   3.669  0.7926 -0.0676  1.0338
 6032TIP3   OH239510   2.438   1.633  14.379  0.4206  0.2280 -0.4759
 6032TIP3    H139511   2.486   1.563  14.335  1.0699  0.4660 -0.1557
 6032TIP3    H239512   2.346   1.605  14.374  0.8428 -1.9679  1.9626
 6033TIP3   OH239513   0.731   4.920   1.875  0.1175  0.5678  0.1198
 6033TIP3    H139514   0.658   4.900   1.933 -0.2088 -2.1207 -1.0863
 6033TIP3    H239515   0.692   4.928   1.788  1.0519  0.8609 -0.2896
 6034TIP3   OH239516   3.276   1.521   5.224 -0.4817  0.5132  0.0615
 6034TIP3    H139517   3.262   1.510   5.130 -0.3115  0.5257  0.0343
 6034TIP3    H239518   3.190   1.542   5.259 -0.5560  0.4520 -0.0843
 6035TIP3   OH239519   6.726   0.866   3.274 -0.4152  0.1533 -0.4703
 6035TIP3    H139520   6.765   0.952   3.290 -1.5086  0.2935  1.8302
 6035TIP3    H239521   6.774   0.806   3.330 -0.9106 -0.3873 -0.6114
 6036TIP3   OH239522   4.056   1.107   4.653  0.1084  0.5381 -0.2119
 6036TIP3    H139523   4.019   1.087   4.567  2.0805  1.5882 -1.3860
 6036TIP3    H239524   4.151   1.107   4.639  0.5456 -0.3942  2.2542
 6037TIP3   OH239525   2.320   5.475  13.282 -0.0761  0.3776  0.3563
 6037TIP3    H139526   2.391   5.433  13.234 -1.2245 -0.7753 -0.4030
 6037TIP3    H239527   2.355   5.489  13.370  1.3320  0.5239 -0.2101
 6038TIP3   OH239528   4.942   6.144   3.567  0.2069 -0.3654  0.0729
 6038TIP3    H139529   4.858   6.135   3.523  0.5765  1.0404 -0.9894
 6038TIP3    H239530   4.938   6.082   3.640 -2.1978  0.4891  0.7563
 6039TIP3   OH239531   5.340   3.020  15.343 -0.1128 -0.1237  0.2516
 6039TIP3    H139532   5.297   3.101  15.317  0.0445 -0.0796  0.1266
 6039TIP3    H239533   5.423   3.049  15.383 -0.8261 -0.1177  1.7982
 6040TIP3   OH239534   2.374   4.405  12.603  0.0876 -0.3162  0.2246
 6040TIP3    H139535   2.311   4.334  12.601  0.2938 -0.4860 -0.4034
 6040TIP3    H239536   2.455   4.367  12.571 -0.1367  0.5151 -1.4609
 6041TIP3   OH239537   2.549   1.395   2.594 -0.4757  0.0190  0.1705
 6041TIP3    H139538   2.467   1.365   2.556 -0.2184 -0.4441 -0.0211
 6041TIP3    H239539   2.598   1.432   2.521  0.1568 -1.1709 -0.0351
 6042TIP3   OH239540   4.921   5.898  10.503 -0.1284 -0.2434 -0.7777
 6042TIP3    H139541   5.015   5.880  10.495 -0.5037 -2.0950 -1.5377
 6042TIP3    H239542   4.912   5.989  10.473  1.1957 -0.6519 -2.6451
 6043TIP3   OH239543   4.903   2.296   2.461 -0.0336 -0.1892  0.0793
 6043TIP3    H139544   4.863   2.297   2.547  0.9252 -0.5317  0.5406
 6043TIP3    H239545   4.851   2.233   2.411  1.6612 -2.9342  1.5548
 6044TIP3   OH239546   0.307   1.796   5.811 -0.0592 -0.1424  0.9641
 6044TIP3    H139547   0.269   1.811   5.724 -1.0176 -1.4527  1.1177
 6044TIP3    H239548   0.264   1.859   5.868  1.4421  1.5491  0.3152
 6045TIP3   OH239549   2.200   0.606   0.857  0.4512  0.5901 -0.5729
 6045TIP3    H139550   2.189   0.541   0.925  2.4513  1.2354  0.4691
 6045TIP3    H239551   2.180   0.690   0.899 -0.3157  0.8275 -1.3720
 6046TIP3   OH239552   2.942   2.440  12.376 -0.4329  0.7159 -0.1967
 6046TIP3    H139553   3.005   2.387  12.327 -1.1806 -0.6207  0.2371
 6046TIP3    H239554   2.980   2.527  12.377  1.0834  0.0893 -0.5183
 6047TIP3   OH239555   5.224   6.411  14.139  0.1033 -0.5628  0.4955
 6047TIP3    H139556   5.233   6.397  14.044 -1.7525  1.2811 -0.0206
 6047TIP3    H239557   5.130   6.407  14.155 -0.0024  2.9244  1.5442
 6048TIP3   OH239558   0.105   5.736  15.626 -1.0982 -0.3763  0.5584
 6048TIP3    H139559   0.132   5.703  15.711 -1.6196 -2.3077  0.0188
 6048TIP3    H239560   0.156   5.684  15.563 -1.0336  0.7175 -0.3271
 6049TIP3   OH239561   0.730   6.723  14.499 -0.1762  0.4762 -0.6307
 6049TIP3    H139562   0.795   6.781  14.540 -0.5994 -1.5750  3.4062
 6049TIP3    H239563   0.646   6.764  14.518 -0.3289  0.2143 -0.7379
 6050TIP3   OH239564   1.882   6.051  11.169  0.3567  0.1578 -0.1865
 6050TIP3    H139565   1.839   6.077  11.088  0.0439  0.2353  0.0037
 6050TIP3    H239566   1.817   5.998  11.215 -0.0697  1.4361  0.7452
 6051TIP3   OH239567   6.668   3.423   4.726 -0.5972 -0.2479  0.4885
 6051TIP3    H139568   6.747   3.385   4.764 -0.8088 -0.6890  0.4929
 6051TIP3    H239569   6.655   3.375   4.643  0.4759  1.4462 -0.7161
 6052TIP3   OH239570   1.058   0.839  12.452 -0.0974 -0.1046 -0.3504
 6052TIP3    H139571   1.075   0.814  12.361  0.6808 -1.2646  0.0892
 6052TIP3    H239572   1.058   0.935  12.451 -1.8339 -0.0713 -1.8709
 6053TIP3   OH239573   3.490   2.886   2.236 -0.3596  0.2013  0.3320
 6053TIP3    H139574   3.403   2.924   2.245 -0.9136 -1.0918  0.6451
 6053TIP3    H239575   3.518   2.868   2.325 -0.0831 -0.0528  0.1972
 6054TIP3   OH239576   4.475   1.256  10.983  0.2647 -0.0081  0.1575
 6054TIP3    H139577   4.384   1.261  10.954 -0.0298 -1.7955  0.6230
 6054TIP3    H239578   4.523   1.227  10.906  0.2430 -0.1703  0.2041
 6055TIP3   OH239579   4.848   0.507   6.375 -0.6873  0.3073  0.3965
 6055TIP3    H139580   4.827   0.595   6.405 -1.4985  0.4290 -0.4939
 6055TIP3    H239581   4.944   0.504   6.375 -0.6424  1.2872  0.1601
 6056TIP3   OH239582   4.581   4.674   3.145 -0.0039 -0.0846  0.3280
 6056TIP3    H139583   4.673   4.696   3.153 -0.5731  2.0514  1.6612
 6056TIP3    H239584   4.535   4.758   3.150 -2.0507 -1.1263  0.1986
 6057TIP3   OH239585   0.909   4.166   2.456 -0.3067  0.6718  0.0321
 6057TIP3    H139586   0.884   4.198   2.543 -0.5491 -2.0519  1.0442
 6057TIP3    H239587   0.837   4.109   2.429 -0.2380  1.4648 -2.0041
 6058TIP3   OH239588   0.081   5.702  15.279  0.2797  0.2848 -0.5546
 6058TIP3    H139589   0.159   5.648  15.294 -0.0580  0.1436  0.8860
 6058TIP3    H239590   0.077   5.713  15.184  2.6093  1.1042 -0.6416
 6059TIP3   OH239591   3.763   2.389   4.444 -0.3133  1.1350 -0.0828
 6059TIP3    H139592   3.676   2.414   4.415 -0.9587 -0.5155  0.3028
 6059TIP3    H239593   3.776   2.437   4.526  0.1821  3.2666 -1.3251
 6060TIP3   OH239594   5.871   1.493   6.176  0.2344  0.9846  0.4263
 6060TIP3    H139595   5.942   1.557   6.182 -0.0785  1.2385  1.9432
 6060TIP3    H239596   5.869   1.452   6.262  0.3756 -1.0478 -0.4902
 6061TIP3   OH239597   4.912   3.280  11.858 -0.4492  0.2819 -0.2573
 6061TIP3    H139598   4.861   3.254  11.935  0.1704  0.3149  0.1689
 6061TIP3    H239599   4.859   3.251  11.784 -1.5068  1.0917  0.1555
 6062TIP3   OH239600   3.875   4.650   1.779 -0.8309 -0.2372  0.1155
 6062TIP3    H139601   3.834   4.715   1.836 -1.8662 -0.9233  0.1681
 6062TIP3    H239602   3.825   4.654   1.698  0.6141  0.7139 -0.7729
 6063TIP3   OH239603   0.684   6.363   1.840  0.4156  0.0012  0.0860
 6063TIP3    H139604   0.592   6.386   1.847  0.1970 -0.9271  0.3685
 6063TIP3    H239605   0.686   6.291   1.777  0.9508  0.0269  0.0689
 6064TIP3   OH239606   0.453   1.095   1.184  0.2432 -0.3925 -0.2789
 6064TIP3    H139607   0.490   1.127   1.102  0.3364  2.1738  0.6658
 6064TIP3    H239608   0.526   1.095   1.246 -0.4404  0.8029  0.5722
 6065TIP3   OH239609   4.644   1.401   2.181  0.3408 -0.5419  0.3359
 6065TIP3    H139610   4.559   1.427   2.217 -0.7087 -1.5703 -1.2887
 6065TIP3    H239611   4.690   1.362   2.256 -0.7312 -0.2691  1.1710
 6066TIP3   OH239612   3.980   3.070   3.051 -0.0336 -0.4477 -0.8616
 6066TIP3    H139613   3.928   2.994   3.077 -0.7666 -0.3689 -2.0413
 6066TIP3    H239614   4.071   3.042   3.063 -0.3047 -1.3314 -0.7974
 6067TIP3   OH239615   2.709   5.265   5.563  0.0235  0.6861 -0.0034
 6067TIP3    H139616   2.737   5.204   5.631 -0.1721  1.0869  0.4405
 6067TIP3    H239617   2.759   5.239   5.486 -1.3667 -1.2159 -0.3534
 6068TIP3   OH239618   1.968   5.762   6.088  0.0834 -0.0725 -0.0775
 6068TIP3    H139619   1.961   5.681   6.037 -1.6799  0.1355 -0.2047
 6068TIP3    H239620   2.053   5.755   6.131  0.5531 -1.3705 -1.1385
 6069TIP3   OH239621   5.193   5.402  10.992 -0.3328 -0.3747  0.6438
 6069TIP3    H139622   5.148   5.324  10.958  0.5664 -0.5676 -0.1616
 6069TIP3    H239623   5.123   5.466  11.005 -0.7556 -0.2730 -1.6627
 6070TIP3   OH239624   4.460   3.764   0.778 -0.3674 -0.2479 -0.1263
 6070TIP3    H139625   4.417   3.793   0.698  0.0662  1.4898  0.2393
 6070TIP3    H239626   4.452   3.838   0.838  2.0797 -0.3035  0.3745
 6071TIP3   OH239627   2.579   6.614  13.792  0.5267  0.2425 -0.8999
 6071TIP3    H139628   2.613   6.552  13.728  0.2564 -0.6287 -0.2198
 6071TIP3    H239629   2.485   6.620  13.773  0.5084  0.2524 -0.8085
 6072TIP3   OH239630   4.194   2.232   2.282 -0.5696  0.2433 -0.1464
 6072TIP3    H139631   4.239   2.148   2.273  0.4300  0.8388 -1.1696
 6072TIP3    H239632   4.169   2.237   2.374  2.8854  0.5083  0.9370
 6073TIP3   OH239633   6.121   3.916   0.198 -0.7233 -0.5874 -0.7300
 6073TIP3    H139634   6.184   3.867   0.145 -0.5127 -0.5501 -0.5181
 6073TIP3    H239635   6.064   3.958   0.134  0.1071  0.2263 -0.9650
 6074TIP3   OH239636   1.252   2.996   6.089 -0.1411 -0.1820  0.2893
 6074TIP3    H139637   1.261   2.904   6.114  0.7659  0.1410  1.2045
 6074TIP3    H239638   1.157   3.009   6.081 -0.2916 -1.1393  0.3611
 6075TIP3   OH239639   5.910   5.556   5.684  0.6484  0.5839 -0.4562
 6075TIP3    H139640   5.904   5.614   5.759  0.9177  1.1091 -0.8311
 6075TIP3    H239641   5.820   5.532   5.665  0.4725  1.3640 -0.6610
 6076TIP3   OH239642   5.957   1.802  12.523  0.2811 -0.0115  0.0838
 6076TIP3    H139643   5.921   1.875  12.573 -0.4922 -0.7684  0.6533
 6076TIP3    H239644   6.043   1.786  12.562  0.1103  0.0721  0.4997
 6077TIP3   OH239645   3.374   1.129  13.668 -0.1296  0.7556  0.0506
 6077TIP3    H139646   3.447   1.080  13.630 -1.0412 -1.2912  0.8139
 6077TIP3    H239647   3.365   1.206  13.611  2.3513  0.8866 -0.2599
 6078TIP3   OH239648   5.404   1.340   3.286 -0.3779  0.3068  0.5875
 6078TIP3    H139649   5.498   1.354   3.300 -0.1089 -0.7665 -0.0375
 6078TIP3    H239650   5.366   1.428   3.290  0.8205  0.8988 -0.3256
 6079TIP3   OH239651   3.755   0.406  15.881 -0.1905  0.5303  0.9079
 6079TIP3    H139652   3.756   0.438  15.971  0.8594 -1.4038  1.6326
 6079TIP3    H239653   3.798   0.321  15.885 -1.2988 -0.2055 -1.2036
 6080TIP3   OH239654   3.039   4.277  14.812 -0.2619 -0.1961 -1.0007
 6080TIP3    H139655   3.007   4.257  14.900 -0.7851 -1.2090 -1.4075
 6080TIP3    H239656   2.966   4.323  14.770  0.3024  1.0544 -0.6344
 6081TIP3   OH239657   5.635   1.338   5.261  0.0200 -0.3452 -0.1782
 6081TIP3    H139658   5.555   1.287   5.252 -0.8545  0.5753  1.8192
 6081TIP3    H239659   5.683   1.295   5.333  0.0673  0.6143  0.3819
 6082TIP3   OH239660   1.013   2.140  16.089  0.1593 -0.4073  0.0163
 6082TIP3    H139661   1.069   2.079  16.137  0.3188  1.2146  2.0572
 6082TIP3    H239662   1.019   2.222  16.139  0.0271  1.3298 -2.6218
 6083TIP3   OH239663   3.876   1.099   0.098 -0.2677 -0.0991 -0.9626
 6083TIP3    H139664   3.793   1.146   0.093 -1.4363 -2.0439 -0.7282
 6083TIP3    H239665   3.852   1.007   0.090  1.3968 -1.0722  2.8186
 6084TIP3   OH239666   4.319   2.254  12.267 -0.0428  0.0025 -0.2121
 6084TIP3    H139667   4.352   2.165  12.251 -0.1230 -0.2510  0.8866
 6084TIP3    H239668   4.294   2.253  12.360 -1.2950  0.7832 -0.5237
 6085TIP3   OH239669   3.260   6.523  14.699  0.2061  0.5723  0.7353
 6085TIP3    H139670   3.302   6.512  14.614 -0.9572  1.9812 -0.0592
 6085TIP3    H239671   3.312   6.590  14.743  1.3127 -0.7411  1.5315
 6086TIP3   OH239672   2.328   2.359   3.205 -0.2475 -0.3087 -0.2235
 6086TIP3    H139673   2.403   2.355   3.144 -0.7871 -2.0688 -0.8236
 6086TIP3    H239674   2.260   2.404   3.155 -0.7065 -1.7964 -0.9984
 6087TIP3   OH239675   1.542   5.367   6.282 -0.0952  0.6755  0.5959
 6087TIP3    H139676   1.513   5.312   6.354 -0.1062  1.1104  0.9339
 6087TIP3    H239677   1.581   5.444   6.325 -1.0698  1.4456  0.1394
 6088TIP3   OH239678   1.995   3.643   5.650 -0.1416  0.5536 -0.2759
 6088TIP3    H139679   2.028   3.686   5.729  0.7234  1.0450 -0.8923
 6088TIP3    H239680   2.066   3.585   5.623  0.5827  2.1529 -2.0278
 6089TIP3   OH239681   3.816   6.147   4.328 -0.3900 -0.2618 -0.4625
 6089TIP3    H139682   3.892   6.206   4.329  0.5240 -1.4152  0.0488
 6089TIP3    H239683   3.807   6.123   4.236  0.1777 -0.5003 -0.4618
 6090TIP3   OH239684   3.559   5.265   2.251 -0.0281  0.1055  0.1727
 6090TIP3    H139685   3.516   5.253   2.166 -0.4595  2.1287  0.0414
 6090TIP3    H239686   3.488   5.291   2.310  0.3114 -1.0190  1.0997
 6091TIP3   OH239687   4.687   2.952  11.850  0.5052 -0.1405 -0.4070
 6091TIP3    H139688   4.705   3.025  11.790  0.5031 -0.6270 -1.0058
 6091TIP3    H239689   4.601   2.919  11.823  1.6632 -2.1040 -1.9683
 6092TIP3   OH239690   5.982   1.867  16.443  0.0972 -0.1437  0.1427
 6092TIP3    H139691   5.945   1.947  16.479 -1.2518 -0.4360 -0.5253
 6092TIP3    H239692   6.034   1.830  16.515  1.6309  1.8299  0.1291
 6093TIP3   OH239693   1.583   1.123   0.751 -0.0222 -0.3209  0.0944
 6093TIP3    H139694   1.521   1.124   0.824  0.3713  0.7085  0.4337
 6093TIP3    H239695   1.634   1.043   0.764 -0.2029 -0.3334  0.7417
 6094TIP3   OH239696   2.996   3.795  10.871 -0.1587  0.6999 -0.4018
 6094TIP3    H139697   3.061   3.727  10.850  0.6330  1.5502 -0.7955
 6094TIP3    H239698   2.977   3.835  10.786 -0.8945  0.7352 -0.2223
 6095TIP3   OH239699   2.028   6.046   5.516  0.0926 -0.8238 -0.1680
 6095TIP3    H139700   2.025   5.950   5.515  0.2788 -0.8265 -1.0875
 6095TIP3    H239701   1.948   6.073   5.472 -0.9529 -0.5133  1.8355
 6096TIP3   OH239702   4.990   2.470   4.328 -0.3813 -0.0419 -0.1035
 6096TIP3    H139703   4.971   2.377   4.319 -0.5922 -0.1386  1.2254
 6096TIP3    H239704   5.055   2.474   4.398  0.3344  0.7440 -0.7915
 6097TIP3   OH239705   4.017   6.466   1.463  0.4940  0.1055  0.1501
 6097TIP3    H139706   4.092   6.522   1.440  0.5942  0.2582  0.8148
 6097TIP3    H239707   3.943   6.526   1.469 -0.0125 -0.2447 -1.9347
 6098TIP3   OH239708   4.471   5.026  13.713  0.3375 -0.0501 -0.1881
 6098TIP3    H139709   4.509   4.976  13.786 -1.3745  0.4471  1.0991
 6098TIP3    H239710   4.485   4.970  13.636  2.1986 -0.5759  0.4767
 6099TIP3   OH239711   4.792   4.999  15.123 -0.1232 -0.0247 -0.3499
 6099TIP3    H139712   4.853   4.945  15.174 -0.8241 -0.3610  0.1631
 6099TIP3    H239713   4.846   5.045  15.060  0.3724 -2.4076 -1.7786
 6100TIP3   OH239714   0.504   4.832   5.881 -0.0665  0.2935  0.0040
 6100TIP3    H139715   0.555   4.798   5.954  0.3288 -0.8984 -0.7904
 6100TIP3    H239716   0.565   4.829   5.807 -0.2599  2.0537 -0.2698
 6101TIP3   OH239717   2.281   1.353   3.666 -0.0277 -0.2732  0.3602
 6101TIP3    H139718   2.291   1.279   3.607  1.0709  1.1410 -1.3255
 6101TIP3    H239719   2.349   1.341   3.732  0.7175 -0.3411 -0.4067
 6102TIP3   OH239720   4.129   6.426  15.179  0.2813 -0.0234 -0.4052
 6102TIP3    H139721   4.145   6.504  15.232  3.1562  0.8018 -2.2485
 6102TIP3    H239722   4.159   6.353  15.232  0.2340  0.4265  0.2524
 6103TIP3   OH239723   1.034   3.954   2.709  0.6537  0.5093 -0.9182
 6103TIP3    H139724   1.071   3.885   2.765  0.5102  0.7562 -0.5151
 6103TIP3    H239725   0.941   3.935   2.704  0.4032  1.3383  0.1756
 6104TIP3   OH239726   5.591   3.020   4.364  0.0674  0.1389  0.1689
 6104TIP3    H139727   5.677   3.024   4.406  0.4866 -2.3812 -0.2618
 6104TIP3    H239728   5.529   3.011   4.436  0.5026 -1.1451  0.4110
 6105TIP3   OH239729   4.385   1.122  15.733 -0.1868 -0.0699 -0.0515
 6105TIP3    H139730   4.395   1.217  15.730 -2.1034  0.2289  1.0000
 6105TIP3    H239731   4.448   1.093  15.799  0.4294  0.4638 -0.4030
 6106TIP3   OH239732   1.145   5.677   3.730 -0.2055 -0.9669  0.2052
 6106TIP3    H139733   1.064   5.689   3.680 -1.2366 -1.2380  1.7494
 6106TIP3    H239734   1.198   5.618   3.677 -2.1369 -2.9520  0.3745
 6107TIP3   OH239735   5.111   2.070   5.093  0.1846  0.3154 -0.1270
 6107TIP3    H139736   5.089   2.114   5.175 -2.0454 -2.7875  1.1257
 6107TIP3    H239737   5.193   2.025   5.111  0.0755  0.2249  0.1428
 6108TIP3   OH239738   4.776   2.215   5.727  0.0559  0.6832  0.0505
 6108TIP3    H139739   4.871   2.224   5.725  0.2271 -0.6936 -2.3068
 6108TIP3    H239740   4.744   2.305   5.718  1.2002  1.0151 -1.0875
 6109TIP3   OH239741   4.310   1.630  16.327 -0.0478  0.0872  0.5914
 6109TIP3    H139742   4.290   1.540  16.299  1.0117  0.2648 -0.8892
 6109TIP3    H239743   4.327   1.623  16.421  0.2317 -1.3045  0.4569
 6110TIP3   OH239744   5.106   3.846  15.920  0.1600 -0.5232 -0.2408
 6110TIP3    H139745   5.137   3.791  15.992 -3.0446  1.1100  2.6636
 6110TIP3    H239746   5.169   3.918  15.916  1.2058 -1.3996 -0.2101
 6111TIP3   OH239747   0.552   1.952   2.988 -0.1312  0.8846  0.2696
 6111TIP3    H139748   0.467   1.965   2.946  0.2227  1.3700 -0.3016
 6111TIP3    H239749   0.558   1.857   3.000 -0.0440  0.6929 -1.1889
 6112TIP3   OH239750   1.314   0.306   5.000 -1.0473 -0.1252  0.2812
 6112TIP3    H139751   1.362   0.224   5.004 -0.3588  0.2886  0.5765
 6112TIP3    H239752   1.230   0.283   4.959 -1.1083 -1.0816  0.9283
 6113TIP3   OH239753   0.415   0.772   2.505  0.2993  0.7417 -0.2943
 6113TIP3    H139754   0.382   0.795   2.418 -0.5917  0.9421  0.0887
 6113TIP3    H239755   0.441   0.855   2.544 -0.6606  0.8370  0.1717
 6114TIP3   OH239756   5.725   3.466   4.917  0.6572 -0.2325  0.3491
 6114TIP3    H139757   5.818   3.454   4.897  0.1223 -0.8646 -2.0540
 6114TIP3    H239758   5.719   3.557   4.948  1.7808  0.5959 -1.6644
 6115TIP3   OH239759   6.130   6.398   1.095 -0.5423 -0.3797  0.4940
 6115TIP3    H139760   6.052   6.450   1.075 -0.7649 -0.9068 -0.0217
 6115TIP3    H239761   6.191   6.420   1.025  0.1379  0.7538  1.4114
 6116TIP3   OH239762   3.693   0.181   5.492 -0.2060 -0.3562 -0.3411
 6116TIP3    H139763   3.770   0.140   5.452  0.7971  0.2577  0.8781
 6116TIP3    H239764   3.709   0.174   5.586 -1.8152 -0.5040 -0.0502
 6117TIP3   OH239765   4.077   1.655   5.465  0.0788  0.0468  0.3780
 6117TIP3    H139766   4.125   1.714   5.406 -2.5871 -0.2991 -2.3737
 6117TIP3    H239767   4.104   1.567   5.439 -0.0757 -0.0871  0.6644
 6118TIP3   OH239768   0.920   4.381  15.052 -0.4581  0.1595  0.1665
 6118TIP3    H139769   0.960   4.298  15.077  2.3773  1.0890 -0.9080
 6118TIP3    H239770   0.851   4.356  14.989 -1.9355 -1.5259  2.2959
 6119TIP3   OH239771   2.626   4.842  10.862 -0.0145  0.6220 -0.3400
 6119TIP3    H139772   2.685   4.853  10.937 -0.2063  0.7127 -0.2040
 6119TIP3    H239773   2.643   4.753  10.831  0.5677  0.8246 -0.6172
 6120TIP3   OH239774   2.263   6.492   2.297 -0.1016  0.7567  0.1411
 6120TIP3    H139775   2.212   6.549   2.239 -0.8985 -0.2375 -0.1771
 6120TIP3    H239776   2.316   6.438   2.237  0.5268  1.0489  0.4283
 6121TIP3   OH239777   6.123   0.322  14.491 -0.6977 -0.0589 -0.1104
 6121TIP3    H139778   6.071   0.276  14.557  1.5499 -1.4788  0.7977
 6121TIP3    H239779   6.202   0.350  14.539 -0.2299  1.2800 -1.5932
 6122TIP3   OH239780   3.563   4.250  12.619 -0.1051  0.6517 -0.4102
 6122TIP3    H139781   3.535   4.240  12.710  0.1005 -0.7302 -0.4703
 6122TIP3    H239782   3.640   4.307  12.623  0.0754  0.3667  0.3210
 6123TIP3   OH239783   0.202   5.476   4.154 -0.0038  0.1532  0.0349
 6123TIP3    H139784   0.282   5.527   4.150  0.7360 -0.8864  0.8155
 6123TIP3    H239785   0.197   5.445   4.245 -0.4305 -1.1002 -0.3821
 6124TIP3   OH239786   5.767   5.681   3.664 -0.5375 -0.2527 -0.1527
 6124TIP3    H139787   5.749   5.668   3.571  1.4549 -0.1023 -0.6116
 6124TIP3    H239788   5.805   5.769   3.669  0.9905 -0.9184  0.5260
 6125TIP3   OH239789   0.678   5.647  13.984  0.5188  0.7845  0.6200
 6125TIP3    H139790   0.678   5.551  13.987 -0.4431  0.6917 -0.9954
 6125TIP3    H239791   0.596   5.670  13.940  2.3258  2.1557 -2.4001
 6126TIP3   OH239792   1.046   5.835   3.347  0.1356  0.1556  0.0252
 6126TIP3    H139793   1.109   5.778   3.304 -1.1629 -0.6576 -0.9084
 6126TIP3    H239794   0.989   5.865   3.276  0.0685  1.6729  0.6855
 6127TIP3   OH239795   0.944   5.211  13.478  0.8048 -0.1247  0.1185
 6127TIP3    H139796   1.030   5.248  13.498  0.1720  0.2703  2.4435
 6127TIP3    H239797   0.900   5.279  13.426  0.5054  1.4964  2.3472
 6128TIP3   OH239798   6.423   2.853   3.016  0.2059  0.1123 -0.2418
 6128TIP3    H139799   6.397   2.761   3.013 -0.4547  0.1486  2.1483
 6128TIP3    H239800   6.341   2.902   3.025  0.6428  0.7814  0.2732
 6129TIP3   OH239801   5.797   1.756   0.386  0.8006  0.0170  0.0873
 6129TIP3    H139802   5.789   1.711   0.302  0.6524 -0.2551  0.2455
 6129TIP3    H239803   5.797   1.686   0.451 -0.9672  0.2922  0.4510
 6130TIP3   OH239804   3.018   1.241   3.904 -0.0650  0.3675 -0.0689
 6130TIP3    H139805   3.095   1.296   3.893  0.4028  0.0419  1.2847
 6130TIP3    H239806   3.032   1.167   3.845  1.2029 -0.2033  0.8856
 6131TIP3   OH239807   1.690   5.285   0.159 -0.1686 -0.2803  0.0115
 6131TIP3    H139808   1.726   5.355   0.213  1.3755 -0.1549 -1.0981
 6131TIP3    H239809   1.638   5.330   0.092  0.4941 -0.1949 -0.4592
 6132TIP3   OH239810   3.681   2.765  14.264 -0.3595  0.0149 -0.3544
 6132TIP3    H139811   3.733   2.813  14.329 -1.7547  1.0602  0.0388
 6132TIP3    H239812   3.621   2.713  14.316  0.9476 -2.0192 -0.7899
 6133TIP3   OH239813   2.783   6.431   1.295  0.6106 -0.6194 -0.3868
 6133TIP3    H139814   2.843   6.476   1.235  0.1403  1.3111  0.5132
 6133TIP3    H239815   2.771   6.492   1.368 -2.5798 -0.7994 -0.5987
 6134TIP3   OH239816   4.266   4.621  14.800  0.3059 -0.6083 -0.1763
 6134TIP3    H139817   4.176   4.649  14.784  0.2262 -1.0397 -0.4971
 6134TIP3    H239818   4.269   4.531  14.768  0.9079 -0.5281 -0.3549
 6135TIP3   OH239819   3.961   1.706  17.089 -0.4122  0.2121  0.2034
 6135TIP3    H139820   4.004   1.789  17.109  0.9475 -0.1965 -0.7902
 6135TIP3    H239821   3.990   1.646  17.158 -1.6271  0.6035  1.0862
 6136TIP3   OH239822   0.744   1.108   3.320  0.4930  0.0112  0.8145
 6136TIP3    H139823   0.661   1.081   3.358 -0.4776  1.1064 -0.4300
 6136TIP3    H239824   0.807   1.099   3.391 -1.0202  0.8559  2.3192
 6137TIP3   OH239825   2.292   1.056  15.880 -0.6778  1.0016  0.5096
 6137TIP3    H139826   2.383   1.040  15.906  0.4116  3.3422 -1.3476
 6137TIP3    H239827   2.250   1.091  15.958  0.0366  0.0250  1.3606
 6138TIP3   OH239828   3.068   0.708   0.426 -0.1767  0.1463  0.4461
 6138TIP3    H139829   3.118   0.631   0.397  0.5739  1.6134 -2.5369
 6138TIP3    H239830   3.129   0.781   0.417 -0.8276  1.1823  3.3150
 6139TIP3   OH239831   1.659   5.806  12.995  0.0280  0.3800 -0.3074
 6139TIP3    H139832   1.717   5.880  13.013  1.3145 -0.0431 -2.4389
 6139TIP3    H239833   1.670   5.748  13.071  0.8090  1.2534  0.2748
 6140TIP3   OH239834   1.191   1.658   4.128 -0.4379  0.0404  0.1514
 6140TIP3    H139835   1.251   1.628   4.197 -0.3527  0.2071  0.1498
 6140TIP3    H239836   1.180   1.751   4.144 -2.0985 -0.2995  1.2269
 6141TIP3   OH239837   1.864   0.290  12.758  0.0750 -0.3510 -0.4150
 6141TIP3    H139838   1.860   0.379  12.792  0.6995 -0.8764  1.1076
 6141TIP3    H239839   1.951   0.259  12.782  0.1117 -1.1640 -1.5073
 6142TIP3   OH239840   3.701   2.566  11.334  0.5978  0.6193  0.4982
 6142TIP3    H139841   3.763   2.548  11.262  1.2896  2.1428  0.6694
 6142TIP3    H239842   3.620   2.591  11.289  0.5986  0.1958  0.2554
 6143TIP3   OH239843   3.851   2.747  11.051 -0.2685 -0.5046  0.6144
 6143TIP3    H139844   3.861   2.659  11.086  0.6406 -0.8469 -0.4351
 6143TIP3    H239845   3.927   2.759  10.994 -1.8823 -0.1894 -1.6089
 6144TIP3   OH239846   0.838   0.191  15.629  0.0235 -0.2277 -0.0797
 6144TIP3    H139847   0.844   0.228  15.717 -2.0972  0.3506 -0.1048
 6144TIP3    H239848   0.814   0.266  15.574  1.4917 -0.5479 -1.1988
 6145TIP3   OH239849   4.871   6.185   3.121 -0.3719 -0.6941 -0.1723
 6145TIP3    H139850   4.823   6.103   3.135 -1.4880  0.0693  0.6407
 6145TIP3    H239851   4.804   6.249   3.100  0.5877 -0.1691 -1.8063
 6146TIP3   OH239852   6.760   4.636  10.841  0.4347 -0.1306 -0.9019
 6146TIP3    H139853   6.753   4.724  10.805  0.4449 -0.5773 -2.0497
 6146TIP3    H239854   6.722   4.579  10.774  0.2068 -0.9809 -0.0809
 6147TIP3   OH239855   3.195   6.757  14.959 -0.2112 -0.5398  0.1647
 6147TIP3    H139856   3.163   6.671  14.984 -2.0015  0.4059  1.3895
 6147TIP3    H239857   3.285   6.743  14.930 -0.6986 -2.8928 -0.3384
 6148TIP3   OH239858   3.024   5.448   5.270  0.6959  0.7557  0.6759
 6148TIP3    H139859   3.032   5.522   5.331  1.0622  0.7756  0.6051
 6148TIP3    H239860   2.962   5.478   5.204 -1.7872 -0.1943  2.4218
 6149TIP3   OH239861   0.790   4.716   5.341  0.5110  0.2726 -0.1920
 6149TIP3    H139862   0.764   4.681   5.256 -0.4559 -1.8930  0.9136
 6149TIP3    H239863   0.719   4.776   5.364  1.1083  1.3906 -1.1648
 6150TIP3   OH239864   4.459   1.566  12.079 -0.4104 -0.2476  0.1506
 6150TIP3    H139865   4.484   1.616  12.001  1.8789  0.6031  1.3464
 6150TIP3    H239866   4.443   1.478  12.046 -2.2134  0.6621 -1.6564
 6151TIP3   OH239867   3.787   0.337   1.093  0.0732  0.4881 -0.3511
 6151TIP3    H139868   3.760   0.246   1.082  1.0571  0.0356  0.7776
 6151TIP3    H239869   3.802   0.369   1.004  1.3301 -0.9671 -0.6841
 6152TIP3   OH239870   5.015   5.139   2.034 -0.7034  0.2074  0.4637
 6152TIP3    H139871   4.998   5.082   1.959 -0.5387  0.5448  0.1635
 6152TIP3    H239872   5.026   5.226   1.995  0.5964  0.1904  0.7599
 6153TIP3   OH239873   4.555   5.478  16.084 -0.1126 -0.1636  0.3482
 6153TIP3    H139874   4.547   5.573  16.078  4.2139  0.3442 -0.4565
 6153TIP3    H239875   4.496   5.445  16.016 -0.1410  2.0746 -0.8120
 6154TIP3   OH239876   5.337   6.376  13.235  0.3424 -0.4505  0.3826
 6154TIP3    H139877   5.321   6.283  13.215 -1.0730 -0.1908  0.1672
 6154TIP3    H239878   5.343   6.418  13.149 -0.4627 -0.1456  0.4594
 6155TIP3   OH239879   5.741   4.487  12.780 -0.4655 -0.1271 -0.1586
 6155TIP3    H139880   5.664   4.503  12.834  0.0611 -1.8373  1.1585
 6155TIP3    H239881   5.744   4.392  12.768  0.4432  0.0487 -1.7138
 6156TIP3   OH239882   2.416   3.359   5.487  0.2607  0.0012 -0.0378
 6156TIP3    H139883   2.510   3.370   5.502  0.6215 -2.0391 -0.5494
 6156TIP3    H239884   2.411   3.296   5.416 -1.5129 -0.8618  0.8141
 6157TIP3   OH239885   5.739   0.341  16.623 -0.0767  0.0276  0.2214
 6157TIP3    H139886   5.659   0.310  16.582 -1.1901  2.9564 -0.0736
 6157TIP3    H239887   5.802   0.347  16.551 -0.0667 -0.7957  0.1578
 6158TIP3   OH239888   0.380   0.576  15.173  0.5698 -0.2034  0.5201
 6158TIP3    H139889   0.285   0.570  15.177  0.2778  0.7279 -2.5602
 6158TIP3    H239890   0.398   0.670  15.169  1.4924 -0.3984 -0.4612
 6159TIP3   OH239891   6.426   4.499   1.699 -0.3506 -0.2590  0.8801
 6159TIP3    H139892   6.513   4.483   1.663 -1.2216 -2.8680 -0.3329
 6159TIP3    H239893   6.404   4.588   1.671  0.5024 -0.8543 -1.9591
 6160TIP3   OH239894   6.089   6.144  12.136  0.3098  0.5634 -0.7047
 6160TIP3    H139895   6.030   6.126  12.208 -1.3945 -0.2939 -2.2249
 6160TIP3    H239896   6.041   6.116  12.058  2.2959  0.8882 -2.1283
 6161TIP3   OH239897   3.829   0.399   4.334 -0.0961 -0.2087 -0.0128
 6161TIP3    H139898   3.758   0.395   4.398  0.6786  0.1733  0.8903
 6161TIP3    H239899   3.897   0.341   4.370  0.7343  0.7568  0.0160
 6162TIP3   OH239900   2.801   0.704   3.363  0.2000 -0.2464  0.1632
 6162TIP3    H139901   2.710   0.687   3.387  0.0803  0.0155 -0.0872
 6162TIP3    H239902   2.807   0.800   3.359  1.1382 -0.1306  2.6378
 6163TIP3   OH239903   0.060   0.566  12.137 -0.0205  0.1206  0.1031
 6163TIP3    H139904   0.038   0.542  12.227 -0.7081  1.3137  0.2883
 6163TIP3    H239905   0.073   0.661  12.141  3.9659 -0.2455 -0.2786
 6164TIP3   OH239906   2.141   3.976  10.805 -0.1510 -0.3380  0.1140
 6164TIP3    H139907   2.177   3.954  10.890 -2.2346 -1.0088  0.8983
 6164TIP3    H239908   2.116   3.892  10.766 -1.3815  0.0937 -0.0916
 6165TIP3   OH239909   3.976   3.065  13.588  0.3652  0.1469 -0.2695
 6165TIP3    H139910   3.945   3.115  13.664  1.8794  1.1635 -0.2700
 6165TIP3    H239911   4.071   3.058  13.602  0.5170 -0.5207 -1.5706
 6166TIP3   OH239912   5.451   4.467   2.401 -0.6150 -0.7179 -0.6334
 6166TIP3    H139913   5.400   4.448   2.322 -0.3893  3.7924 -2.1930
 6166TIP3    H239914   5.542   4.457   2.374 -0.4256  2.7851 -1.8987
 6167TIP3   OH239915   1.939   1.207  14.901  0.4133 -0.3135 -0.3302
 6167TIP3    H139916   1.886   1.196  14.980  0.8479  1.3855  0.2434
 6167TIP3    H239917   2.027   1.183  14.928  0.3388 -0.9515 -0.6520
 6168TIP3   OH239918   5.576   2.063  14.369  0.2086  0.1991  0.4389
 6168TIP3    H139919   5.513   2.113  14.421  0.2022  0.1719  0.4576
 6168TIP3    H239920   5.591   2.116  14.291  0.7916  0.5938  0.8128
 6169TIP3   OH239921   5.338   4.348  12.410  0.0720  0.0158  0.1914
 6169TIP3    H139922   5.402   4.284  12.439  0.3169  0.6051  0.9875
 6169TIP3    H239923   5.384   4.401  12.344  0.3609  0.3453  0.6561
 6170TIP3   OH239924   1.767   3.631   3.211 -0.0675  0.4195  0.2198
 6170TIP3    H139925   1.757   3.726   3.201 -0.3986  0.2207 -1.5302
 6170TIP3    H239926   1.860   3.615   3.196 -0.2352  0.3342 -0.7651
 6171TIP3   OH239927   1.954   5.965  11.781  0.0513  0.5157  0.0516
 6171TIP3    H139928   1.938   5.886  11.729  1.1942 -0.5466  1.2516
 6171TIP3    H239929   1.949   6.036  11.717  1.5549 -0.7431 -1.6002
 6172TIP3   OH239930   4.620   5.717   2.446  0.0338 -0.1457 -0.2785
 6172TIP3    H139931   4.626   5.628   2.479  1.0856  0.2518  0.6453
 6172TIP3    H239932   4.536   5.720   2.400 -0.3825 -1.3764  0.3732
 6173TIP3   OH239933   4.381   4.945  14.948 -0.4316 -0.3174 -0.1061
 6173TIP3    H139934   4.299   4.903  14.971 -1.0614 -0.2788 -2.0618
 6173TIP3    H239935   4.358   5.036  14.932  0.5474  0.3812  2.0500
 6174TIP3   OH239936   0.635   3.021   2.652  0.4186 -0.6713  0.1564
 6174TIP3    H139937   0.682   3.100   2.679  0.4947  0.0834 -2.0333
 6174TIP3    H239938   0.695   2.975   2.594  0.2531 -2.2316  1.1397
 6175TIP3   OH239939   5.864   3.030   6.323 -0.1896  0.5950  0.4135
 6175TIP3    H139940   5.777   3.034   6.363 -0.0887 -0.6573  0.7899
 6175TIP3    H239941   5.901   3.117   6.337  0.1492  0.0350  3.7481
 6176TIP3   OH239942   5.493   5.361  16.796 -0.3188 -0.0229  0.5851
 6176TIP3    H139943   5.484   5.453  16.820  1.1244 -0.0924  1.5730
 6176TIP3    H239944   5.541   5.322  16.870  0.7852 -1.1326 -0.6536
 6177TIP3   OH239945   3.175   0.360  11.024  0.7261 -0.1982  0.4799
 6177TIP3    H139946   3.176   0.446  10.983  1.5852  0.5436  2.0087
 6177TIP3    H239947   3.082   0.336  11.026  0.2451  1.5844  1.8300
 6178TIP3   OH239948   0.714   5.973  15.021  0.4436 -0.4160  0.3065
 6178TIP3    H139949   0.754   6.056  15.045 -0.3831  0.3139 -0.7550
 6178TIP3    H239950   0.636   5.997  14.971 -0.3222 -1.8235  0.7645
 6179TIP3   OH239951   0.342   4.364  11.294  0.0714 -0.5634  0.5926
 6179TIP3    H139952   0.383   4.341  11.377  1.4825 -0.6856 -0.1123
 6179TIP3    H239953   0.403   4.426  11.253 -0.5538 -0.5801 -0.3944
 6180TIP3   OH239954   2.302   3.992  16.398 -0.1546 -0.5085 -0.4473
 6180TIP3    H139955   2.213   3.971  16.370 -1.8475  2.5905  1.9843
 6180TIP3    H239956   2.295   4.007  16.492  2.7529  0.8818 -0.3418
 6181TIP3   OH239957   6.071   0.007  12.288  0.3668  0.2113  0.3867
 6181TIP3    H139958   6.082  -0.012  12.195  1.7003  0.6839  0.4356
 6181TIP3    H239959   6.009   0.080  12.291 -0.6715 -0.6191 -0.0437
 6182TIP3   OH239960   4.399   6.308   2.268 -0.4975  0.0879  0.5190
 6182TIP3    H139961   4.426   6.263   2.188 -2.0598 -0.3177  0.1882
 6182TIP3    H239962   4.371   6.394   2.239 -1.7011 -0.2932  0.5134
 6183TIP3   OH239963   4.140   1.910  13.921 -0.1517 -0.4519  0.2484
 6183TIP3    H139964   4.168   1.867  13.841 -0.6008 -1.0174  0.3865
 6183TIP3    H239965   4.091   1.843  13.969 -0.4164  0.0563  0.7107
 6184TIP3   OH239966   4.558   5.062   6.308 -0.1416  0.2948  0.3368
 6184TIP3    H139967   4.615   5.084   6.382  0.2566 -0.5910  0.3056
 6184TIP3    H239968   4.487   5.011   6.347 -1.6673  2.4611  0.5883
 6185TIP3   OH239969   0.790   2.639   5.357 -0.0411 -0.0744  0.1693
 6185TIP3    H139970   0.865   2.592   5.393 -0.1183 -1.1757 -1.0225
 6185TIP3    H239971   0.718   2.576   5.361 -0.5102  0.4333 -0.1461
 6186TIP3   OH239972   4.509   5.772   1.874  0.2111 -0.7135  0.4456
 6186TIP3    H139973   4.473   5.764   1.786  0.4978  2.1023  0.0027
 6186TIP3    H239974   4.438   5.808   1.926  0.9191  0.4665  0.6345
 6187TIP3   OH239975   0.783   4.722  13.025  0.7288  0.5844  0.1041
 6187TIP3    H139976   0.782   4.795  13.087  1.7053  0.1128  0.6942
 6187TIP3    H239977   0.824   4.759  12.946 -2.0620  1.6820 -0.9639
 6188TIP3   OH239978   0.763   5.350   6.556  0.1566  0.1057  0.1469
 6188TIP3    H139979   0.677   5.391   6.543  0.0912  0.3393  1.1984
 6188TIP3    H239980   0.800   5.396   6.632  1.8312  1.0126 -1.1409
 6189TIP3   OH239981   2.875   1.051   2.696  0.6684  0.0075  0.1396
 6189TIP3    H139982   2.900   0.974   2.644  2.4560  1.1517 -0.8229
 6189TIP3    H239983   2.942   1.056   2.764  1.0848  1.1652 -0.3339
 6190TIP3   OH239984   2.220   2.382   6.095 -0.1309  0.1812 -0.3336
 6190TIP3    H139985   2.160   2.452   6.121 -0.3645 -0.1100 -0.0865
 6190TIP3    H239986   2.163   2.314   6.060  0.1389  0.3335 -1.0745
 6191TIP3   OH239987   1.960   1.030   1.935  0.1702  0.3353  0.2365
 6191TIP3    H139988   1.958   0.935   1.948  3.1138  0.1581  0.0225
 6191TIP3    H239989   1.985   1.041   1.843  0.3551  1.3083  0.3940
 6192TIP3   OH239990   3.704   0.320   3.683  0.3557 -0.4422 -0.1956
 6192TIP3    H139991   3.653   0.362   3.752 -0.6834  0.2053 -1.3093
 6192TIP3    H239992   3.645   0.317   3.608  1.9365  0.3467 -1.5618
 6193TIP3   OH239993   6.650   4.413   0.361  0.3616 -0.2751 -0.1959
 6193TIP3    H139994   6.581   4.477   0.343 -0.1279 -0.7369  0.0046
 6193TIP3    H239995   6.725   4.466   0.388 -0.6509  0.1607  2.0586
 6194TIP3   OH239996   2.240   5.359  11.584 -0.0579 -0.3744 -0.0883
 6194TIP3    H139997   2.184   5.282  11.577 -1.3047  0.3235  1.5479
 6194TIP3    H239998   2.220   5.396  11.670  2.4438  0.3069  0.2852
 6195TIP3   OH239999   5.472   6.320   5.637 -0.4974  0.5900  0.0789
 6195TIP3    H140000   5.548   6.348   5.586  0.6258  1.5487  2.1482
 6195TIP3    H240001   5.474   6.225   5.634  0.9865  0.5984  0.3758
 6196TIP3   OH240002   0.823   6.007  12.123  0.5109 -0.2340  0.5674
 6196TIP3    H140003   0.728   6.011  12.132  0.2495 -3.9624  0.6699
 6196TIP3    H240004   0.840   6.044  12.036 -0.9464  0.8392  0.6978
 6197TIP3   OH240005   4.395   5.288   5.171  0.1006  0.1208  0.7609
 6197TIP3    H140006   4.309   5.277   5.128  1.1063 -0.6895 -1.1867
 6197TIP3    H240007   4.458   5.264   5.103  2.0043  2.9686  1.3687
 6198TIP3   OH240008   5.472   0.654  12.749 -0.3056  0.3359 -0.3500
 6198TIP3    H140009   5.474   0.749  12.759  0.2908  0.3555 -0.6178
 6198TIP3    H240010   5.493   0.639  12.657 -0.4082 -0.0569 -0.3123
 6199TIP3   OH240011   5.127   4.547   1.182 -0.5893  0.1898 -0.2206
 6199TIP3    H140012   5.071   4.515   1.111 -1.0565  1.0318 -0.2494
 6199TIP3    H240013   5.165   4.468   1.220 -3.7276 -0.7321  1.4185
 6200TIP3   OH240014   1.942   2.538   4.853  0.2651  0.1506 -0.4748
 6200TIP3    H140015   1.917   2.473   4.920 -0.0783 -1.2262 -1.8694
 6200TIP3    H240016   1.908   2.501   4.771 -0.4326  2.3865 -1.2624
 6201TIP3   OH240017   1.137   4.681  12.612 -0.1913  0.2655  0.2307
 6201TIP3    H140018   1.119   4.686  12.706 -0.3669  0.0366  0.2099
 6201TIP3    H240019   1.082   4.749  12.574 -1.0407 -0.4400  0.1650
 6202TIP3   OH240020   3.693   4.838  12.059 -0.1798 -0.1058  0.4467
 6202TIP3    H140021   3.782   4.812  12.035 -0.2229 -0.3922  0.5935
 6202TIP3    H240022   3.679   4.800  12.145 -0.8492 -1.0091 -0.0408
 6203TIP3   OH240023   2.127   3.582  12.499  0.7051 -0.4222  0.1577
 6203TIP3    H140024   2.220   3.592  12.481  0.4827  4.3109  0.4482
 6203TIP3    H240025   2.120   3.589  12.595  0.0031  2.3058  0.0003
 6204TIP3   OH240026   4.542   6.729  15.484  0.2869  0.5319 -0.2894
 6204TIP3    H140027   4.592   6.648  15.471 -0.2478  0.4214 -1.8437
 6204TIP3    H240028   4.508   6.750  15.397 -0.7180  1.6913  0.3605
 6205TIP3   OH240029   0.265   2.264   2.986  0.0301 -0.0387  0.2002
 6205TIP3    H140030   0.227   2.283   3.072 -0.8099 -0.0921 -0.1506
 6205TIP3    H240031   0.252   2.170   2.974  0.5308 -0.1098  0.1933
 6206TIP3   OH240032   0.347   2.075  12.821 -0.4461 -0.0543 -0.2035
 6206TIP3    H140033   0.305   2.039  12.742  0.1317 -2.1089  0.3667
 6206TIP3    H240034   0.440   2.060  12.807 -0.3854 -1.1250  1.1594
 6207TIP3   OH240035   1.061   3.310   0.254 -0.3353 -0.5214  0.3251
 6207TIP3    H140036   1.010   3.329   0.333  1.9942  1.2626  1.5051
 6207TIP3    H240037   1.126   3.245   0.281  1.4271  1.1756  0.3565
 6208TIP3   OH240038   0.227   4.636  12.870  0.2812  0.5710 -0.0717
 6208TIP3    H140039   0.299   4.695  12.849  1.7145 -0.7748  0.9072
 6208TIP3    H240040   0.206   4.656  12.961  0.7597 -0.3859  0.2580
 6209TIP3   OH240041   3.226   4.593  16.908 -0.4014 -0.5901 -0.1508
 6209TIP3    H140042   3.201   4.573  16.818  1.0800  1.5827 -1.1407
 6209TIP3    H240043   3.296   4.530  16.928  1.2578  0.6643 -1.6414
 6210TIP3   OH240044   0.274   5.487  14.626  0.6709 -0.4557 -0.3062
 6210TIP3    H140045   0.204   5.461  14.686  0.6247 -1.8787 -0.9407
 6210TIP3    H240046   0.268   5.583  14.623 -0.9966 -0.5171 -0.0474
 6211TIP3   OH240047   6.207   1.993  12.441  0.0439 -0.1166 -0.6062
 6211TIP3    H140048   6.217   1.977  12.534  0.0957 -0.9890 -0.7550
 6211TIP3    H240049   6.120   2.030  12.431  0.9483  2.4200  0.0756
 6212TIP3   OH240050   4.444   6.043   0.844 -0.6620 -0.1603 -0.1063
 6212TIP3    H140051   4.501   6.030   0.920 -2.0687 -0.0860  1.0132
 6212TIP3    H240052   4.503   6.066   0.773  0.6796  0.1331  1.0551
 6213TIP3   OH240053   5.716   3.087   1.856  0.1370 -0.0770  0.0443
 6213TIP3    H140054   5.683   3.153   1.917 -0.2823 -1.2609  1.1628
 6213TIP3    H240055   5.798   3.124   1.823 -0.3707  1.2351  0.1900
 6214TIP3   OH240056   3.805   3.643  16.993 -0.2671 -0.6428  0.5290
 6214TIP3    H140057   3.796   3.556  17.030 -0.6397 -1.1790 -0.7854
 6214TIP3    H240058   3.785   3.633  16.900 -2.8999  1.2973  0.7564
 6215TIP3   OH240059   6.331   3.092   2.821  0.2799 -0.3550 -0.6551
 6215TIP3    H140060   6.292   3.150   2.756  0.6547  1.5007  0.6688
 6215TIP3    H240061   6.308   3.132   2.905  1.2513 -1.6989  0.2960
 6216TIP3   OH240062   6.657   3.378  12.166  0.0539  0.2916 -0.5001
 6216TIP3    H140063   6.567   3.395  12.193 -0.5298 -1.7816 -0.9198
 6216TIP3    H240064   6.703   3.461  12.180 -2.0245  1.5637 -0.8098
 6217TIP3   OH240065   1.389   6.125  16.949  0.3765 -0.0302 -0.2315
 6217TIP3    H140066   1.337   6.128  17.029 -0.0366 -1.2002 -0.4299
 6217TIP3    H240067   1.347   6.187  16.889 -1.1622 -1.3188 -0.5741
 6218TIP3   OH240068   4.184   5.069  12.459 -0.3076 -0.5482 -0.5033
 6218TIP3    H140069   4.090   5.055  12.449 -0.4106  0.7133 -1.6973
 6218TIP3    H240070   4.210   5.114  12.378  0.9925  0.6325  0.5206
 6219TIP3   OH240071   1.547   4.741  14.807 -0.3493  0.0325 -0.5162
 6219TIP3    H140072   1.549   4.657  14.852  1.6499  0.8481  1.0408
 6219TIP3    H240073   1.528   4.805  14.875  2.1380  1.2387 -0.8429
 6220TIP3   OH240074   6.635   3.832  14.988  0.0788  0.0570  0.4207
 6220TIP3    H140075   6.576   3.905  15.007 -0.0920  0.3267 -1.0550
 6220TIP3    H240076   6.719   3.858  15.025 -0.2813  0.4457  0.9815
 6221TIP3   OH240077   5.556   3.025  11.826  0.5728 -0.5525 -0.5398
 6221TIP3    H140078   5.651   3.008  11.825  0.1495 -3.3006 -0.6806
 6221TIP3    H240079   5.539   3.057  11.915  1.5835 -0.1677 -0.4637
 6222TIP3   OH240080   5.404   3.012  13.212 -0.3820 -0.1169  0.1699
 6222TIP3    H140081   5.405   2.917  13.228  1.7614 -0.1026  0.3049
 6222TIP3    H240082   5.496   3.037  13.208 -0.8851  1.7073 -1.5230
 6223TIP3   OH240083   5.615   4.579  16.246  0.2945  0.0706  0.2251
 6223TIP3    H140084   5.669   4.505  16.274  0.7891  0.1034 -0.5925
 6223TIP3    H240085   5.677   4.650  16.234 -0.0492  0.3475  0.0896
 6224TIP3   OH240086   5.524   6.520  16.073  0.3323 -0.8337 -0.0223
 6224TIP3    H140087   5.576   6.590  16.112 -0.1138 -0.0503 -0.8195
 6224TIP3    H240088   5.521   6.452  16.141 -1.8133  1.1473  2.0191
 6225TIP3   OH240089   3.756   6.271   4.044  0.0845 -0.1135  0.6552
 6225TIP3    H140090   3.673   6.294   4.087 -1.4131 -0.8603 -1.6446
 6225TIP3    H240091   3.738   6.283   3.951  2.4079 -0.8981  0.0518
 6226TIP3   OH240092   4.543   4.613  14.876  0.7981 -0.2048  0.7843
 6226TIP3    H140093   4.448   4.620  14.865  0.7572 -0.6346  0.8680
 6226TIP3    H240094   4.579   4.660  14.800  0.5156 -0.5895  0.4066
 6227TIP3   OH240095   3.163   3.127  16.908 -0.1667 -0.4027  0.3810
 6227TIP3    H140096   3.258   3.122  16.919  0.0763  0.7934 -1.0267
 6227TIP3    H240097   3.136   3.198  16.967  0.2126  1.1606 -1.2522
 6228TIP3   OH240098   4.867   0.477  13.661 -0.0951  0.2564 -0.0731
 6228TIP3    H140099   4.793   0.445  13.609 -0.1867 -0.2898  0.3859
 6228TIP3    H240100   4.837   0.472  13.751  0.4136  0.2837  0.1000
 6229TIP3   OH240101   2.167   1.109  14.979 -0.7218  0.4956 -0.5984
 6229TIP3    H140102   2.240   1.082  15.035 -1.5427  0.8380  0.6839
 6229TIP3    H240103   2.204   1.176  14.922 -0.1300  1.0062  0.3561
 6230TIP3   OH240104   3.292   3.559  11.354 -0.2763 -0.0924 -0.1975
 6230TIP3    H140105   3.319   3.638  11.307  0.6837  0.6892  1.5673
 6230TIP3    H240106   3.371   3.505  11.357 -1.4393 -2.2964 -3.3639
 6231TIP3   OH240107   1.597   5.085  16.369  0.5296  0.0606 -0.1554
 6231TIP3    H140108   1.515   5.051  16.333  1.0215 -1.0093 -0.3077
 6231TIP3    H240109   1.635   5.011  16.416  0.4424  1.1122  1.6642
 6232TIP3   OH240110   4.982   1.158  16.611 -0.2556  0.0101  0.5034
 6232TIP3    H140111   5.005   1.080  16.559 -1.7250  0.9038 -1.6202
 6232TIP3    H240112   4.890   1.145  16.634 -0.5069  1.0983  0.1476
 6233TIP3   OH240113   3.566   6.415  12.346  0.1781 -0.1201 -0.1549
 6233TIP3    H140114   3.629   6.352  12.310 -1.5999 -3.0957  1.6078
 6233TIP3    H240115   3.487   6.403  12.293 -0.3790  0.1792  0.5933
 6234TIP3   OH240116   3.552   6.554   0.757  0.1824 -0.1075 -0.1279
 6234TIP3    H140117   3.468   6.517   0.786 -0.3216  1.2781  0.2677
 6234TIP3    H240118   3.616   6.484   0.773 -0.5703 -0.4739  1.4925
 6235TIP3   OH240119   4.539   0.646  11.650 -0.5436 -0.4553  0.0479
 6235TIP3    H140120   4.597   0.581  11.609  0.5887 -1.3478  2.8533
 6235TIP3    H240121   4.465   0.652  11.590  2.2321  0.6110 -3.6686
 6236TIP3   OH240122   2.940   5.654   2.612 -0.1312  0.1666 -0.3793
 6236TIP3    H140123   3.014   5.710   2.633 -0.3492 -0.0001  0.9115
 6236TIP3    H240124   2.918   5.611   2.694  0.2383 -2.0838 -1.3701
 6237TIP3   OH240125   5.334   6.093  12.791 -0.2674  0.0258  0.4180
 6237TIP3    H140126   5.247   6.133  12.794 -0.8316 -1.0881 -0.4140
 6237TIP3    H240127   5.386   6.144  12.854 -0.8393  2.2537 -0.8022
 6238TIP3   OH240128   1.915   0.398   3.735  0.0797  0.5299  0.0335
 6238TIP3    H140129   1.941   0.489   3.719 -0.9844  0.9221  0.4938
 6238TIP3    H240130   1.964   0.347   3.670 -0.6792  1.6160 -1.4184
 6239TIP3   OH240131   4.922   4.673  11.789 -0.3712 -0.7633  0.2124
 6239TIP3    H140132   4.879   4.754  11.816  0.8070 -0.2093  0.4614
 6239TIP3    H240133   4.927   4.621  11.869 -1.7190 -1.3847 -0.0763
 6240TIP3   OH240134   0.589   1.589   0.195  0.1621  0.1593  0.2629
 6240TIP3    H140135   0.668   1.634   0.225  0.2647  0.3899 -0.3351
 6240TIP3    H240136   0.528   1.595   0.268 -0.6118  3.1806 -0.5124
 6241TIP3   OH240137   3.513   4.727  15.771 -0.3211 -0.3259 -0.2140
 6241TIP3    H140138   3.507   4.799  15.709 -0.4441 -0.6689 -0.6084
 6241TIP3    H240139   3.512   4.648  15.716  1.2503 -0.5976  0.0904
 6242TIP3   OH240140   4.367   0.335  15.966 -0.3804  0.0468  0.1420
 6242TIP3    H140141   4.360   0.430  15.954  0.3352  0.1459  0.4805
 6242TIP3    H240142   4.450   0.311  15.924  0.7571 -0.0317  2.3044
 6243TIP3   OH240143   6.207   0.251  11.089 -0.4373 -1.1420 -0.4706
 6243TIP3    H140144   6.183   0.215  11.004 -0.9261  0.0469 -0.8451
 6243TIP3    H240145   6.135   0.311  11.111  2.5603  3.6372 -2.2515
 6244TIP3   OH240146   6.088   0.368   5.271  0.0762  0.0572  0.4704
 6244TIP3    H140147   6.039   0.312   5.211  0.2466  1.2009 -0.7605
 6244TIP3    H240148   6.068   0.457   5.243  0.2979  0.6163  2.0188
 6245TIP3   OH240149   2.698   2.059  11.447  0.3588  0.7107 -0.0832
 6245TIP3    H140150   2.753   1.980  11.445 -0.3256  0.2090  0.3299
 6245TIP3    H240151   2.660   2.064  11.359 -1.1066 -0.5430  0.4241
 6246TIP3   OH240152   1.318   3.129   1.612 -0.1381  0.3423 -0.5106
 6246TIP3    H140153   1.311   3.141   1.517 -0.6564  2.0816 -0.2811
 6246TIP3    H240154   1.401   3.171   1.636 -0.1004  0.0795 -0.1693
 6247TIP3   OH240155   6.106   2.421  10.285  0.2104 -0.1839 -0.4491
 6247TIP3    H140156   6.183   2.468  10.254 -0.2385  0.1780 -1.0484
 6247TIP3    H240157   6.111   2.427  10.381  1.0748 -0.4214 -0.4760
 6248TIP3   OH240158   5.598   5.606   4.721  0.1835 -0.0544 -0.7878
 6248TIP3    H140159   5.509   5.594   4.689 -0.7222 -0.6178  1.7329
 6248TIP3    H240160   5.592   5.677   4.785  1.4428 -0.4008 -0.2403
 6249TIP3   OH240161   3.036   1.841   0.515 -0.0582  0.0746 -0.0343
 6249TIP3    H140162   3.058   1.914   0.457  1.2171 -0.7933 -0.6983
 6249TIP3    H240163   2.985   1.881   0.586 -1.7212  1.1761 -1.7309
 6250TIP3   OH240164   1.699   6.070   3.938 -0.1687 -0.0854 -0.2373
 6250TIP3    H140165   1.794   6.061   3.948  0.1658  1.6635 -1.4739
 6250TIP3    H240166   1.671   6.121   4.014 -0.5146 -2.3124  1.2529
 6251TIP3   OH240167   1.296   2.994   3.101 -0.0401 -0.3735  0.0789
 6251TIP3    H140168   1.358   2.926   3.129 -0.3496 -0.3028  0.9872
 6251TIP3    H240169   1.298   3.058   3.172  0.0554  0.4540 -0.6476
 6252TIP3   OH240170   6.304   0.716   4.026  0.0235 -0.1965 -0.3595
 6252TIP3    H140171   6.390   0.676   4.019 -0.9204 -2.1975 -1.8799
 6252TIP3    H240172   6.312   0.799   3.978  1.1386 -0.2646 -0.3100
 6253TIP3   OH240173   3.679   4.937  15.148  0.6531  0.1624 -0.1559
 6253TIP3    H140174   3.696   4.862  15.092  2.3534  1.2546 -1.1907
 6253TIP3    H240175   3.754   4.941  15.207  0.4383  0.8815  0.0818
 6254TIP3   OH240176   3.516   2.201  16.562 -0.4240 -0.1222  0.3873
 6254TIP3    H140177   3.556   2.114  16.563  0.8852  0.3908  2.9722
 6254TIP3    H240178   3.425   2.186  16.587 -0.4042 -0.8267  0.0380
 6255TIP3   OH240179   0.874   3.055   3.875  0.5600 -0.0547  0.1177
 6255TIP3    H140180   0.944   3.067   3.939 -1.1000  0.0100  2.0448
 6255TIP3    H240181   0.801   3.107   3.910 -0.7297 -0.8230 -1.3180
 6256TIP3   OH240182   2.379   4.660   6.739  0.1001 -0.0445  0.1315
 6256TIP3    H140183   2.416   4.681   6.653  0.8967 -0.5778  0.3250
 6256TIP3    H240184   2.393   4.739   6.791  1.3994 -0.3763  0.3254
 6257TIP3   OH240185   2.852   5.370  15.788 -0.8159  0.0339  0.2647
 6257TIP3    H140186   2.758   5.350  15.785 -0.9673  0.8223 -0.8581
 6257TIP3    H240187   2.892   5.303  15.732 -0.9467  0.8673 -0.8465
 6258TIP3   OH240188   3.661   2.345  14.698 -0.1624  0.6970 -0.1236
 6258TIP3    H140189   3.665   2.326  14.604 -0.9587 -0.0005 -0.0232
 6258TIP3    H240190   3.692   2.265  14.740  1.0509  1.3092  0.2117
 6259TIP3   OH240191   2.788   3.888   4.929 -0.5098  0.0059 -0.4224
 6259TIP3    H140192   2.756   3.834   4.857  0.0380 -0.1257 -0.5686
 6259TIP3    H240193   2.858   3.941   4.891 -0.4122  0.1449 -0.0562
 6260TIP3   OH240194   4.248   4.781   3.318  0.7482 -0.0647 -0.1560
 6260TIP3    H140195   4.305   4.722   3.368  1.1216  0.6187  0.2394
 6260TIP3    H240196   4.309   4.837   3.270  0.3950 -0.8605 -1.5741
 6261TIP3   OH240197   5.552   0.123  11.255 -0.3787  0.3979  0.1422
 6261TIP3    H140198   5.515   0.207  11.279 -0.9280 -0.2020  1.5239
 6261TIP3    H240199   5.646   0.139  11.246 -0.4965  1.1707  0.2420
 6262TIP3   OH240200   6.022   4.624   0.098 -0.4419 -0.0930 -0.0850
 6262TIP3    H140201   6.078   4.700   0.081 -0.3544  0.0748  0.8673
 6262TIP3    H240202   5.948   4.635   0.039 -0.6964  1.0328  0.4069
 6263TIP3   OH240203   2.546   0.669  12.951 -0.0337  0.0165  0.2560
 6263TIP3    H140204   2.601   0.743  12.976  0.1085 -0.1766  0.5231
 6263TIP3    H240205   2.546   0.669  12.856  1.1713 -0.5199  0.2421
 6264TIP3   OH240206   3.655   5.936   1.927 -0.0095 -0.4038  0.1163
 6264TIP3    H140207   3.679   6.028   1.914 -2.5563  0.3135  0.1099
 6264TIP3    H240208   3.709   5.908   2.001  1.9558  0.5910 -0.8655
 6265TIP3   OH240209   0.180   2.686   2.894 -0.4521  0.0769  0.1164
 6265TIP3    H140210   0.251   2.749   2.882 -1.1727  0.3743 -4.4487
 6265TIP3    H240211   0.224   2.602   2.901  0.5081  0.3608 -1.7017
 6266TIP3   OH240212   5.975   1.707   1.386  0.0487 -0.0258 -0.7062
 6266TIP3    H140213   6.011   1.765   1.452  0.1462 -0.3955 -0.4347
 6266TIP3    H240214   5.880   1.709   1.401  0.1956 -1.8513  0.9268
 6267TIP3   OH240215   3.087   5.132  13.210 -0.0041  0.0762  0.3314
 6267TIP3    H140216   3.018   5.124  13.275  0.6691  1.3440  1.2450
 6267TIP3    H240217   3.167   5.106  13.256  0.3965  0.3839 -0.1696
 6268TIP3   OH240218   1.014   1.640  12.660 -0.7994  0.4325  0.2854
 6268TIP3    H140219   1.053   1.589  12.589  1.8697  0.5494  1.5731
 6268TIP3    H240220   0.965   1.576  12.712  0.2246 -0.3326  0.3382
 6269TIP3   OH240221   2.325   2.240  14.359  0.4207 -0.0791  0.0969
 6269TIP3    H140222   2.338   2.157  14.404  0.1380 -0.4097 -0.4165
 6269TIP3    H240223   2.230   2.249  14.352  0.4589  0.0384 -0.2999
 6270TIP3   OH240224   4.972   0.490  11.693  0.1293 -0.1678 -0.1952
 6270TIP3    H140225   4.948   0.581  11.679  0.2776  0.1296  1.3122
 6270TIP3    H240226   4.941   0.444  11.615  0.2143  1.1934 -1.0488
 6271TIP3   OH240227   5.687   6.520   3.659 -0.6732  0.2948  0.2794
 6271TIP3    H140228   5.781   6.509   3.670 -0.7983 -0.3640  0.7776
 6271TIP3    H240229   5.648   6.455   3.717 -1.4239 -1.0563 -1.6508
 6272TIP3   OH240230   3.206   3.567  14.111 -0.0228 -0.2183  0.4280
 6272TIP3    H140231   3.138   3.633  14.098  1.2986  1.0213 -0.4478
 6272TIP3    H240232   3.188   3.500  14.044 -0.8715 -0.3337  0.7647
 6273TIP3   OH240233   2.505   0.994   5.189  0.0390 -0.2800 -0.6667
 6273TIP3    H140234   2.553   1.076   5.201 -0.0509 -0.2277 -0.6648
 6273TIP3    H240235   2.414   1.016   5.206  0.0429 -0.4323 -0.4410
 6274TIP3   OH240236   3.067   2.987  11.977 -0.1827 -0.3803  0.2438
 6274TIP3    H140237   2.981   3.027  11.967  0.0294 -0.0354 -0.2518
 6274TIP3    H240238   3.089   3.000  12.069 -0.2913  0.2964  0.1792
 6275TIP3   OH240239   1.025   1.471  13.688 -0.3909 -0.1463 -0.2155
 6275TIP3    H140240   0.995   1.545  13.741 -0.0596  1.0264 -1.5973
 6275TIP3    H240241   1.048   1.510  13.603  0.4845 -1.7276 -0.7489
 6276TIP3   OH240242   6.423   6.667   0.952 -0.3088 -0.0298 -0.7952
 6276TIP3    H140243   6.334   6.663   0.986  0.0964 -2.4062  0.1326
 6276TIP3    H240244   6.412   6.674   0.857 -1.4667 -0.3833 -0.6971
 6277TIP3   OH240245   0.191   5.782  16.633 -0.1379  0.0681  0.5134
 6277TIP3    H140246   0.244   5.826  16.566 -0.4394 -0.1672  0.1167
 6277TIP3    H240247   0.237   5.800  16.715  1.4105 -1.3801  0.0292
 6278TIP3   OH240248   3.666   0.022  15.058 -0.0527  0.5538 -0.0455
 6278TIP3    H140249   3.685   0.101  15.008  0.7111  0.0041 -0.6579
 6278TIP3    H240250   3.588  -0.015  15.016  0.4943  0.1766 -0.7490
 6279TIP3   OH240251   0.545   2.946   0.045  0.6144  0.7490 -0.2654
 6279TIP3    H140252   0.502   2.872   0.002 -0.6297  1.5627 -0.4742
 6279TIP3    H240253   0.634   2.946   0.009  0.4869 -0.3458 -0.6209
 6280TIP3   OH240254   3.501   6.183  16.412  0.2062 -0.4386  0.0096
 6280TIP3    H140255   3.454   6.224  16.485 -0.4514 -0.9049 -0.1435
 6280TIP3    H240256   3.576   6.140  16.453  0.1375 -0.2367  0.3462
 6281TIP3   OH240257   4.190   0.590  16.868  0.4264 -0.2164 -0.7496
 6281TIP3    H140258   4.178   0.621  16.958  1.0874 -1.1605 -0.3199
 6281TIP3    H240259   4.283   0.607  16.849 -0.0334  1.2939 -1.7842
 6282TIP3   OH240260   6.069   5.071   3.602  0.0342  0.9318 -0.4560
 6282TIP3    H140261   5.998   5.135   3.593 -0.5076  0.2199 -1.4254
 6282TIP3    H240262   6.100   5.057   3.513 -0.7620 -1.1353 -0.4676
 6283TIP3   OH240263   2.201   1.148   4.433 -0.2087 -0.8902  0.3212
 6283TIP3    H140264   2.186   1.187   4.347  2.0802  0.5870  0.4892
 6283TIP3    H240265   2.121   1.166   4.482 -0.9015 -0.2592 -0.9768
 6284TIP3   OH240266   2.603   0.183   6.144  0.3325 -0.9124 -0.2672
 6284TIP3    H140267   2.593   0.200   6.050  0.1216  1.3208  0.0913
 6284TIP3    H240268   2.534   0.120   6.164 -0.7473 -0.1140 -1.3181
 6285TIP3   OH240269   1.734   2.068  13.195 -0.6634  0.1758 -0.0990
 6285TIP3    H140270   1.828   2.084  13.201 -0.5708  0.0139 -0.9151
 6285TIP3    H240271   1.725   2.013  13.117 -1.3280 -0.6638  0.5531
 6286TIP3   OH240272   4.902   4.578  13.011  0.0648  0.2695  0.2494
 6286TIP3    H140273   4.931   4.637  13.080 -0.9589  2.3940 -1.0422
 6286TIP3    H240274   4.819   4.542  13.043  0.7027 -0.5460  1.0463
 6287TIP3   OH240275   6.561   2.828  13.012 -0.5102 -0.6628 -0.7351
 6287TIP3    H140276   6.585   2.796  12.925 -1.5401 -0.1815 -1.2101
 6287TIP3    H240277   6.482   2.879  12.997 -0.2876  0.0206  0.3871
 6288TIP3   OH240278   1.084   0.297   4.820 -0.5166 -0.5814 -0.4780
 6288TIP3    H140279   1.019   0.333   4.760 -1.0169 -1.5144 -0.5256
 6288TIP3    H240280   1.156   0.270   4.763 -0.8430 -1.1446 -0.6369
 6289TIP3   OH240281   3.691   5.679  11.618  0.9667 -0.6212 -0.4728
 6289TIP3    H140282   3.723   5.621  11.549 -1.1959 -2.3032 -0.2150
 6289TIP3    H240283   3.687   5.622  11.696 -0.2121  0.1541  0.0637
 6290TIP3   OH240284   1.538   0.734  12.007  0.2566  0.3491 -0.1601
 6290TIP3    H140285   1.622   0.734  12.053 -0.5949 -0.2665  1.4881
 6290TIP3    H240286   1.519   0.826  11.990  0.6441  0.5798  0.6344
 6291TIP3   OH240287   5.272   4.275  16.393  0.1868 -0.1513 -0.0673
 6291TIP3    H140288   5.313   4.349  16.438  1.0058 -0.1754 -0.7523
 6291TIP3    H240289   5.317   4.198  16.427  0.7142 -0.1796 -0.8209
 6292TIP3   OH240290   6.319   1.256   0.088 -0.7234  0.6742  0.3415
 6292TIP3    H140291   6.326   1.161   0.092 -0.7592  0.7127  1.6653
 6292TIP3    H240292   6.229   1.273   0.061 -0.8869  0.3324  0.6671
 6293TIP3   OH240293   3.458   4.326   0.777  0.0577 -0.1531  0.1143
 6293TIP3    H140294   3.479   4.419   0.769 -0.3183 -0.1390 -0.9601
 6293TIP3    H240295   3.526   4.291   0.834 -0.1312  0.8870  1.0041
 6294TIP3   OH240296   6.358   5.402   5.468 -0.6207  0.1449  0.6073
 6294TIP3    H140297   6.274   5.360   5.449 -0.4826  0.4947 -0.9816
 6294TIP3    H240298   6.417   5.329   5.487 -0.2968 -0.5257 -2.4502
 6295TIP3   OH240299   6.221   4.676  11.018 -0.3435  0.1999 -0.7236
 6295TIP3    H140300   6.246   4.765  11.042 -0.8311  0.2410 -0.3604
 6295TIP3    H240301   6.302   4.636  10.987  0.3987  0.0550  1.2646
 6296TIP3   OH240302   3.779   5.451  11.741  0.5801 -0.3620  0.2455
 6296TIP3    H140303   3.748   5.405  11.663 -1.6221 -0.1552  0.9528
 6296TIP3    H240304   3.808   5.381  11.800  1.7137 -0.5442 -0.4840
 6297TIP3   OH240305   4.005   1.232   5.215 -0.2292 -0.0650  0.1081
 6297TIP3    H140306   4.052   1.159   5.253 -0.5379 -0.0740  0.4782
 6297TIP3    H240307   3.915   1.224   5.248 -0.5670 -0.2108 -0.8112
 6298TIP3   OH240308   2.988   2.192   2.263 -0.3694  0.7146  0.1619
 6298TIP3    H140309   3.041   2.203   2.184  0.4504 -2.6517  0.0925
 6298TIP3    H240310   3.051   2.174   2.332 -1.2008  1.7366  1.2246
 6299TIP3   OH240311   2.404   1.117   0.830 -0.5704 -0.1867 -0.3975
 6299TIP3    H140312   2.469   1.052   0.859  0.8071  1.2754 -0.0811
 6299TIP3    H240313   2.452   1.199   0.826 -2.1082  0.7192 -1.4536
 6300TIP3   OH240314   3.529   4.364  13.701  0.4713  0.1726  0.1704
 6300TIP3    H140315   3.485   4.299  13.646 -0.3563  0.3459  0.6021
 6300TIP3    H240316   3.602   4.317  13.741 -1.6790 -1.3822  2.6720
 6301TIP3   OH240317   5.217   5.905   4.852 -0.0005 -0.2484  0.2465
 6301TIP3    H140318   5.127   5.887   4.824  0.5821 -1.1523 -1.1190
 6301TIP3    H240319   5.208   5.935   4.942 -1.7078  0.0747  0.0088
 6302TIP3   OH240320   5.619   5.355  14.781 -0.7130  0.0997  0.0226
 6302TIP3    H140321   5.618   5.264  14.753  0.6386  0.4677 -1.3406
 6302TIP3    H240322   5.710   5.372  14.805 -1.4773  0.2556  3.3420
 6303TIP3   OH240323   4.634   0.072  14.659  0.3026 -0.2639  0.6477
 6303TIP3    H140324   4.659   0.152  14.613 -0.2901  0.2126  1.1421
 6303TIP3    H240325   4.709   0.013  14.647 -0.1747 -0.4738 -1.6320
 6304TIP3   OH240326   0.325   6.010   3.713 -0.5655  0.2290  0.7834
 6304TIP3    H140327   0.238   6.010   3.754  0.4611  2.6105  3.2512
 6304TIP3    H240328   0.323   6.083   3.652 -0.9230 -1.1073 -0.8875
 6305TIP3   OH240329   1.456   5.701  17.147  0.3025 -0.0390 -0.0483
 6305TIP3    H140330   1.515   5.756  17.199 -0.8594  0.0210  1.2503
 6305TIP3    H240331   1.475   5.726  17.056  0.6924  1.5876  0.4460
 6306TIP3   OH240332   5.457   5.906   2.359  0.6311 -0.2396 -0.8020
 6306TIP3    H140333   5.479   5.961   2.283  0.5095  1.7913  0.5409
 6306TIP3    H240334   5.446   5.818   2.323  1.4972  0.4745 -2.9782
 6307TIP3   OH240335   6.103   3.902   3.453  0.1003  0.0941  0.1234
 6307TIP3    H140336   6.138   3.986   3.422  1.6414 -0.3479  0.5774
 6307TIP3    H240337   6.161   3.878   3.525 -0.4021 -1.2988  0.0720
 6308TIP3   OH240338   5.200   3.688  15.697  0.4325 -0.2798  0.2606
 6308TIP3    H140339   5.294   3.686  15.716  0.5556  0.4526 -0.2341
 6308TIP3    H240340   5.163   3.742  15.766  0.5525  0.4358 -0.2245
 6309TIP3   OH240341   0.543   3.752  13.115  0.1564 -0.0264 -0.7635
 6309TIP3    H140342   0.463   3.752  13.064 -1.4118  0.9742  1.5360
 6309TIP3    H240343   0.570   3.660  13.118 -1.5244 -0.5496 -0.6963
 6310TIP3   OH240344   0.836   2.040  16.346  0.2798  0.1453 -0.2587
 6310TIP3    H140345   0.865   2.123  16.384 -2.0806  0.5110  0.8693
 6310TIP3    H240346   0.868   1.973  16.407 -0.4143  0.4722  0.4778
 6311TIP3   OH240347   4.475   1.819  16.750  0.2717 -0.4400 -0.1631
 6311TIP3    H140348   4.453   1.875  16.825 -0.8228 -1.0508 -0.0092
 6311TIP3    H240349   4.392   1.806  16.705  0.8813 -0.2741 -1.3600
 6312TIP3   OH240350   6.607   5.250  11.787  0.8611  0.1271  0.0823
 6312TIP3    H140351   6.561   5.310  11.845 -0.5503  2.3541 -3.0519
 6312TIP3    H240352   6.546   5.178  11.773  0.1000  0.8895 -0.6271
 6313TIP3   OH240353   3.164   2.210  10.858  0.1460 -0.5788 -0.0109
 6313TIP3    H140354   3.254   2.177  10.854 -0.1260 -1.4229  0.5773
 6313TIP3    H240355   3.147   2.243  10.770  1.8380  1.8193  0.4755
 6314TIP3   OH240356   5.450   2.753  13.222 -0.1261 -0.3007 -0.1953
 6314TIP3    H140357   5.463   2.686  13.289  1.4514 -0.3142 -0.4660
 6314TIP3    H240358   5.410   2.705  13.149 -0.2113 -0.6669  0.0870
 6315TIP3   OH240359   3.593   4.596  11.830 -0.0238  0.3184  0.3761
 6315TIP3    H140360   3.600   4.676  11.882 -0.7129  1.1833 -0.8299
 6315TIP3    H240361   3.545   4.535  11.886 -0.5327  1.1492  0.8556
 6316TIP3   OH240362   0.427   1.236  11.941 -0.1346 -0.0715  0.0703
 6316TIP3    H140363   0.460   1.216  11.853  1.4394  0.1426  0.5653
 6316TIP3    H240364   0.332   1.239  11.932 -0.1345 -2.0456 -1.2166
 6317TIP3   OH240365   6.513   3.829   4.869  0.1277  0.3880  0.3727
 6317TIP3    H140366   6.481   3.739   4.859 -0.2140  0.4080  1.1861
 6317TIP3    H240367   6.582   3.837   4.804  0.2509 -0.5100  0.3796
 6318TIP3   OH240368   3.455   5.627   3.367 -0.2148 -0.4034 -0.7664
 6318TIP3    H140369   3.457   5.674   3.283  2.3064 -0.4087 -0.7956
 6318TIP3    H240370   3.447   5.697   3.432 -1.7490 -0.3680 -0.9609
 6319TIP3   OH240371   1.886   1.593   2.320  0.4100 -0.3565 -0.0960
 6319TIP3    H140372   1.866   1.554   2.235  0.9170  2.0749 -1.4298
 6319TIP3    H240373   1.923   1.679   2.299 -0.4172  0.7801  2.6083
 6320TIP3   OH240374   2.830   0.502  16.996 -0.0530  0.0185  0.3998
 6320TIP3    H140375   2.761   0.507  17.062  0.2267  2.2762  0.6191
 6320TIP3    H240376   2.856   0.593  16.982  1.2963 -0.5769 -1.3664
 6321TIP3   OH240377   2.050   1.251   2.156 -0.4249 -0.6324  0.4819
 6321TIP3    H140378   1.994   1.201   2.097 -0.5026 -0.5532  0.4880
 6321TIP3    H240379   2.091   1.185   2.212 -0.1788 -0.7242  0.1907
 6322TIP3   OH240380   4.634   2.768   5.541 -0.2357 -0.3794  0.3845
 6322TIP3    H140381   4.663   2.695   5.596  0.2216  0.7762  1.7335
 6322TIP3    H240382   4.669   2.846   5.584  0.4429  0.5688 -1.7397
 6323TIP3   OH240383   2.529   5.594  14.726  0.2455  0.9847 -0.0321
 6323TIP3    H140384   2.596   5.527  14.717 -1.1486 -0.3330 -0.9849
 6323TIP3    H240385   2.575   5.676  14.709  1.7832  0.2106  0.2228
 6324TIP3   OH240386   2.051   4.457  13.540 -0.4697 -0.5703 -0.1988
 6324TIP3    H140387   1.994   4.425  13.610 -0.4115 -0.3611 -0.0552
 6324TIP3    H240388   1.991   4.493  13.474 -0.4753  2.8258  1.4511
 6325TIP3   OH240389   6.550   4.840  14.036  0.0808  0.2275 -0.6910
 6325TIP3    H140390   6.565   4.768  13.975 -0.1461  0.7433 -1.3714
 6325TIP3    H240391   6.566   4.803  14.123  1.6127 -0.2118 -1.1281
 6326TIP3   OH240392   3.339   5.230   1.370 -0.0139 -0.0984  0.1227
 6326TIP3    H140393   3.272   5.197   1.430  0.1831 -1.5663 -0.4365
 6326TIP3    H240394   3.302   5.215   1.283 -0.5436  2.5108 -0.1962
 6327TIP3   OH240395   6.516   5.870   1.537  0.2546 -0.7476  0.5604
 6327TIP3    H140396   6.448   5.895   1.600  1.9091  1.5560  1.5885
 6327TIP3    H240397   6.471   5.868   1.453 -0.9801  1.6291  1.0745
 6328TIP3   OH240398   5.941   0.874   1.842  0.8052  0.2376  0.0575
 6328TIP3    H140399   5.979   0.789   1.865  2.4196  0.7732 -0.5262
 6328TIP3    H240400   5.912   0.910   1.926  0.3513 -0.7558  0.3454
 6329TIP3   OH240401   0.933   3.088  15.665  0.7789  0.3548  0.6180
 6329TIP3    H140402   1.000   3.094  15.596  0.2438  0.9525  0.1472
 6329TIP3    H240403   0.981   3.053  15.740  0.8914 -2.7155 -0.7058
 6330TIP3   OH240404   2.570   0.614   5.995 -0.3171 -0.0270 -0.5368
 6330TIP3    H140405   2.565   0.561   5.916 -1.1286  2.1343 -2.0509
 6330TIP3    H240406   2.624   0.689   5.970 -1.4593  1.2335  0.5669
 6331TIP3   OH240407   4.534   5.041  10.867  0.1367 -0.2796  0.3137
 6331TIP3    H140408   4.579   5.039  10.783  2.0626 -2.8193  1.2446
 6331TIP3    H240409   4.570   5.118  10.912  1.2078 -0.4693 -0.1726
 6332TIP3   OH240410   3.011   3.851   5.524  0.2165  0.4241  0.5995
 6332TIP3    H140411   2.991   3.772   5.473  2.1128  0.4079 -0.2048
 6332TIP3    H240412   3.045   3.913   5.460  0.8772  1.0904  1.5670
 6333TIP3   OH240413   1.566   1.130  12.272 -0.0291  0.5323 -0.2726
 6333TIP3    H140414   1.489   1.144  12.326 -0.5410  0.5896 -0.9979
 6333TIP3    H240415   1.570   1.208  12.216  1.1862  1.0517  0.4868
 6334TIP3   OH240416   0.063   3.111   0.724  0.2714 -0.8322  0.6166
 6334TIP3    H140417   0.010   3.183   0.758 -0.9123 -0.9484 -0.8524
 6334TIP3    H240418   0.091   3.140   0.638  0.2534 -1.8927  0.2383
 6335TIP3   OH240419   2.200   5.451  11.317 -0.4283 -0.4956 -0.2189
 6335TIP3    H140420   2.287   5.425  11.286 -0.4709 -0.1498 -0.6363
 6335TIP3    H240421   2.204   5.438  11.412 -0.0825 -0.9473 -0.2935
 6336TIP3   OH240422   2.720   6.136  12.685  0.0119 -0.2226 -0.6282
 6336TIP3    H140423   2.803   6.111  12.724 -0.7296 -0.7054  0.7253
 6336TIP3    H240424   2.686   6.205  12.743 -0.9405 -0.6676 -0.6335
 6337TIP3   OH240425   0.831   2.328  12.912  0.0156  0.3560 -0.1822
 6337TIP3    H140426   0.888   2.403  12.897  0.0944  0.0757 -1.3854
 6337TIP3    H240427   0.854   2.298  13.000  1.0777  0.8003 -0.2880
 6338TIP3   OH240428   6.748   5.343   6.118  0.1559  0.1275 -1.2280
 6338TIP3    H140429   6.745   5.256   6.077  0.7334 -0.1911 -0.6075
 6338TIP3    H240430   6.699   5.332   6.200  0.5568  0.2857 -0.9673
 6339TIP3   OH240431   4.459   3.748   1.525 -0.0543 -0.0220 -0.3882
 6339TIP3    H140432   4.535   3.803   1.511 -1.0332  1.3193 -0.6128
 6339TIP3    H240433   4.458   3.731   1.619  0.7224 -0.3877 -0.4360
 6340TIP3   OH240434   1.980   3.956   3.605 -0.6932  0.6142  0.3178
 6340TIP3    H140435   1.994   3.950   3.511  0.9027  0.6751  0.5259
 6340TIP3    H240436   1.916   4.027   3.616 -0.8827  0.6118 -0.7051
 6341TIP3   OH240437   4.355   4.294   1.037  0.6079 -0.4750 -0.9360
 6341TIP3    H140438   4.306   4.230   1.089 -2.9828  1.4466 -1.6378
 6341TIP3    H240439   4.428   4.321   1.094  0.1078 -2.4884  0.7771
 6342TIP3   OH240440   1.464   4.043   2.643 -0.3078 -0.5300  0.1304
 6342TIP3    H140441   1.548   4.014   2.608  1.2343  3.5842 -0.1828
 6342TIP3    H240442   1.471   4.029   2.737  0.2710 -1.2006 -0.0061
 6343TIP3   OH240443   5.648   2.555   4.999  0.0434 -0.9035 -0.1582
 6343TIP3    H140444   5.612   2.612   5.066 -0.7926 -1.1464 -0.3892
 6343TIP3    H240445   5.595   2.572   4.921  1.1441 -0.4491 -0.8438
 6344TIP3   OH240446   2.574   1.769   4.629  0.2567 -0.5236  0.8082
 6344TIP3    H140447   2.580   1.673   4.628  1.3207 -0.4708  0.7673
 6344TIP3    H240448   2.481   1.787   4.640 -0.0706 -1.5649 -0.0336
 6345TIP3   OH240449   3.640   3.479   6.095  0.0444 -0.2714 -0.0060
 6345TIP3    H140450   3.729   3.504   6.121 -0.5295  0.9761  0.8162
 6345TIP3    H240451   3.611   3.420   6.165 -1.2057  2.4657  1.9566
 6346TIP3   OH240452   4.613   5.729  11.459  0.2344  0.1578 -0.1056
 6346TIP3    H140453   4.671   5.748  11.533 -0.5026  0.5677  0.3846
 6346TIP3    H240454   4.593   5.814  11.421 -1.4122  0.2226  0.8058
 6347TIP3   OH240455   5.167   0.121  14.557 -0.1163  0.4439  0.5757
 6347TIP3    H140456   5.149   0.197  14.611 -2.1150  0.2579  0.2405
 6347TIP3    H240457   5.244   0.081  14.596  2.1305  3.5622 -0.2825
 6348TIP3   OH240458   2.034   3.002  11.476  0.3545 -0.3487  0.2069
 6348TIP3    H140459   2.068   2.914  11.492 -0.9595 -1.0486 -0.6842
 6348TIP3    H240460   1.981   2.993  11.397 -0.6503  1.0274  0.6933
 6349TIP3   OH240461   1.372   5.139  15.250 -0.4726 -0.4904  0.0768
 6349TIP3    H140462   1.293   5.132  15.196  0.4668 -1.1281 -1.2656
 6349TIP3    H240463   1.368   5.063  15.308 -2.3518  1.0820  2.2198
 6350TIP3   OH240464   5.095   5.782  12.730 -0.5592  0.5099  0.0477
 6350TIP3    H140465   5.011   5.743  12.705 -0.8846  0.1824  1.5432
 6350TIP3    H240466   5.159   5.712  12.714 -0.5818  0.7061 -0.9470
 6351TIP3   OH240467   1.847   2.796  12.097 -0.2096  0.2054  0.3161
 6351TIP3    H140468   1.861   2.707  12.127  1.8906  0.2024 -0.5189
 6351TIP3    H240469   1.788   2.787  12.021  2.7514 -0.9590 -2.0233
 6352TIP3   OH240470   5.770   6.220  15.191 -0.1547 -0.1498  0.5839
 6352TIP3    H140471   5.751   6.269  15.111 -1.0420 -0.2199  0.7404
 6352TIP3    H240472   5.825   6.279  15.242 -0.3882  0.2876  0.3401
 6353TIP3   OH240473   0.563   4.371   0.645  0.1051  0.0681  0.0209
 6353TIP3    H140474   0.542   4.285   0.680 -0.5411 -0.1863 -0.9718
 6353TIP3    H240475   0.635   4.356   0.584  0.6608  0.3874  0.5803
 6354TIP3   OH240476   1.241   5.251  15.767 -0.5243 -0.3019  0.4520
 6354TIP3    H140477   1.305   5.290  15.707 -0.9967 -1.7567 -1.0712
 6354TIP3    H240478   1.159   5.295  15.746 -1.1613 -2.2691 -1.6031
 6355TIP3   OH240479   5.582   2.318   5.396  0.0537 -0.0286  0.1399
 6355TIP3    H140480   5.498   2.279   5.418  0.0705 -0.4294 -0.4890
 6355TIP3    H240481   5.641   2.289   5.465 -0.2585  0.0403  0.4404
 6356TIP3   OH240482   2.531   5.401  14.429 -0.4366  0.2980 -0.0658
 6356TIP3    H140483   2.526   5.316  14.472  1.6593  0.5697  0.7976
 6356TIP3    H240484   2.480   5.459  14.485  0.5472  0.2079  0.9437
 6357TIP3   OH240485   1.401   2.166   5.758 -0.0105 -0.1683 -0.6470
 6357TIP3    H140486   1.371   2.104   5.824 -0.3380  0.3237 -0.3273
 6357TIP3    H240487   1.371   2.251   5.789  1.0695  0.2498 -0.7162
 6358TIP3   OH240488   5.686   1.380  12.694 -0.0832  0.6134 -0.0802
 6358TIP3    H140489   5.665   1.459  12.643 -3.2272 -0.1721 -0.2284
 6358TIP3    H240490   5.622   1.380  12.766  0.4608 -1.3118  0.4697
 6359TIP3   OH240491   5.212   4.147   0.169 -0.2848 -0.1987  0.5051
 6359TIP3    H140492   5.132   4.146   0.222 -0.6372  0.7299  0.0167
 6359TIP3    H240493   5.280   4.113   0.227 -0.4581  1.6600  1.9075
 6360TIP3   OH240494   0.686   3.773  12.671  0.3040 -0.2608 -0.2433
 6360TIP3    H140495   0.599   3.794  12.638  0.2672  0.7083  0.4135
 6360TIP3    H240496   0.680   3.683  12.703 -0.7414  0.1167  0.6798
 6361TIP3   OH240497   5.216   0.680  16.001 -0.1375  0.1224  0.1354
 6361TIP3    H140498   5.161   0.698  16.077  0.9591  0.0962  0.9557
 6361TIP3    H240499   5.300   0.651  16.038  0.4569  0.2328 -1.0787
 6362TIP3   OH240500   6.003   3.569   0.085 -0.4446 -0.5255 -0.1682
 6362TIP3    H140501   6.001   3.494   0.145 -1.9220 -0.5928 -0.2746
 6362TIP3    H240502   5.944   3.633   0.125 -0.9519 -0.3258 -1.2121
 6363TIP3   OH240503   6.662   4.274  12.308 -0.5381  0.3843 -0.0741
 6363TIP3    H140504   6.632   4.197  12.355  0.9197  0.0693  0.3832
 6363TIP3    H240505   6.718   4.320  12.370  0.1651  0.7910 -0.9909
 6364TIP3   OH240506   4.475   2.604  16.335  0.1834  0.1657 -0.0553
 6364TIP3    H140507   4.392   2.635  16.299  1.1699  0.0921 -2.5931
 6364TIP3    H240508   4.490   2.520  16.293  1.1779 -0.2117  1.0040
 6365TIP3   OH240509   5.363   3.553   0.109  0.5346  0.2114  0.4003
 6365TIP3    H140510   5.302   3.527   0.179 -2.0145  1.4013 -1.2249
 6365TIP3    H240511   5.419   3.619   0.150 -0.3933  0.3314  1.5318
 6366TIP3   OH240512   3.929   0.018   0.884  0.1068  0.3680  0.3447
 6366TIP3    H140513   3.857   0.068   0.924  0.9061  1.8201  0.0430
 6366TIP3    H240514   3.887  -0.032   0.814 -1.0965 -1.1986  2.0787
 6367TIP3   OH240515   5.514   1.196   2.184 -0.0156  0.2467 -0.7368
 6367TIP3    H140516   5.517   1.290   2.165  0.2952  0.6625  1.2173
 6367TIP3    H240517   5.561   1.156   2.110 -2.2864  1.3378 -2.9194
 6368TIP3   OH240518   0.348   5.189  14.858  0.3352 -0.5549  0.2501
 6368TIP3    H140519   0.377   5.134  14.930  0.1661  0.6947  1.3220
 6368TIP3    H240520   0.254   5.203  14.874  0.4918  0.5150  0.3552
 6369TIP3   OH240521   3.894   2.054   1.857 -0.2927 -0.1498  0.4436
 6369TIP3    H140522   3.918   2.063   1.949 -1.5389 -0.7885  0.8671
 6369TIP3    H240523   3.898   1.959   1.841 -0.8955 -0.1249  0.0970
 6370TIP3   OH240524   2.133   3.380   2.259 -0.4396  0.2568  0.3024
 6370TIP3    H140525   2.042   3.369   2.286 -0.1833  0.1784  1.1748
 6370TIP3    H240526   2.184   3.358   2.337  0.3024  1.0395  0.0516
 6371TIP3   OH240527   6.588   1.272  13.585 -0.1114  0.0089  0.2876
 6371TIP3    H140528   6.565   1.185  13.553 -0.5864  0.7410 -1.4856
 6371TIP3    H240529   6.524   1.291  13.653 -1.4076 -0.1417 -0.8636
 6372TIP3   OH240530   3.347   0.514  14.664 -0.3199 -0.1171 -0.4781
 6372TIP3    H140531   3.365   0.430  14.708 -0.3940  0.9157  1.6484
 6372TIP3    H240532   3.345   0.492  14.571  2.4564 -1.9966 -0.2161
 6373TIP3   OH240533   6.059   5.164   3.138 -0.0969 -0.2444 -0.0089
 6373TIP3    H140534   5.972   5.136   3.165  0.3166 -2.3836 -0.6346
 6373TIP3    H240535   6.051   5.182   3.045 -0.0978  0.6911  0.1610
 6374TIP3   OH240536   5.238   2.044   0.795  0.2289 -0.0514 -0.3127
 6374TIP3    H140537   5.219   1.968   0.741 -0.2268  0.0776 -0.3416
 6374TIP3    H240538   5.308   2.016   0.853  0.5503 -0.2692 -0.8001
 6375TIP3   OH240539   3.357   6.290  12.073 -0.0921 -0.3437 -0.6388
 6375TIP3    H140540   3.407   6.209  12.070  0.8732  0.2283 -0.3810
 6375TIP3    H240541   3.284   6.275  12.013 -0.6946 -1.8803  0.4151
 6376TIP3   OH240542   3.584   2.373   1.709  0.2517 -0.5882 -0.4396
 6376TIP3    H140543   3.523   2.446   1.694 -0.4206 -1.2836 -1.1692
 6376TIP3    H240544   3.670   2.415   1.712 -0.1773  0.3123 -0.2093
 6377TIP3   OH240545   6.341   1.476   3.052  0.4824 -0.4090  0.1894
 6377TIP3    H140546   6.378   1.484   2.963  1.2996 -1.3011  0.4328
 6377TIP3    H240547   6.247   1.462   3.037  0.1771  1.8288 -0.4469
 6378TIP3   OH240548   1.037   1.634   5.507  0.6128  0.3460  0.4478
 6378TIP3    H140549   1.002   1.654   5.420 -0.6286 -1.4486  0.4698
 6378TIP3    H240550   1.130   1.618   5.492  0.7837  1.7958 -0.2229
 6379TIP3   OH240551   4.259   3.309  12.019  0.0484 -0.5184  0.1734
 6379TIP3    H140552   4.262   3.377  12.086  1.0843 -0.7218  0.3591
 6379TIP3    H240553   4.251   3.357  11.937 -0.5596 -0.2390  0.3933
 6380TIP3   OH240554   4.191   1.485  11.440 -0.5045  0.5360 -0.6334
 6380TIP3    H140555   4.221   1.572  11.415 -1.5481  0.6372 -1.5883
 6380TIP3    H240556   4.124   1.500  11.506  0.6593  0.3545  0.6326
 6381TIP3   OH240557   2.104   4.758   2.506  0.1802 -0.1300 -1.0091
 6381TIP3    H140558   2.096   4.739   2.413 -0.4524 -1.5943 -0.6922
 6381TIP3    H240559   2.195   4.781   2.519  0.2109  0.3562 -2.0370
 6382TIP3   OH240560   0.479   4.813  17.115  0.2386  0.6200 -0.2052
 6382TIP3    H140561   0.561   4.813  17.164  0.1080  0.5682  0.0133
 6382TIP3    H240562   0.439   4.728  17.135 -0.4794  1.1633  0.7068
 6383TIP3   OH240563   6.130   3.233   2.676  0.2910  0.4050 -1.3755
 6383TIP3    H140564   6.152   3.308   2.621 -1.4243  1.3507 -0.8718
 6383TIP3    H240565   6.087   3.172   2.616 -0.1215  0.7217 -1.4082
 6384TIP3   OH240566   6.306   4.620  11.579  0.3759  0.2199 -0.2097
 6384TIP3    H140567   6.375   4.686  11.569  0.6106  0.0243  0.1147
 6384TIP3    H240568   6.349   4.548  11.625  0.1347 -0.1841 -0.6125
 6385TIP3   OH240569   2.962   4.200  13.851  0.0948  0.3653  0.4614
 6385TIP3    H140570   3.017   4.239  13.783  0.2504  0.0851  0.4267
 6385TIP3    H240571   2.905   4.272  13.879 -0.2722  0.3674 -0.2740
 6386TIP3   OH240572   6.331   5.953   1.302  0.2208 -0.5466  0.5915
 6386TIP3    H140573   6.267   6.020   1.279  2.6157  1.2718 -1.2707
 6386TIP3    H240574   6.326   5.889   1.232 -1.2674 -1.8190  1.7865
 6387TIP3   OH240575   0.705   4.222  14.852  0.0662 -0.1065  0.7019
 6387TIP3    H140576   0.620   4.240  14.812 -0.0871 -3.1463 -0.6689
 6387TIP3    H240577   0.769   4.266  14.796 -0.4086 -0.9797 -0.5478
 6388TIP3   OH240578   0.895   5.467   5.629  0.0213 -0.7160  0.0754
 6388TIP3    H140579   0.931   5.405   5.692  2.4907  0.1828 -0.3450
 6388TIP3    H240580   0.949   5.456   5.551 -0.4852  0.8926 -0.5458
 6389TIP3   OH240581   1.837   3.996  15.456  0.2462 -0.1103  0.5374
 6389TIP3    H140582   1.903   4.038  15.512 -0.2842 -0.1826  1.2264
 6389TIP3    H240583   1.886   3.929  15.408  0.6055 -0.4548  1.3614
 6390TIP3   OH240584   1.526   6.718   2.293  0.7444  0.1060  0.1432
 6390TIP3    H140585   1.469   6.795   2.298  1.3648  0.4969  1.6964
 6390TIP3    H240586   1.562   6.709   2.381  1.5928 -1.2848 -0.3141
 6391TIP3   OH240587   5.021   1.916   5.656 -0.1607  0.5011 -0.0462
 6391TIP3    H140588   5.026   1.953   5.744  0.4393 -0.8167  0.5056
 6391TIP3    H240589   4.973   1.981   5.605 -0.1927  1.4565  1.1612
 6392TIP3   OH240590   1.318   6.056  13.800 -0.2091 -0.0103 -0.1602
 6392TIP3    H140591   1.273   6.096  13.874 -1.4814 -1.2699 -0.2176
 6392TIP3    H240592   1.257   6.063  13.728 -0.0769 -1.1622 -0.4082
 6393TIP3   OH240593   2.992   3.880   4.624  0.0384 -0.1966 -0.3950
 6393TIP3    H140594   3.085   3.874   4.644  0.5804  1.4703 -2.0925
 6393TIP3    H240595   2.949   3.889   4.709  1.5752  0.4274  0.3390
 6394TIP3   OH240596   0.748   6.724   4.450  0.4734 -0.5943  0.4251
 6394TIP3    H140597   0.776   6.762   4.367 -0.3439  0.1882  0.4840
 6394TIP3    H240598   0.827   6.721   4.503  0.9069 -0.6497 -0.2177
 6395TIP3   OH240599   0.642   4.772  11.370 -0.1482  0.2194 -0.4929
 6395TIP3    H140600   0.729   4.792  11.337 -0.0895 -0.0462 -0.5012
 6395TIP3    H240601   0.604   4.857  11.391 -0.2536  0.4035 -1.4022
 6396TIP3   OH240602   6.655   5.286   4.718 -0.2661 -0.3259 -0.3878
 6396TIP3    H140603   6.670   5.316   4.628  1.9494  0.6560  0.2507
 6396TIP3    H240604   6.589   5.346   4.753  0.4279  0.6420 -0.7086
 6397TIP3   OH240605   1.411   5.670   3.392  0.6535  0.6870 -0.3162
 6397TIP3    H140606   1.368   5.619   3.461  0.7341  0.9499 -0.0690
 6397TIP3    H240607   1.343   5.684   3.326  0.1081  1.7988  0.4475
 6398TIP3   OH240608   5.078   5.202   4.350  0.3628  0.0727 -0.0210
 6398TIP3    H140609   5.101   5.178   4.439  0.2294 -0.2538 -0.0753
 6398TIP3    H240610   5.067   5.119   4.304 -0.3280  0.2269 -0.1451
 6399TIP3   OH240611   5.831   0.658  17.094  0.1445  0.1765  0.1071
 6399TIP3    H140612   5.798   0.638  17.006 -0.3952  0.0624  0.3316
 6399TIP3    H240613   5.808   0.580  17.146 -2.0192  1.3396  1.0117
 6400TIP3   OH240614   0.703   3.472  16.122 -0.0537  0.1711 -0.0610
 6400TIP3    H140615   0.760   3.518  16.183 -0.6023  0.3446  0.3228
 6400TIP3    H240616   0.659   3.541  16.072  1.0928  0.0303 -1.3248
 6401TIP3   OH240617   3.924   1.490  13.050 -0.5583  0.1180 -0.2812
 6401TIP3    H140618   3.998   1.545  13.027 -0.1234 -0.4765 -0.3460
 6401TIP3    H240619   3.963   1.404  13.069 -1.3496 -0.5348 -1.4958
 6402TIP3   OH240620   6.453   1.520  13.169 -0.1596 -0.0849 -0.4625
 6402TIP3    H140621   6.387   1.492  13.233 -0.3261  0.7381 -0.2561
 6402TIP3    H240622   6.536   1.496  13.209 -0.0862  2.7300  1.3614
 6403TIP3   OH240623   0.761   0.498  13.199 -0.0836 -0.7351  0.9192
 6403TIP3    H140624   0.766   0.570  13.262  0.2482 -0.1157  0.1943
 6403TIP3    H240625   0.667   0.481  13.189 -0.2613  0.8489 -0.3052
 6404TIP3   OH240626   2.410   2.386  11.199  0.4129 -0.0590  0.5704
 6404TIP3    H140627   2.333   2.443  11.190 -0.1094 -0.7191  0.8372
 6404TIP3    H240628   2.484   2.442  11.172 -0.5033 -0.5350 -3.6482
 6405TIP3   OH240629   1.339   1.691  16.181  0.4797  0.8687 -0.1086
 6405TIP3    H140630   1.248   1.666  16.195  0.2470  2.4301  1.5860
 6405TIP3    H240631   1.358   1.662  16.092 -0.5476 -2.6559  0.6199
 6406TIP3   OH240632   2.156   1.967   3.507 -0.3087  0.0503  0.2381
 6406TIP3    H140633   2.088   2.032   3.525  0.0932  1.0324 -1.5735
 6406TIP3    H240634   2.109   1.884   3.505 -1.2012  0.5316  0.4435
 6407TIP3   OH240635   3.450   5.102   1.763 -0.4617  0.4830 -0.3529
 6407TIP3    H140636   3.450   5.157   1.841 -3.5772  0.7380 -0.4248
 6407TIP3    H240637   3.449   5.013   1.796  1.9240  0.4363 -0.2221
 6408TIP3   OH240638   5.189   0.623  11.259  0.2651 -0.5986 -0.5217
 6408TIP3    H140639   5.180   0.539  11.305 -0.2625  0.2741  1.0445
 6408TIP3    H240640   5.274   0.657  11.288 -0.9042  0.8475  1.4239
 6409TIP3   OH240641   1.811   5.605   0.569 -0.3398  0.2535  0.0573
 6409TIP3    H140642   1.854   5.676   0.522 -0.0333  0.2171  0.2760
 6409TIP3    H240643   1.873   5.582   0.639 -0.1305 -0.6637 -0.4119
 6410TIP3   OH240644   1.412   6.410   2.522 -0.1760  0.3360 -0.1921
 6410TIP3    H140645   1.502   6.378   2.514 -0.2950 -1.1673  2.9009
 6410TIP3    H240646   1.414   6.469   2.597 -1.8835 -0.3095  0.4105
 6411TIP3   OH240647   4.465   6.728  15.224  0.0704 -0.2294  0.4931
 6411TIP3    H140648   4.400   6.773  15.170 -1.3067 -1.0618  1.3961
 6411TIP3    H240649   4.546   6.776  15.209 -0.7042  0.7393 -0.8040
 6412TIP3   OH240650   3.854   1.767   4.689  0.2550  0.0502  0.5654
 6412TIP3    H140651   3.907   1.706   4.740  0.0703 -0.1983  0.4636
 6412TIP3    H240652   3.827   1.833   4.752 -0.2954 -0.4631  0.8800
 6413TIP3   OH240653   3.564   2.189  14.280 -0.0546 -0.2309 -0.1123
 6413TIP3    H140654   3.571   2.261  14.343 -1.4386 -0.9266  0.8998
 6413TIP3    H240655   3.539   2.230  14.198  0.3123  0.5538  0.1624
 6414TIP3   OH240656   4.934   2.348   0.873  0.0203 -0.2135  0.4451
 6414TIP3    H140657   4.905   2.412   0.808 -0.1888 -0.7436  0.0076
 6414TIP3    H240658   4.854   2.299   0.895  0.1820 -0.3417  0.7559
 6415TIP3   OH240659   3.501   0.640   3.284 -0.0322  0.1888  0.3178
 6415TIP3    H140660   3.521   0.681   3.200  1.1585 -1.1827 -0.1060
 6415TIP3    H240661   3.496   0.713   3.346 -2.5534  1.4230 -1.1558
 6416TIP3   OH240662   0.826   6.729  16.795 -0.4085 -0.2965  0.0847
 6416TIP3    H140663   0.771   6.805  16.779  1.0259  0.7689  0.0757
 6416TIP3    H240664   0.792   6.662  16.734 -2.3453 -0.0611  0.8209
 6417TIP3   OH240665   6.775   5.283   2.008 -0.1985  0.7465  0.3529
 6417TIP3    H140666   6.684   5.252   1.999 -0.5156  0.7990  2.6656
 6417TIP3    H240667   6.769   5.359   2.066  1.1774  1.7654 -0.7868
 6418TIP3   OH240668   4.538   1.753  14.712  0.0894  0.0940  0.4177
 6418TIP3    H140669   4.471   1.726  14.649  0.5203 -0.0514  0.0115
 6418TIP3    H240670   4.550   1.847  14.696  0.8397 -0.1129 -0.3590
 6419TIP3   OH240671   0.151   0.683   3.357 -0.3936 -0.2402  0.0183
 6419TIP3    H140672   0.238   0.719   3.374 -0.8695  1.1907 -0.4043
 6419TIP3    H240673   0.147   0.674   3.261 -0.4127 -1.1308  0.0926
 6420TIP3   OH240674   6.539   4.349  15.783  0.0617 -0.3565 -0.1669
 6420TIP3    H140675   6.631   4.344  15.808  0.4127  0.9729 -1.0936
 6420TIP3    H240676   6.533   4.294  15.705  0.0602 -0.4698 -0.0874
 6421TIP3   OH240677   5.961   0.124   2.295  0.2271  0.1086  0.2492
 6421TIP3    H140678   6.030   0.080   2.345  0.8983 -0.0607 -0.7933
 6421TIP3    H240679   5.932   0.059   2.232 -0.3201  0.4519  0.1416
 6422TIP3   OH240680   1.036   5.675  11.364  0.1711 -0.9118 -0.2388
 6422TIP3    H140681   1.125   5.665  11.330  0.5287 -0.9724  0.6827
 6422TIP3    H240682   1.033   5.617  11.440 -0.2218  0.0798  0.5251
 6423TIP3   OH240683   4.143   3.797  13.186  0.3393  0.0441  0.2070
 6423TIP3    H140684   4.222   3.794  13.240  0.7060 -3.5569 -0.3101
 6423TIP3    H240685   4.077   3.749  13.236 -0.7044  0.6171 -0.5706
 6424TIP3   OH240686   3.261   1.030   3.854  0.0228  0.2589  0.0972
 6424TIP3    H140687   3.267   1.054   3.762 -1.2103  1.3625  0.2760
 6424TIP3    H240688   3.170   1.004   3.866 -0.0324  0.8795  1.1616
 6425TIP3   OH240689   2.226   6.443   0.078  0.2201 -0.0668  0.1083
 6425TIP3    H140690   2.195   6.523   0.036 -0.8259  0.5753  1.9879
 6425TIP3    H240691   2.295   6.410   0.020 -1.0419  0.8203 -1.9889
 6426TIP3   OH240692   6.332   3.617  16.953 -0.3368  0.1908  0.4514
 6426TIP3    H140693   6.419   3.629  16.915  0.9054 -2.2204  2.2629
 6426TIP3    H240694   6.335   3.665  17.035  0.2688 -1.8962  1.7263
 6427TIP3   OH240695   0.563   0.797   0.100  0.1981 -0.8673  0.6585
 6427TIP3    H140696   0.475   0.769   0.076 -0.0600 -0.5576  1.2353
 6427TIP3    H240697   0.551   0.851   0.179  0.8685 -0.5798  0.5713
 6428TIP3   OH240698   6.720   6.127  14.186  0.1438 -0.1882 -0.1476
 6428TIP3    H140699   6.666   6.081  14.122 -0.7825  0.1327  0.3978
 6428TIP3    H240700   6.794   6.069  14.202 -0.9292 -1.4272  0.4304
 6429TIP3   OH240701   6.070   2.331   4.343  0.5253  0.5023  0.4018
 6429TIP3    H140702   6.152   2.372   4.315  0.8250 -0.7161 -0.5642
 6429TIP3    H240703   6.030   2.299   4.263 -0.0032 -0.5403  1.0662
 6430TIP3   OH240704   3.943   4.359  15.012  0.3467 -0.3494 -0.5625
 6430TIP3    H140705   3.861   4.388  15.053  1.0929  1.2073 -0.0714
 6430TIP3    H240706   3.948   4.266  15.032 -0.9891 -0.3469 -0.0587
 6431TIP3   OH240707   2.427   5.914   5.300 -0.7472  0.1130 -0.0581
 6431TIP3    H140708   2.504   5.971   5.298 -0.8456  0.5553  3.0715
 6431TIP3    H240709   2.357   5.967   5.263 -0.3392  1.2025  0.6689
 6432TIP3   OH240710   1.381   2.426  11.572  0.2533  0.0599 -0.9219
 6432TIP3    H140711   1.408   2.469  11.491  0.0334 -1.3988 -1.7933
 6432TIP3    H240712   1.390   2.494  11.639 -0.0399  1.4440 -2.2335
 6433TIP3   OH240713   3.715   4.347   1.154  0.5252  0.6155 -0.1567
 6433TIP3    H140714   3.775   4.355   1.080 -0.1137  3.6214 -0.4807
 6433TIP3    H240715   3.648   4.286   1.125  1.7224 -0.3713 -0.9595
 6434TIP3   OH240716   5.938   4.704   2.696 -0.0257 -0.1602 -0.4515
 6434TIP3    H140717   6.033   4.717   2.689 -0.1020  1.2701  0.7148
 6434TIP3    H240718   5.929   4.621   2.743  0.7299  0.5911  1.1252
 6435TIP3   OH240719   5.468   0.803  10.525  0.1897  0.1536 -0.3961
 6435TIP3    H140720   5.482   0.729  10.585 -0.3994 -0.0043 -0.4475
 6435TIP3    H240721   5.373   0.816  10.525  0.3366  1.2940  0.0659
 6436TIP3   OH240722   4.876   2.481   1.214 -0.2771 -0.0875 -0.3190
 6436TIP3    H140723   4.865   2.436   1.130 -0.5543 -0.7020  0.0434
 6436TIP3    H240724   4.907   2.414   1.274  2.3640  0.8753 -0.4967
 6437TIP3   OH240725   0.326   4.560  17.214  0.1352  0.2810  0.6097
 6437TIP3    H140726   0.271   4.593  17.143  0.0807 -0.6923  0.1849
 6437TIP3    H240727   0.330   4.465  17.200 -0.6965 -0.0790  2.4906
 6438TIP3   OH240728   6.587   4.099   2.784 -0.5033 -0.3402 -0.4776
 6438TIP3    H140729   6.638   4.176   2.758 -1.4316  0.1253 -0.9383
 6438TIP3    H240730   6.652   4.028   2.788 -0.1577 -0.3248 -3.4654
 6439TIP3   OH240731   3.632   0.871  13.784 -0.1657  0.3879 -0.1177
 6439TIP3    H140732   3.571   0.798  13.795 -0.2077  0.2132 -1.3786
 6439TIP3    H240733   3.716   0.829  13.765 -0.0356  0.6600 -0.1417
 6440TIP3   OH240734   6.696   1.429   5.349 -0.9869 -0.6333 -0.3196
 6440TIP3    H140735   6.779   1.469   5.326  0.4383 -2.3399  1.4781
 6440TIP3    H240736   6.632   1.500   5.343  0.5811  0.7146 -1.7595
 6441TIP3   OH240737   3.288   4.721  14.901 -0.5433 -0.2328  0.5210
 6441TIP3    H140738   3.281   4.721  14.805 -2.0216 -0.7126  0.6122
 6441TIP3    H240739   3.354   4.789  14.920 -0.2328 -0.1313 -0.8249
 6442TIP3   OH240740   1.494   0.648  13.715  0.2764 -0.1351 -0.0242
 6442TIP3    H140741   1.522   0.567  13.757  1.2284  0.2108  0.0333
 6442TIP3    H240742   1.552   0.656  13.638 -0.9313 -0.3738 -0.9906
 6443TIP3   OH240743   2.501   2.065   5.137  0.6580 -0.2183  0.1638
 6443TIP3    H140744   2.580   2.014   5.156  0.4291 -0.4708  0.4392
 6443TIP3    H240745   2.522   2.154   5.166  1.5377  0.1711 -1.4938
 6444TIP3   OH240746   1.726   1.717   0.224 -0.3597  0.1248 -0.0316
 6444TIP3    H140747   1.752   1.626   0.234  1.7445  0.5715 -0.7807
 6444TIP3    H240748   1.788   1.753   0.160 -2.1474  1.6805 -1.0039
 6445TIP3   OH240749   0.404   3.062  12.501 -0.0627 -0.2985 -0.1805
 6445TIP3    H140750   0.483   3.116  12.500 -0.0489 -0.1528  2.5963
 6445TIP3    H240751   0.421   2.994  12.435  1.0324  1.4707 -1.8344
 6446TIP3   OH240752   6.704   6.097   0.054 -0.6160  0.5085  0.5768
 6446TIP3    H140753   6.794   6.129   0.046 -0.1425 -0.9948 -0.7842
 6446TIP3    H240754   6.663   6.154   0.120  1.5975  0.5934  1.9649
 6447TIP3   OH240755   3.659   5.396   4.591 -0.2097 -0.0552  0.7345
 6447TIP3    H140756   3.636   5.304   4.579 -0.7455  0.1209  0.3718
 6447TIP3    H240757   3.730   5.410   4.528 -2.3853  0.6195 -1.7654
 6448TIP3   OH240758   2.251   0.875   5.688 -0.6075 -0.0436 -0.8428
 6448TIP3    H140759   2.213   0.794   5.655 -1.6093 -0.1098  0.3899
 6448TIP3    H240760   2.320   0.897   5.625 -0.0861 -2.0129 -1.0284
 6449TIP3   OH240761   0.641   6.392  16.323 -0.1829  0.1833 -0.0094
 6449TIP3    H140762   0.735   6.380  16.341 -0.3622  1.0157  1.7102
 6449TIP3    H240763   0.598   6.363  16.404 -1.1489  3.2247  0.6866
 6450TIP3   OH240764   0.072   0.747  17.017 -0.1113 -0.8903 -0.1686
 6450TIP3    H140765   0.017   0.705  17.083 -0.4153 -2.7215 -1.5069
 6450TIP3    H240766   0.039   0.713  16.933  1.5324 -0.1831 -1.1481
 6451TIP3   OH240767   1.884   3.475  15.932 -0.7033  0.1112  0.0888
 6451TIP3    H140768   1.966   3.439  15.965 -0.4903  0.9252  0.4717
 6451TIP3    H240769   1.841   3.401  15.888  0.8028 -0.0350 -1.2163
 6452TIP3   OH240770   4.450   0.430   0.355  0.2276  0.8766 -0.4691
 6452TIP3    H140771   4.496   0.381   0.286 -1.2101  0.2692 -1.0305
 6452TIP3    H240772   4.402   0.498   0.307 -0.1332  0.9695  0.0226
 6453TIP3   OH240773   6.377   3.437   3.682  0.3282 -0.2455  0.1900
 6453TIP3    H140774   6.308   3.493   3.720  0.2878  0.0195 -0.2640
 6453TIP3    H240775   6.369   3.450   3.588  0.9788 -0.2434  0.1302
 6454TIP3   OH240776   6.612   5.434  16.916 -0.1612 -0.0320  0.1746
 6454TIP3    H140777   6.675   5.489  16.964  0.1292 -0.1817 -0.0354
 6454TIP3    H240778   6.534   5.488  16.911  0.2963  0.5824 -0.5001
 6455TIP3   OH240779   6.006   5.185  13.929  0.0039  0.1570 -0.1588
 6455TIP3    H140780   5.987   5.249  13.861  0.5570 -0.2065 -0.6672
 6455TIP3    H240781   5.922   5.168  13.971  0.0558  2.2397  0.9177
 6456TIP3   OH240782   0.627   4.973  10.504 -0.0943 -0.2662 -0.2062
 6456TIP3    H140783   0.576   5.014  10.433 -0.3550  0.3283  0.3195
 6456TIP3    H240784   0.566   4.970  10.578  1.0597  1.9281  0.9478
 6457TIP3   OH240785   5.555   6.446   2.122  0.3605  0.0861 -0.3590
 6457TIP3    H140786   5.517   6.485   2.044 -0.8444 -0.0557  0.1385
 6457TIP3    H240787   5.607   6.517   2.161 -0.1135  0.5618 -0.5836
 6458TIP3   OH240788   2.771   4.163  11.348  0.3830  0.0190  0.4800
 6458TIP3    H140789   2.737   4.101  11.284 -1.9971 -0.0743  1.7215
 6458TIP3    H240790   2.830   4.220  11.298  2.1130 -2.7038 -0.8412
 6459TIP3   OH240791   4.834   3.089  13.654 -0.3686 -0.1055  0.3918
 6459TIP3    H140792   4.838   3.184  13.665  0.4235 -0.3027  2.0971
 6459TIP3    H240793   4.917   3.066  13.612 -0.6658 -0.0232 -0.2460
 6460TIP3   OH240794   5.998   6.146  11.667 -0.3515  0.1245  0.9133
 6460TIP3    H140795   5.985   6.240  11.649 -0.1824  0.2424  1.4020
 6460TIP3    H240796   6.066   6.120  11.605 -2.2194 -0.3039 -1.0974
 6461TIP3   OH240797   6.033   6.768  14.693  0.0236  0.4636 -0.6467
 6461TIP3    H140798   5.958   6.775  14.634  0.2516  0.5815 -0.9255
 6461TIP3    H240799   6.005   6.705  14.760  0.3613 -0.9728 -1.8066
 6462TIP3   OH240800   1.790   4.726  13.560  0.3439 -0.0527  0.5422
 6462TIP3    H140801   1.784   4.729  13.655 -2.3194  0.0264  0.4495
 6462TIP3    H240802   1.826   4.811  13.536  2.3827 -0.5901  1.4883
 6463TIP3   OH240803   1.142   1.801  16.901 -0.4257  0.2111 -0.6864
 6463TIP3    H140804   1.233   1.774  16.912 -0.7399 -0.9807 -0.9224
 6463TIP3    H240805   1.092   1.719  16.903 -1.7701  0.9884  2.0527
 6464TIP3   OH240806   3.912   1.685   3.151  0.0667  0.3493 -0.3644
 6464TIP3    H140807   3.949   1.750   3.091  0.2269  2.4564  1.8958
 6464TIP3    H240808   3.987   1.652   3.200 -0.1805 -0.6577 -0.6421
 6465TIP3   OH240809   2.749   1.022   0.471  0.0373  0.4439  0.3122
 6465TIP3    H140810   2.684   1.052   0.407  0.3320  0.2165 -0.0973
 6465TIP3    H240811   2.765   1.098   0.527  0.1315  0.7865 -0.1818
 6466TIP3   OH240812   0.817   4.909   4.869  0.2592  0.4794  0.1342
 6466TIP3    H140813   0.758   4.978   4.836 -0.6308 -0.2182  0.2203
 6466TIP3    H240814   0.761   4.855   4.925  0.5920 -1.1002 -0.9889
 6467TIP3   OH240815   6.473   3.992   3.663 -0.1031  0.1035  0.4901
 6467TIP3    H140816   6.393   3.940   3.666  0.0532 -0.2441 -0.7141
 6467TIP3    H240817   6.514   3.968   3.579  1.0792  0.5309  0.9186
 6468TIP3   OH240818   1.859   0.715  16.104  0.4003  0.0301 -0.5454
 6468TIP3    H140819   1.781   0.757  16.067  1.4930 -0.2428 -3.3875
 6468TIP3    H240820   1.897   0.781  16.162 -1.7579  0.2508  0.7269
 6469TIP3   OH240821   4.387   4.586  16.772  0.6688  0.4818  0.2406
 6469TIP3    H140822   4.372   4.516  16.836 -0.1872 -0.0802 -0.5411
 6469TIP3    H240823   4.463   4.557  16.722  0.0343 -0.1303 -0.3841
 6470TIP3   OH240824   2.224   3.989   2.073  0.4718  0.0176  0.3068
 6470TIP3    H140825   2.179   4.070   2.048 -1.3219 -1.5409 -1.9837
 6470TIP3    H240826   2.241   3.999   2.166  2.8423  4.1193 -0.3152
 6471TIP3   OH240827   6.187   1.107  11.167 -0.2959 -0.5778 -0.2881
 6471TIP3    H140828   6.132   1.048  11.217 -1.9726  0.7183 -0.5194
 6471TIP3    H240829   6.276   1.087  11.195 -0.8582 -2.6924  0.1464
 6472TIP3   OH240830   3.914   3.308  12.221 -0.3320 -0.3014 -0.1020
 6472TIP3    H140831   3.887   3.216  12.231 -0.8866 -0.0895  0.4000
 6472TIP3    H240832   4.008   3.304  12.204 -0.4393 -0.9902 -0.5879
 6473TIP3   OH240833   6.140   4.436  15.003  0.0103  0.0471  0.6618
 6473TIP3    H140834   6.223   4.418  15.047 -0.6965 -0.2828  1.9333
 6473TIP3    H240835   6.116   4.354  14.962  0.7294  0.3864 -0.4608
 6474TIP3   OH240836   6.761   2.771   4.159  0.8969 -0.8432 -0.3086
 6474TIP3    H140837   6.753   2.803   4.249  1.7382  0.4929 -0.6905
 6474TIP3    H240838   6.692   2.705   4.152 -1.5812  1.5049  0.2583
 6475TIP3   OH240839   1.778   0.961  13.148  0.1880  0.0609 -0.0079
 6475TIP3    H140840   1.808   0.923  13.230  0.4076  0.6467  0.1878
 6475TIP3    H240841   1.684   0.975  13.162  0.1483 -0.2007 -0.0025
 6476TIP3   OH240842   3.088   5.633  11.704 -0.0728 -1.0003 -0.0842
 6476TIP3    H140843   3.149   5.656  11.774  0.7918  0.0823 -1.1574
 6476TIP3    H240844   3.002   5.634  11.746  0.1294  2.0385  0.4834
 6477TIP3   OH240845   0.064   2.080   3.627 -0.1452  0.2132  0.3513
 6477TIP3    H140846   0.139   2.054   3.681  0.6190 -0.3367 -0.9186
 6477TIP3    H240847   0.090   2.164   3.589 -0.6503  0.5606  0.7474
 6478TIP3   OH240848   3.121   5.791  11.481 -0.1883  0.3890 -0.1558
 6478TIP3    H140849   3.096   5.741  11.558 -3.0380  0.9757 -0.6006
 6478TIP3    H240850   3.191   5.849  11.512  1.4533 -2.0216  0.9493
 6479TIP3   OH240851   1.914   6.035   6.094 -0.0715  0.2330  0.2040
 6479TIP3    H140852   1.970   6.076   6.028  2.3855  0.3199  2.1940
 6479TIP3    H240853   1.929   5.941   6.082 -1.6134  0.0964 -0.9401
 6480TIP3   OH240854   0.537   4.686   2.041  0.1317 -0.0597 -0.3695
 6480TIP3    H140855   0.474   4.750   2.073 -0.7017 -1.6259  1.2883
 6480TIP3    H240856   0.486   4.630   1.983  0.3029 -0.5549 -0.0477
 6481TIP3   OH240857   6.350   5.594  16.021  0.1701  0.7536 -0.1548
 6481TIP3    H140858   6.287   5.532  15.985  0.9539 -0.5191  0.5805
 6481TIP3    H240859   6.340   5.672  15.967  0.5004 -0.6663 -2.4267
 6482TIP3   OH240860   2.756   1.313   5.710  0.0502  0.1566 -0.2497
 6482TIP3    H140861   2.832   1.287   5.763  0.4086 -0.5800 -1.0974
 6482TIP3    H240862   2.724   1.231   5.673 -0.9683  0.5060 -0.1690
 6483TIP3   OH240863   1.032   5.083  13.874 -0.5383  0.0006  0.0081
 6483TIP3    H140864   0.987   5.161  13.839  0.6188  1.2643  1.2077
 6483TIP3    H240865   0.984   5.063  13.954 -0.0214  0.3108  0.3991
 6484TIP3   OH240866   6.477   2.204  10.468  0.2215 -0.3694 -1.0209
 6484TIP3    H140867   6.568   2.231  10.463  0.2838 -0.7032 -1.8131
 6484TIP3    H240868   6.434   2.272  10.521  1.3610 -1.4106  1.4067
 6485TIP3   OH240869   4.450   3.605   4.238 -0.2133 -0.3663  0.1562
 6485TIP3    H140870   4.371   3.612   4.183 -1.3951 -1.8150  1.5643
 6485TIP3    H240871   4.427   3.652   4.318  1.9904  2.9212 -0.9603
 6486TIP3   OH240872   0.787   0.685   5.712 -0.2478  0.1942  0.0138
 6486TIP3    H140873   0.847   0.636   5.656 -0.0265  0.7328 -0.2263
 6486TIP3    H240874   0.717   0.714   5.653  0.4211  1.4927 -0.1764
 6487TIP3   OH240875   2.103   3.881  11.801 -0.1814 -0.0101  0.2619
 6487TIP3    H140876   2.125   3.915  11.888  2.1204  1.3191 -0.7498
 6487TIP3    H240877   2.007   3.880  11.800 -0.3003 -0.5438  2.9498
 6488TIP3   OH240878   1.718   4.646  16.694  0.4054 -0.1351  0.4130
 6488TIP3    H140879   1.655   4.606  16.635  1.3297 -1.7436  0.4500
 6488TIP3    H240880   1.799   4.598  16.679  1.2536  0.9098  1.3969
 6489TIP3   OH240881   1.348   0.782  15.710  0.1743 -0.1246 -0.4745
 6489TIP3    H140882   1.400   0.734  15.646  0.0205 -0.2445 -0.5086
 6489TIP3    H240883   1.292   0.840  15.659 -2.5927 -2.7730 -0.6887
 6490TIP3   OH240884   2.601   2.615  12.620  0.0205  0.2742  0.4622
 6490TIP3    H140885   2.677   2.664  12.652  0.3797 -0.0933  0.1748
 6490TIP3    H240886   2.625   2.523  12.633 -0.9339  0.1698  1.6578
 6491TIP3   OH240887   3.312   2.783  15.789  0.0641 -0.0716  0.4443
 6491TIP3    H140888   3.279   2.824  15.869 -0.2556  1.6142 -0.4930
 6491TIP3    H240889   3.242   2.725  15.761 -1.4386  2.1116 -0.5466
 6492TIP3   OH240890   6.197   6.030  14.357 -0.6455 -0.1801 -0.5613
 6492TIP3    H140891   6.192   6.088  14.434 -1.4957  0.0217 -0.7618
 6492TIP3    H240892   6.221   5.945  14.394 -0.8737 -0.0461 -0.0887
 6493TIP3   OH240893   5.761   5.646  15.239  0.3919 -0.2212  0.1333
 6493TIP3    H140894   5.678   5.689  15.258  1.6655  1.3487  2.8049
 6493TIP3    H240895   5.753   5.559  15.277  0.5303  0.5626  2.0587
 6494TIP3   OH240896   5.216   3.548   6.612  0.3184  0.5742 -0.0652
 6494TIP3    H140897   5.209   3.479   6.677  1.5250 -1.5998 -2.0728
 6494TIP3    H240898   5.160   3.618   6.645 -3.7860 -2.6025  0.5062
 6495TIP3   OH240899   0.887   5.701   4.833 -0.4610  0.0989 -0.8019
 6495TIP3    H140900   0.981   5.697   4.811 -0.6576 -0.8895 -1.5481
 6495TIP3    H240901   0.846   5.736   4.754 -1.1009 -2.8501 -1.9417
 6496TIP3   OH240902   1.497   6.259   4.682  0.3065 -0.3721 -0.4053
 6496TIP3    H140903   1.539   6.176   4.702 -0.0344 -0.0740  1.7389
 6496TIP3    H240904   1.437   6.239   4.610  0.7620 -1.7875 -0.4165
 6497TIP3   OH240905   5.550   6.454  15.617 -0.3181  0.5474 -0.4727
 6497TIP3    H140906   5.624   6.416  15.569  0.0923 -0.9305  1.2250
 6497TIP3    H240907   5.476   6.447  15.557 -0.2531 -3.0108 -0.3214
 6498TIP3   OH240908   3.033   3.126  17.182  0.9853 -0.0910  0.1131
 6498TIP3    H140909   3.063   3.206  17.140  1.5743 -1.2595 -1.8602
 6498TIP3    H240910   2.941   3.143  17.204  1.4338  1.5150  0.8610
 6499TIP3   OH240911   4.840   1.917  14.269  0.4806 -0.4481  0.0877
 6499TIP3    H140912   4.774   1.940  14.203  2.1747 -1.0978 -1.9305
 6499TIP3    H240913   4.923   1.944  14.230  1.7936 -3.0249  0.8809
 6500TIP3   OH240914   0.136   3.613  12.654  0.2459  0.4170  0.0159
 6500TIP3    H140915   0.196   3.606  12.580 -0.9967  2.0041 -1.2077
 6500TIP3    H240916   0.120   3.706  12.663 -0.3519  0.1735  1.7256
 6501TIP3   OH240917   0.657   5.558  15.940  0.2152 -0.4943 -0.2407
 6501TIP3    H140918   0.738   5.605  15.958 -0.3154  0.2978  0.1009
 6501TIP3    H240919   0.660   5.541  15.845  0.5918 -0.1297 -0.2975
 6502TIP3   OH240920   4.980   3.797   4.928  0.3472  0.0740  0.5830
 6502TIP3    H140921   5.064   3.833   4.957  0.3349  1.1663 -0.6681
 6502TIP3    H240922   4.960   3.729   4.992  2.4502 -0.5923  0.5941
 6503TIP3   OH240923   6.581   5.531   3.497  0.1202 -0.4354 -0.0221
 6503TIP3    H140924   6.618   5.538   3.410  0.1719  2.0855  0.1440
 6503TIP3    H240925   6.653   5.553   3.556  0.0042 -1.8122  0.6794
 6504TIP3   OH240926   1.340   3.078  15.545 -0.1789 -0.3204  0.0789
 6504TIP3    H140927   1.315   3.167  15.569  0.2393 -0.0500 -0.4637
 6504TIP3    H240928   1.327   3.027  15.625 -0.7379  0.1594  0.3018
 6505TIP3   OH240929   0.622   5.313  16.063  0.0063 -0.4478  0.5790
 6505TIP3    H140930   0.646   5.401  16.034 -3.3075  0.0714 -1.0690
 6505TIP3    H240931   0.624   5.260  15.983 -1.1730 -1.0513  0.9276
 6506TIP3   OH240932   3.266   2.593   6.038  0.0294 -0.3390  0.8960
 6506TIP3    H140933   3.308   2.508   6.052 -0.9960 -0.8298  1.1280
 6506TIP3    H240934   3.220   2.611   6.121  1.1544  1.0015  1.2730
 6507TIP3   OH240935   5.733   3.418  11.370 -0.2930  0.3425  0.2476
 6507TIP3    H140936   5.805   3.365  11.403 -0.3336  0.2816  0.2396
 6507TIP3    H240937   5.664   3.408  11.436  0.3115  1.7969  1.1576
 6508TIP3   OH240938   5.694   2.196   1.041  0.3315 -0.5335 -0.2801
 6508TIP3    H140939   5.743   2.120   1.074 -3.4247 -2.4395  1.6658
 6508TIP3    H240940   5.658   2.237   1.119 -0.8479  0.9400 -1.5322
 6509TIP3   OH240941   5.673   1.418  16.133  0.1458 -0.0841  0.1436
 6509TIP3    H140942   5.649   1.376  16.216 -1.1932 -1.4699 -0.8684
 6509TIP3    H240943   5.596   1.470  16.110  0.1717 -0.3661 -0.6063
 6510TIP3   OH240944   2.368   5.972   0.897  0.1172  0.3701 -0.1177
 6510TIP3    H140945   2.416   5.997   0.817 -2.4639 -0.3442 -2.0407
 6510TIP3    H240946   2.351   6.055   0.942  2.7063  0.6709  0.4345
 6511TIP3   OH240947   5.937   0.502   0.583 -0.4629 -0.2088 -0.6892
 6511TIP3    H140948   5.850   0.470   0.560 -0.6656  1.1525 -1.9778
 6511TIP3    H240949   5.922   0.566   0.653 -0.1681 -1.9908  1.0933
 6512TIP3   OH240950   6.479   3.433  14.621 -0.6487  0.1805  0.5496
 6512TIP3    H140951   6.563   3.447  14.666  0.9946 -1.4912 -1.7536
 6512TIP3    H240952   6.471   3.507  14.562 -0.0305 -0.3389 -0.2176
 6513TIP3   OH240953   1.131   5.665   5.574 -0.0413 -0.4297 -0.0205
 6513TIP3    H140954   1.061   5.704   5.522 -1.1982 -0.6348  1.3301
 6513TIP3    H240955   1.103   5.677   5.665  2.3163  0.6793  0.6350
 6514TIP3   OH240956   1.226   5.650   4.571  0.0768  0.1274  0.5213
 6514TIP3    H140957   1.191   5.734   4.541  1.4073  1.3523  2.2159
 6514TIP3    H240958   1.306   5.638   4.519  0.5010  0.4929  1.0845
 6515TIP3   OH240959   6.097   4.903   0.083  0.0908 -0.0422 -0.5060
 6515TIP3    H140960   6.104   4.992   0.047 -1.6836 -0.0137 -0.9008
 6515TIP3    H240961   6.129   4.847   0.012 -2.2682  0.0909 -1.7797
 6516TIP3   OH240962   5.258   5.190  15.881  0.7168  0.9047  0.2346
 6516TIP3    H140963   5.347   5.157  15.894  1.0861  1.6833 -0.2828
 6516TIP3    H240964   5.206   5.110  15.870  1.4181  0.4484  0.0809
 6517TIP3   OH240965   2.379   2.781  15.009  0.2085  0.2948  0.0144
 6517TIP3    H140966   2.467   2.800  14.978 -0.1113  0.6267 -0.7197
 6517TIP3    H240967   2.326   2.854  14.978 -0.2976  0.1732  0.5763
 6518TIP3   OH240968   3.672   2.271   2.540 -0.3380  0.4963  0.5216
 6518TIP3    H140969   3.612   2.328   2.491  0.5637  0.3762 -0.7683
 6518TIP3    H240970   3.759   2.298   2.511  0.1929 -0.0764  1.5436
 6519TIP3   OH240971   4.848   0.775   6.440 -0.1574  0.2715 -0.8598
 6519TIP3    H140972   4.771   0.827   6.463 -0.7162 -1.1911  0.8543
 6519TIP3    H240973   4.896   0.829   6.377 -1.8772  1.8081 -0.9381
 6520TIP3   OH240974   5.175   3.873   2.777  0.0338 -0.3160 -0.2945
 6520TIP3    H140975   5.130   3.927   2.842  0.3982 -1.3632  0.8636
 6520TIP3    H240976   5.219   3.805   2.829  2.4034  0.2715 -1.4130
 6521TIP3   OH240977   0.093   4.473   5.741 -0.7510  0.1294  0.4129
 6521TIP3    H140978   0.083   4.508   5.652  2.7577 -1.2286 -0.7313
 6521TIP3    H240979   0.165   4.524   5.778  0.0115 -1.4257  1.1788
 6522TIP3   OH240980   5.050   3.479  15.233  0.0859 -0.5551  0.3169
 6522TIP3    H140981   5.079   3.445  15.318 -1.9883 -0.5766  1.0706
 6522TIP3    H240982   5.099   3.561  15.222 -1.2336  0.6506  2.6471
 6523TIP3   OH240983   2.401   1.015   1.300  0.1819 -0.1059  0.0908
 6523TIP3    H140984   2.432   1.092   1.251  0.4717 -0.6935 -0.6601
 6523TIP3    H240985   2.371   0.954   1.233  1.0940 -1.1543  0.5929
 6524TIP3   OH240986   0.958   1.012   2.107 -0.5742 -0.1966 -0.0332
 6524TIP3    H140987   0.866   1.030   2.125 -0.3944 -0.4804  1.3006
 6524TIP3    H240988   1.002   1.096   2.119 -0.4381 -0.4108  1.0252
 6525TIP3   OH240989   5.066   0.226   1.548 -0.1556  0.3537  0.0331
 6525TIP3    H140990   5.107   0.146   1.580 -2.2587 -1.1659 -0.8284
 6525TIP3    H240991   5.115   0.297   1.589  2.6259 -1.3158 -0.1876
 6526TIP3   OH240992   2.814   3.224   5.811  0.3421  0.1641  0.4821
 6526TIP3    H140993   2.812   3.283   5.886 -2.8448 -2.1896  2.4844
 6526TIP3    H240994   2.723   3.220   5.781  1.2265 -0.2682 -2.5451
 6527TIP3   OH240995   1.097   0.675   4.426  0.1759  0.5852  0.5453
 6527TIP3    H140996   1.103   0.741   4.494  1.0354 -1.4832  2.6239
 6527TIP3    H240997   1.182   0.678   4.382  0.4589  0.4320  1.0752
 6528TIP3   OH240998   2.064   0.737   1.615  0.4425 -0.1531 -0.5393
 6528TIP3    H140999   2.054   0.774   1.703  0.7830  0.7874 -0.8834
 6528TIP3    H241000   1.977   0.703   1.593  0.5628 -1.1888  0.4934
 6529TIP3   OH241001   4.416   5.474   1.439 -0.3879 -0.2361 -0.3201
 6529TIP3    H141002   4.337   5.420   1.436 -0.5985 -0.0559  1.2222
 6529TIP3    H241003   4.408   5.523   1.520  1.0794  0.1609 -0.3950
 6530TIP3   OH241004   2.867   5.170  15.566 -0.0607 -0.0141  0.0996
 6530TIP3    H141005   2.781   5.174  15.523  1.2367  1.0199 -2.6143
 6530TIP3    H241006   2.930   5.187  15.495  2.3516  0.0767  2.1443
 6531TIP3   OH241007   1.629   6.644  14.608 -0.3905 -0.2930 -0.1270
 6531TIP3    H141008   1.700   6.642  14.544 -0.9484 -2.5848 -0.7731
 6531TIP3    H241009   1.604   6.736  14.613  1.1738  0.2624 -1.5027
 6532TIP3   OH241010   1.515   3.193  15.381  0.4436  0.0114  0.0865
 6532TIP3    H141011   1.459   3.129  15.425  0.8054  0.5344  1.3381
 6532TIP3    H241012   1.456   3.236  15.319  0.0021 -0.9544 -0.1979
 6533TIP3   OH241013   1.369   0.123   3.365 -0.0273 -0.3205 -0.4817
 6533TIP3    H141014   1.397   0.208   3.401 -0.5826  0.2511 -1.3724
 6533TIP3    H241015   1.450   0.074   3.356  0.2030 -0.2722  0.9772
 6534TIP3   OH241016   5.802   5.908   1.438 -0.5304 -0.5591  0.4189
 6534TIP3    H141017   5.784   5.975   1.372  3.3071  2.4449  2.0311
 6534TIP3    H241018   5.869   5.853   1.399  1.3821  0.9246  1.3940
 6535TIP3   OH241019   3.717   1.604  11.921 -0.2275 -0.3339 -0.0324
 6535TIP3    H141020   3.712   1.654  12.002 -0.3382  0.8251 -0.7240
 6535TIP3    H241021   3.679   1.662  11.855  0.9434 -0.7627 -1.1289
 6536TIP3   OH241022   4.387   4.628  16.148 -0.2340  0.3487  0.1165
 6536TIP3    H141023   4.320   4.596  16.088  0.6630  0.2968 -0.8710
 6536TIP3    H241024   4.450   4.557  16.155  1.1674  1.4133 -1.1846
 6537TIP3   OH241025   4.152   0.011   3.131 -0.1909  0.2067  0.0681
 6537TIP3    H141026   4.086   0.070   3.093 -0.6669 -0.7546 -0.6371
 6537TIP3    H241027   4.231   0.026   3.079 -0.6709 -0.6663 -0.9616
 6538TIP3   OH241028   2.238   4.258   1.840 -0.6246  0.1567 -0.0419
 6538TIP3    H141029   2.173   4.208   1.891 -0.4224 -0.3969 -0.3201
 6538TIP3    H241030   2.320   4.212   1.855 -0.1770  1.1779  0.7578
 6539TIP3   OH241031   3.006   2.261  14.806  0.2528 -0.4363  0.7276
 6539TIP3    H141032   3.097   2.233  14.801  0.1080 -1.1617  1.7590
 6539TIP3    H241033   3.009   2.356  14.794  1.0547 -0.5354  0.0333
 6540TIP3   OH241034   2.000   5.224   6.875  0.0674  0.0676 -0.0329
 6540TIP3    H141035   1.978   5.174   6.953  0.2153  0.3915  0.2183
 6540TIP3    H241036   1.942   5.300   6.878 -0.5916 -0.3862 -0.7372
 6541TIP3   OH241037   4.585   6.087   6.687  0.2436 -0.2765  0.1638
 6541TIP3    H141038   4.531   6.155   6.726  3.0569  1.0167  2.0661
 6541TIP3    H241039   4.662   6.133   6.653  0.5591 -2.1066 -1.8438
 6542TIP3   OH241040   3.561   2.445  16.661  0.3670  0.0035  0.0069
 6542TIP3    H141041   3.573   2.355  16.629 -1.5496 -0.0061 -0.7815
 6542TIP3    H241042   3.637   2.493  16.625  0.9919 -1.1167 -0.2159
 6543TIP3   OH241043   5.404   3.260   0.213 -0.3672  0.0789  0.2161
 6543TIP3    H141044   5.419   3.289   0.123 -0.9436  1.9091  0.6778
 6543TIP3    H241045   5.468   3.309   0.264 -0.0080 -0.9951  0.8130
 6544TIP3   OH241046   2.053   2.855  16.778  0.2521 -0.0189 -0.5193
 6544TIP3    H141047   2.030   2.775  16.824  1.0795 -1.3517 -2.3091
 6544TIP3    H241048   2.111   2.902  16.839 -1.1712 -0.1750  1.0057
 6545TIP3   OH241049   2.454   1.084  10.774 -0.0128  0.0965 -0.1768
 6545TIP3    H141050   2.433   1.168  10.815 -1.8656 -0.6478  0.5027
 6545TIP3    H241051   2.526   1.049  10.826  1.2168  1.5063 -0.8588
 6546TIP3   OH241052   1.072   6.021   2.712 -0.3535  0.5149 -0.8969
 6546TIP3    H141053   1.084   6.067   2.629 -1.4662  3.3535  0.3764
 6546TIP3    H241054   1.042   6.089   2.773 -4.1394 -2.2290  0.7058
 6547TIP3   OH241055   0.434   1.936  13.425  0.4943  0.1537 -0.4311
 6547TIP3    H141056   0.506   1.984  13.386 -0.1725  1.0401 -0.5991
 6547TIP3    H241057   0.415   1.983  13.506  0.0886 -0.0544 -0.4019
 6548TIP3   OH241058   2.497   0.773   3.375 -0.3167  0.2550 -0.0015
 6548TIP3    H141059   2.405   0.784   3.398 -0.0344  1.5065  0.6293
 6548TIP3    H241060   2.525   0.861   3.348  0.4360 -0.3213 -1.1584
 6549TIP3   OH241061   2.950   0.318   3.474 -0.1272  0.6481  0.2861
 6549TIP3    H141062   2.898   0.273   3.541  1.3156 -1.3629  0.1296
 6549TIP3    H241063   2.974   0.250   3.412 -1.7901  2.5110 -2.6380
 6550TIP3   OH241064   6.370   3.988   4.075 -0.1141  0.4510  0.6086
 6550TIP3    H141065   6.318   3.947   4.006 -0.1525 -1.3939  1.6786
 6550TIP3    H241066   6.375   4.080   4.050 -3.9261  0.7757  0.4392
 6551TIP3   OH241067   3.491   4.600   2.424 -0.4995  0.3956 -0.9412
 6551TIP3    H141068   3.470   4.675   2.479 -1.6627  0.0174 -0.8284
 6551TIP3    H241069   3.495   4.635   2.335 -0.7883  0.6419 -0.8588
 6552TIP3   OH241070   1.863   5.062   6.077  0.2068  0.1114 -0.0121
 6552TIP3    H141071   1.789   5.116   6.050  0.9022  0.5630 -1.0835
 6552TIP3    H241072   1.888   5.013   5.999 -0.2142 -1.5566  0.8748
 6553TIP3   OH241073   6.244   0.041   1.735 -0.5538  0.8410  0.4669
 6553TIP3    H141074   6.245   0.110   1.802 -1.1686  1.8404 -0.5179
 6553TIP3    H241075   6.254   0.088   1.652  1.3370 -0.4782 -0.1093
 6554TIP3   OH241076   0.980   4.271   3.034 -0.0274  0.0979  0.0902
 6554TIP3    H141077   1.016   4.247   2.948  0.2353  1.8890 -0.3449
 6554TIP3    H241078   0.968   4.188   3.079  3.0196 -0.7248 -0.3949
 6555TIP3   OH241079   2.997   5.560  16.301 -0.3050  0.4369 -0.5050
 6555TIP3    H141080   3.063   5.523  16.242 -2.0869 -0.4241 -2.0408
 6555TIP3    H241081   3.014   5.518  16.385  0.8878  0.0087 -0.9379
 6556TIP3   OH241082   1.218   5.509  10.987 -0.0518 -0.0122  0.1183
 6556TIP3    H141083   1.286   5.533  10.924  0.2410 -0.5123  0.2365
 6556TIP3    H241084   1.157   5.455  10.937 -0.4963  0.6382 -0.0489
 6557TIP3   OH241085   5.635   0.454  11.371  0.1710  0.2583 -0.3377
 6557TIP3    H141086   5.558   0.413  11.333  1.3100 -1.4849 -0.8922
 6557TIP3    H241087   5.660   0.397  11.443  1.0143  0.7214 -0.2530
 6558TIP3   OH241088   0.282   1.020  13.291  0.2032 -0.1881 -0.4232
 6558TIP3    H141089   0.371   1.035  13.322 -0.4124  1.1632  0.8417
 6558TIP3    H241090   0.243   1.108  13.285 -0.9054 -0.7137 -1.3766
 6559TIP3   OH241091   1.639   1.180   6.147  0.2391 -0.4982 -0.4160
 6559TIP3    H141092   1.608   1.093   6.172  1.1281 -0.3526  1.2584
 6559TIP3    H241093   1.685   1.213   6.224  0.4278  1.2265 -1.2235
 6560TIP3   OH241094   1.016   1.548  16.892  0.6022  0.2576  0.1439
 6560TIP3    H141095   1.093   1.499  16.920  0.1631  0.5139  1.9285
 6560TIP3    H241096   0.987   1.505  16.812  3.4953  1.1299 -1.5221
 6561TIP3   OH241097   6.510   3.944  17.019  0.0324  0.3674  0.3542
 6561TIP3    H141098   6.524   3.974  16.930  0.8587  1.8570  0.9554
 6561TIP3    H241099   6.523   4.022  17.073 -1.4321 -0.2688  1.7134
 6562TIP3   OH241100   3.316   2.328  15.346 -0.3839 -0.2114 -0.2896
 6562TIP3    H141101   3.351   2.277  15.273  0.1135 -0.9262  0.4441
 6562TIP3    H241102   3.277   2.405  15.304  0.3442 -0.3578 -1.2744
 6563TIP3   OH241103   6.396   1.591   0.216  0.0006 -0.1059  0.1615
 6563TIP3    H141104   6.429   1.550   0.296 -1.4466  0.7756  1.2552
 6563TIP3    H241105   6.419   1.684   0.225 -0.7787  0.1244 -0.1154
 6564TIP3   OH241106   0.907   2.677  11.830 -0.5458  0.7004  0.0660
 6564TIP3    H141107   0.963   2.741  11.874  0.9242  0.2828 -1.0695
 6564TIP3    H241108   0.853   2.730  11.771 -1.3089  1.1081  1.1112
 6565TIP3   OH241109   0.695   3.913  13.786  0.2675 -0.2765  0.2138
 6565TIP3    H141110   0.680   3.818  13.785  0.4312 -0.3213  1.1497
 6565TIP3    H241111   0.737   3.931  13.702 -0.0319 -0.9875 -0.0983
 6566TIP3   OH241112   0.776   3.464   3.600  0.0862  0.2159 -0.3801
 6566TIP3    H141113   0.720   3.387   3.601  1.3082 -0.7820  2.5636
 6566TIP3    H241114   0.864   3.429   3.583  0.6772  0.8783  1.1214
 6567TIP3   OH241115   1.557   5.918   1.161  0.1321 -0.4481 -0.5061
 6567TIP3    H141116   1.628   5.930   1.225 -0.2890 -1.4293  0.1677
 6567TIP3    H241117   1.597   5.866   1.091  0.2748 -0.3700 -0.4846
 6568TIP3   OH241118   6.588   5.294   4.163 -0.2795 -0.1390 -0.3716
 6568TIP3    H141119   6.535   5.222   4.129  0.1079 -0.9988  0.7739
 6568TIP3    H241120   6.602   5.351   4.088 -1.5499 -0.6619 -1.0479
 6569TIP3   OH241121   6.393   6.641   2.114 -0.4213  0.6220  0.2066
 6569TIP3    H141122   6.300   6.617   2.109  0.0337 -1.1027 -1.0421
 6569TIP3    H241123   6.438   6.558   2.131  0.7235  1.8238  4.1445
 6570TIP3   OH241124   4.277   5.479   3.241 -0.6661  0.1135 -0.6490
 6570TIP3    H141125   4.198   5.445   3.285 -1.0397  0.0334 -1.3687
 6570TIP3    H241126   4.329   5.517   3.312 -0.9930 -0.5223 -0.0515
 6571TIP3   OH241127   4.011   5.207   5.960  0.0418  0.2313 -0.0025
 6571TIP3    H141128   4.046   5.296   5.963 -2.1769  1.1713 -0.0213
 6571TIP3    H241129   3.987   5.188   6.050 -0.2920  0.0056 -0.1392
 6572TIP3   OH241130   3.968   3.067   5.196  0.2375  0.4889 -0.4969
 6572TIP3    H141131   3.878   3.039   5.181  0.7078 -0.5898 -1.5932
 6572TIP3    H241132   4.018   3.022   5.127  1.3606  2.5019 -1.0775
 6573TIP3   OH241133   3.024   4.442  14.020 -0.6582  0.0348  0.1684
 6573TIP3    H141134   3.011   4.534  13.996  0.3771  0.0291 -0.4970
 6573TIP3    H241135   3.092   4.445  14.087  1.2248 -0.3570 -1.5979
 6574TIP3   OH241136   0.116   5.752   2.289 -0.1890  0.4489  0.2153
 6574TIP3    H141137   0.037   5.804   2.302 -0.0022  0.6350  0.6380
 6574TIP3    H241138   0.159   5.793   2.214 -0.1159  0.8176  0.4555
 6575TIP3   OH241139   3.787   2.853  11.286 -0.2040 -0.3614  0.0378
 6575TIP3    H141140   3.820   2.830  11.199 -0.9166  2.0143 -0.9621
 6575TIP3    H241141   3.705   2.805  11.294  0.1365 -1.0172 -0.3674
 6576TIP3   OH241142   2.850   5.254  13.642 -0.2694 -0.4372  0.0145
 6576TIP3    H141143   2.807   5.177  13.679  1.1693 -0.5662  1.5214
 6576TIP3    H241144   2.927   5.220  13.598 -0.4754 -0.0003 -0.6950
 6577TIP3   OH241145   5.958   6.355  15.862 -0.7146  0.3768  0.1370
 6577TIP3    H141146   5.865   6.373  15.849 -0.4073  1.3762 -0.8307
 6577TIP3    H241147   5.975   6.278  15.808 -0.9215  0.3611  0.0926
 6578TIP3   OH241148   1.909   2.163   4.516  0.2533  0.0612  0.3651
 6578TIP3    H141149   1.903   2.171   4.421  0.5115  0.1711  0.3572
 6578TIP3    H241150   1.852   2.089   4.537  1.4922 -1.0427 -0.0526
 6579TIP3   OH241151   5.748   2.008   3.278 -0.5299 -0.3345  0.1976
 6579TIP3    H141152   5.781   2.081   3.225 -0.0912 -0.5487  0.1744
 6579TIP3    H241153   5.706   2.051   3.353  0.3905 -0.0694  0.5747
 6580TIP3   OH241154   5.278   6.727  10.163  0.0616  0.8014  0.5543
 6580TIP3    H141155   5.266   6.726  10.068 -0.4813  0.4412  0.6266
 6580TIP3    H241156   5.207   6.674  10.198  2.9690 -3.3221  0.8899
 6581TIP3   OH241157   2.811   3.583  12.972 -0.3012 -0.0982  0.2739
 6581TIP3    H141158   2.757   3.639  12.917  0.9042 -0.9539 -1.8844
 6581TIP3    H241159   2.751   3.518  13.008 -0.9097 -0.4281 -1.2692
 6582TIP3   OH241160   6.395   1.850  13.520 -0.4701  0.6963  0.1910
 6582TIP3    H141161   6.317   1.826  13.469  0.6250 -0.1114 -1.1764
 6582TIP3    H241162   6.425   1.767  13.558 -0.6558  1.1207  1.2877
 6583TIP3   OH241163   1.603   4.139   0.765 -0.6624 -0.6229 -0.4434
 6583TIP3    H141164   1.562   4.155   0.680 -0.6596 -0.8981 -0.4973
 6583TIP3    H241165   1.586   4.219   0.815  2.2662  1.0621 -1.8430
 6584TIP3   OH241166   5.869   0.321   2.892  0.7132 -0.2095 -0.0643
 6584TIP3    H141167   5.934   0.361   2.835  0.1955 -1.1681 -1.3689
 6584TIP3    H241168   5.920   0.272   2.957  1.2984 -0.3518 -0.6293
 6585TIP3   OH241169   2.731   5.338   3.535 -0.2255 -0.8154  0.3117
 6585TIP3    H141170   2.730   5.248   3.501  0.3010 -1.0500  0.8884
 6585TIP3    H241171   2.817   5.372   3.510 -0.0151 -0.8334  0.9926
 6586TIP3   OH241172   5.759   0.696  12.568  0.1665  0.1436  0.2318
 6586TIP3    H141173   5.734   0.729  12.482 -0.1931 -1.4648 -0.3138
 6586TIP3    H241174   5.795   0.609  12.550 -1.3827 -0.8842  1.8629
 6587TIP3   OH241175   3.705   1.964  16.538  0.2995  0.2132  0.4267
 6587TIP3    H141176   3.692   1.947  16.445 -0.5460 -0.4930  0.6532
 6587TIP3    H241177   3.778   1.908  16.563 -0.1070 -0.3429  0.3854
 6588TIP3   OH241178   4.870   3.798   2.313 -0.1082 -0.2219 -0.4634
 6588TIP3    H141179   4.829   3.808   2.399 -1.4944 -0.7677 -1.0334
 6588TIP3    H241180   4.936   3.729   2.325  0.0272  0.0294  0.2533
 6589TIP3   OH241181   0.375   0.249  13.982 -0.3884  0.0158  0.5724
 6589TIP3    H141182   0.445   0.203  13.935 -0.0807  1.2725 -0.2271
 6589TIP3    H241183   0.393   0.231  14.074  1.2840  0.7183  0.4135
 6590TIP3   OH241184   5.005   5.393  15.123  0.2633 -0.0463  0.4125
 6590TIP3    H141185   5.053   5.474  15.143 -1.1180  0.3961  2.1252
 6590TIP3    H241186   4.915   5.411  15.150 -0.8764 -0.9718 -2.3573
 6591TIP3   OH241187   5.060   3.887   1.681  0.3854  0.0176 -0.2095
 6591TIP3    H141188   5.022   3.925   1.603  1.4400  0.8007 -0.3650
 6591TIP3    H241189   4.991   3.892   1.747 -0.2386  0.1023 -0.8614
 6592TIP3   OH241190   3.346   5.651   1.565 -0.2660  0.2277 -0.3549
 6592TIP3    H141191   3.411   5.700   1.616 -0.7681  1.8122 -1.1897
 6592TIP3    H241192   3.390   5.632   1.482 -0.1679 -0.5378 -0.1372
 6593TIP3   OH241193   5.362   3.228   5.213 -0.0707 -0.2485 -0.0252
 6593TIP3    H141194   5.456   3.229   5.194 -0.1330  0.7958 -0.3561
 6593TIP3    H241195   5.356   3.194   5.302  0.6376 -0.0578  0.1044
 6594TIP3   OH241196   5.682   0.465   0.482  0.0741  0.6256  0.4590
 6594TIP3    H141197   5.649   0.534   0.425  1.4101  0.1901 -0.9287
 6594TIP3    H241198   5.606   0.434   0.530 -0.9824  1.4601 -0.6295
 6595TIP3   OH241199   5.300   3.035  12.634 -0.0717 -0.1997  0.3829
 6595TIP3    H141200   5.312   3.123  12.671 -0.8537  0.1043 -0.0619
 6595TIP3    H241201   5.223   3.000  12.678 -0.1529 -0.3996  0.0856
 6596TIP3   OH241202   1.239   6.320  16.841 -0.0801 -0.2203  0.2138
 6596TIP3    H141203   1.196   6.404  16.859  0.1377 -0.2445  0.8544
 6596TIP3    H241204   1.209   6.297  16.753 -0.0299  0.5962 -0.0244
 6597TIP3   OH241205   1.958   4.804   2.722  0.2341  0.0325 -0.0960
 6597TIP3    H141206   1.867   4.807   2.691  0.9730  3.6708 -2.5715
 6597TIP3    H241207   2.010   4.801   2.642  2.3173  0.5686  1.1857
 6598TIP3   OH241208   3.127   2.498  14.140  0.0099  0.1948  0.2025
 6598TIP3    H141209   3.113   2.588  14.171  1.0518  0.0921  1.0395
 6598TIP3    H241210   3.143   2.448  14.220 -1.7484 -0.9907 -0.1433
 6599TIP3   OH241211   2.226   5.045   2.486 -0.9839 -0.6859  0.0123
 6599TIP3    H141212   2.256   5.081   2.569 -0.1107  0.8510 -0.9176
 6599TIP3    H241213   2.152   5.099   2.461 -3.0503 -2.8562  1.0424
 6600TIP3   OH241214   1.535   5.736   4.533 -0.1392 -0.1436  0.3721
 6600TIP3    H141215   1.602   5.676   4.500 -0.4692 -0.1839 -0.2409
 6600TIP3    H241216   1.507   5.785   4.456 -2.9631 -2.1827 -0.0814
 6601TIP3   OH241217   5.041   3.669   0.996  0.6644  0.0387  0.0126
 6601TIP3    H141218   5.025   3.596   1.055 -1.3667  0.0159 -0.4858
 6601TIP3    H241219   4.973   3.733   1.018  1.3420  1.0419 -0.7145
 6602TIP3   OH241220   6.010   0.153   0.011  0.0471 -0.0436 -0.7464
 6602TIP3    H141221   6.085   0.200   0.046 -0.4175 -0.4548  0.8761
 6602TIP3    H241222   6.047   0.077  -0.033  0.6984  0.9349 -1.9513
 6603TIP3   OH241223   0.392   0.861   3.994 -0.1033  0.1672  0.7948
 6603TIP3    H141224   0.394   0.934   3.932  0.5063  0.1456  0.7798
 6603TIP3    H241225   0.462   0.880   4.056  0.4647 -0.7019  0.4407
 6604TIP3   OH241226   5.688   1.725  16.995  0.6074 -0.4128  0.4191
 6604TIP3    H141227   5.716   1.713  16.904 -0.9001 -1.7843  0.0959
 6604TIP3    H241228   5.608   1.673  17.003  0.7650 -0.4161  2.5804
 6605TIP3   OH241229   5.689   5.976  14.032 -0.5412 -0.1003  0.8026
 6605TIP3    H141230   5.783   5.968  14.019 -0.7545 -1.1664 -0.2980
 6605TIP3    H241231   5.666   6.059  13.990 -0.1693 -0.1068  0.5810
 6606TIP3   OH241232   4.286   2.824  12.391  0.3787 -0.5641  0.4766
 6606TIP3    H141233   4.256   2.772  12.317 -2.1002 -0.6279  1.4472
 6606TIP3    H241234   4.376   2.850  12.367 -0.2500 -0.7213 -2.4268
 6607TIP3   OH241235   2.466   1.901  12.729 -0.4409 -0.1324 -0.0915
 6607TIP3    H141236   2.549   1.854  12.723  0.9660  1.8567  1.9594
 6607TIP3    H241237   2.486   1.990  12.699 -1.7939  0.3996  0.4921
 6608TIP3   OH241238   0.971   4.391  13.932 -0.4975 -0.2717 -0.3728
 6608TIP3    H141239   0.960   4.335  13.855  1.2976 -0.6664 -0.3673
 6608TIP3    H241240   0.898   4.366  13.989 -1.9757  0.1631 -1.9848
 6609TIP3   OH241241   1.262   1.029   2.639 -0.5336  0.0915  0.4706
 6609TIP3    H141242   1.316   0.951   2.650  1.1443  0.9394 -1.1455
 6609TIP3    H241243   1.192   1.003   2.580  0.3800 -0.0548 -0.5671
 6610TIP3   OH241244   2.058   2.063   0.162  1.1215  0.1789  0.2076
 6610TIP3    H141245   2.075   2.083   0.254  0.0771 -0.6797  0.6127
 6610TIP3    H241246   2.036   2.148   0.122 -0.5822  0.2906  1.2682
 6611TIP3   OH241247   0.571   2.318   5.124 -0.0673  0.0289 -0.4026
 6611TIP3    H141248   0.497   2.262   5.147  0.5949 -0.6332  0.1817
 6611TIP3    H241249   0.639   2.257   5.095  0.4454  0.5763 -0.3790
 6612TIP3   OH241250   1.083   1.504   3.058  0.1553 -0.2969  0.5677
 6612TIP3    H141251   1.169   1.546   3.064 -0.6826  1.6979 -0.6326
 6612TIP3    H241252   1.073   1.482   2.965 -0.1983 -1.5867  0.8802
 6613TIP3   OH241253   3.415   0.224  11.089  0.2899 -0.2839  0.0999
 6613TIP3    H141254   3.350   0.294  11.081 -0.8546 -1.3192  0.0672
 6613TIP3    H241255   3.368   0.144  11.066  1.5116 -1.1042  0.3329
 6614TIP3   OH241256   6.679   2.399  15.899 -0.1098  0.2896  0.9664
 6614TIP3    H141257   6.743   2.471  15.900  0.5508 -0.2809  0.7110
 6614TIP3    H241258   6.725   2.327  15.857 -1.7412  0.6026 -1.6012
 6615TIP3   OH241259   4.677   5.450  15.615  0.4893 -0.1661 -0.3461
 6615TIP3    H141260   4.714   5.395  15.545 -1.0943  0.3526 -1.6555
 6615TIP3    H241261   4.669   5.391  15.690  0.2757 -1.3360 -1.2457
 6616TIP3   OH241262   0.250   6.613  11.430 -0.1200 -0.0535 -0.6723
 6616TIP3    H141263   0.340   6.619  11.396  0.8451 -2.5028  1.1276
 6616TIP3    H241264   0.199   6.582  11.356  0.2674  2.1426 -1.9596
 6617TIP3   OH241265   3.819   5.765   4.449  0.1424  0.2896 -0.0105
 6617TIP3    H141266   3.770   5.692   4.412 -2.4210  0.7227  2.2462
 6617TIP3    H241267   3.891   5.779   4.387 -1.1143 -2.0290 -2.1822
 6618TIP3   OH241268   4.458   5.785  13.969 -0.0980 -0.0604  0.0425
 6618TIP3    H141269   4.460   5.825  14.056  0.9435 -0.4362  0.2069
 6618TIP3    H241270   4.481   5.693  13.985 -1.1872 -0.4469 -0.4805
 6619TIP3   OH241271   0.589   1.217   6.524  0.2379 -0.3003 -0.4583
 6619TIP3    H141272   0.519   1.151   6.517 -0.8997  1.0111 -2.6677
 6619TIP3    H241273   0.659   1.173   6.572 -1.1334 -2.5290 -0.3573
 6620TIP3   OH241274   1.057   3.090  13.070  0.9144  0.3780 -0.0179
 6620TIP3    H141275   0.972   3.089  13.027  0.9066  1.5549 -0.0421
 6620TIP3    H241276   1.113   3.037  13.013  0.4712  0.4790 -0.5564
 6621TIP3   OH241277   0.394   1.778   1.323  0.0996  0.0748  0.5752
 6621TIP3    H141278   0.356   1.856   1.284 -0.7510 -0.4254  0.3887
 6621TIP3    H241279   0.449   1.812   1.394  0.0587  0.8625  0.2416
 6622TIP3   OH241280   5.794   0.174   1.453  0.2488 -0.0881  0.4271
 6622TIP3    H141281   5.873   0.176   1.508 -0.7594  0.4963  1.9000
 6622TIP3    H241282   5.787   0.263   1.419 -0.3727  0.1752  1.2108
 6623TIP3   OH241283   6.131   3.038  16.323  0.1740  0.4906  0.0699
 6623TIP3    H141284   6.065   2.995  16.269  0.0275  0.0987  0.5461
 6623TIP3    H241285   6.214   3.013  16.284  0.0564  0.6333 -0.2770
 6624TIP3   OH241286   3.714   5.961  11.586  0.2720 -0.0654 -0.1384
 6624TIP3    H141287   3.686   5.937  11.497  0.3365 -0.5030 -0.0381
 6624TIP3    H241288   3.715   5.879  11.635 -2.0054  0.4360  0.8981
 6625TIP3   OH241289   6.657   4.855   0.123  0.4799  0.2179  0.4274
 6625TIP3    H141290   6.722   4.786   0.137  1.1001  0.8541  0.7477
 6625TIP3    H241291   6.694   4.910   0.054 -0.5211 -0.3835 -0.6039
 6626TIP3   OH241292   3.822   6.547   2.159  0.3001 -0.1173 -0.3337
 6626TIP3    H141293   3.759   6.477   2.172  0.9047 -0.6300 -0.1586
 6626TIP3    H241294   3.877   6.517   2.087  0.2762  0.3804 -0.5664
 6627TIP3   OH241295   5.382   5.949   4.310  0.0480  0.1962  0.4893
 6627TIP3    H141296   5.415   5.876   4.257  0.8944  1.5622 -0.9704
 6627TIP3    H241297   5.288   5.932   4.316 -0.1306  0.0451 -1.6659
 6628TIP3   OH241298   1.187   1.924  15.552  0.0745 -0.5802  0.5626
 6628TIP3    H141299   1.275   1.924  15.590  0.2686  2.7612  0.3459
 6628TIP3    H241300   1.129   1.934  15.628  0.0544 -0.0179  0.4707
 6629TIP3   OH241301   0.602   3.124  14.611 -0.5621 -0.5627  0.5559
 6629TIP3    H141302   0.622   3.139  14.519  0.2367  1.4510  0.9873
 6629TIP3    H241303   0.586   3.030  14.618  1.6665 -1.1695 -1.2285
 6630TIP3   OH241304   4.808   4.290   5.216 -0.3823  0.5813  0.6570
 6630TIP3    H141305   4.862   4.262   5.290 -1.8784 -1.8604  0.9368
 6630TIP3    H241306   4.824   4.224   5.148 -0.3750  1.7902 -0.5572
 6631TIP3   OH241307   6.331   4.603   5.135 -0.0199  0.2404 -0.0742
 6631TIP3    H141308   6.346   4.697   5.139  0.2137  0.2337 -0.7016
 6631TIP3    H241309   6.365   4.570   5.219  1.3811  0.5212 -0.5088
 6632TIP3   OH241310   4.808   4.228  16.616 -0.1520 -0.2631 -0.4208
 6632TIP3    H141311   4.891   4.191  16.587  0.9838  0.9473  1.0988
 6632TIP3    H241312   4.742   4.167  16.583  1.4642 -2.4927  0.2051
 6633TIP3   OH241313   0.748   0.277   6.367  0.0342  0.1673  0.4804
 6633TIP3    H141314   0.824   0.224   6.390  0.4193 -0.2647 -1.5714
 6633TIP3    H241315   0.750   0.350   6.429  2.0258  0.0775  0.5868
 6634TIP3   OH241316   3.839   0.076   2.805 -0.2652 -0.3167 -0.0019
 6634TIP3    H141317   3.792   0.108   2.882  2.1056 -0.9198  1.8112
 6634TIP3    H241318   3.832   0.148   2.742 -0.8436  0.9160  1.3887
 6635TIP3   OH241319   3.833   0.711   2.476 -0.1216  0.9325 -0.6580
 6635TIP3    H141320   3.851   0.743   2.388  0.9663 -0.4857 -0.9993
 6635TIP3    H241321   3.808   0.789   2.526 -2.3073  1.5458 -2.5631
 6636TIP3   OH241322   4.972   5.213  16.466  0.3366  0.0977  0.0538
 6636TIP3    H141323   4.985   5.306  16.483 -0.9646  0.6521 -1.7161
 6636TIP3    H241324   4.920   5.210  16.386 -0.3851 -2.1375  0.5264
 6637TIP3   OH241325   2.832   2.385  13.039  0.6319  0.3637  0.6863
 6637TIP3    H141326   2.799   2.341  12.961  0.8198  0.5874  0.4788
 6637TIP3    H241327   2.818   2.322  13.110 -0.2013  0.4457  0.5978
 6638TIP3   OH241328   2.774   4.761  11.680  0.1192  0.7125 -0.8495
 6638TIP3    H141329   2.857   4.716  11.694  0.1523  0.8482 -0.6034
 6638TIP3    H241330   2.754   4.747  11.588  0.1717  0.2630 -0.7941
 6639TIP3   OH241331   4.216   3.927   2.889  0.3419 -0.0578 -0.0108
 6639TIP3    H141332   4.227   3.935   2.983 -1.0800  2.3896  0.0508
 6639TIP3    H241333   4.258   4.005   2.853 -2.0382  0.8813 -1.0220
 6640TIP3   OH241334   3.835   6.048  15.031  0.6045  0.3659  0.5151
 6640TIP3    H141335   3.893   5.987  14.987 -0.6201  0.2671 -1.0307
 6640TIP3    H241336   3.882   6.132  15.028  1.3909 -0.0608  0.8008
 6641TIP3   OH241337   0.839   6.093   2.065  0.2242  0.0211  0.4936
 6641TIP3    H141338   0.846   6.007   2.022  0.4337 -0.2090  0.9791
 6641TIP3    H241339   0.750   6.096   2.099  0.2422 -0.0435  0.5479
 6642TIP3   OH241340   1.625   3.075  17.081 -0.2714  0.7265  0.3156
 6642TIP3    H141341   1.612   3.024  17.002  0.5654 -2.3839  2.0040
 6642TIP3    H241342   1.539   3.111  17.101 -0.9091 -0.0017 -1.0084
 6643TIP3   OH241343   1.673   3.655   2.802  0.0487 -0.1787 -0.4790
 6643TIP3    H141344   1.648   3.565   2.822  0.2329  0.1456  1.4125
 6643TIP3    H241345   1.769   3.653   2.797  0.2590  0.2583  1.9168
 6644TIP3   OH241346   0.272   2.810   4.732  0.5716 -0.4487 -0.2860
 6644TIP3    H141347   0.275   2.741   4.799  1.7230 -1.3904 -1.2643
 6644TIP3    H241348   0.351   2.796   4.680 -1.1689 -0.8951 -2.9628
 6645TIP3   OH241349   5.731   0.046  15.939  0.4072 -0.1950 -0.1579
 6645TIP3    H141350   5.782   0.127  15.930  0.9442 -0.5726 -0.5789
 6645TIP3    H241351   5.653   0.072  15.988  1.2540  0.2770  0.9709
 6646TIP3   OH241352   2.106   4.144   0.647  0.5247  0.1213  0.3523
 6646TIP3    H141353   2.164   4.218   0.664  1.0197 -0.5924  2.0623
 6646TIP3    H241354   2.027   4.163   0.698  0.8546 -0.7136  1.2246
 6647TIP3   OH241355   5.002   5.901   4.677 -0.4015 -0.9144  0.4269
 6647TIP3    H141356   4.911   5.924   4.661  0.2094  1.1583 -0.3096
 6647TIP3    H241357   5.033   5.865   4.594  0.0644  0.6083 -0.0902
 6648TIP3   OH241358   0.080   3.132   4.055 -0.0898 -0.2757  0.2543
 6648TIP3    H141359   0.076   3.042   4.022 -1.4679 -0.2517  0.3169
 6648TIP3    H241360   0.022   3.181   3.998 -0.5441  0.2695  1.1637
 6649TIP3   OH241361   6.621   1.925  10.618  0.3395  0.0368 -0.3744
 6649TIP3    H141362   6.543   1.900  10.569 -1.1264  1.4981  1.0691
 6649TIP3    H241363   6.661   1.842  10.643 -1.9908 -0.8743  0.6816
 6650TIP3   OH241364   5.732   5.731   5.503  0.0107 -0.2396 -0.2455
 6650TIP3    H141365   5.724   5.694   5.592  0.4367 -1.5014 -0.7059
 6650TIP3    H241366   5.777   5.814   5.516 -0.9299  0.1289  0.8367
 6651TIP3   OH241367   3.763   4.592   0.866 -0.2858  0.9338  0.0346
 6651TIP3    H141368   3.774   4.600   0.772 -2.0110 -1.2343 -0.4135
 6651TIP3    H241369   3.675   4.558   0.878  0.9113 -1.8640  2.2246
 6652TIP3   OH241370   6.553   6.671   4.034  0.5174  0.0491  0.8284
 6652TIP3    H141371   6.518   6.622   4.108 -1.0132  0.0271  0.1152
 6652TIP3    H241372   6.571   6.605   3.967  1.6488  0.1001  1.0478
 6653TIP3   OH241373   3.067   6.713   1.362  0.5145  0.3349 -0.3276
 6653TIP3    H141374   2.997   6.667   1.316  0.2711  1.0592 -0.6939
 6653TIP3    H241375   3.052   6.805   1.343  1.0417  0.5665  0.3325
 6654TIP3   OH241376   5.837   3.554  14.328  0.7447 -0.4303 -0.1461
 6654TIP3    H141377   5.795   3.638  14.314 -0.6419 -1.1932 -0.6839
 6654TIP3    H241378   5.854   3.551  14.422 -2.0080 -0.7824  0.4242
 6655TIP3   OH241379   4.392   4.938  14.350 -0.1617 -0.2874  0.1124
 6655TIP3    H141380   4.350   4.881  14.415 -1.1964 -1.2648 -1.3424
 6655TIP3    H241381   4.462   4.982  14.397 -1.7473  0.1105  2.2490
 6656TIP3   OH241382   1.671   1.293   5.901 -0.2617  0.1576 -0.3878
 6656TIP3    H141383   1.609   1.365   5.893 -0.9043 -0.2875  0.5053
 6656TIP3    H241384   1.688   1.286   5.995 -1.4121 -1.8577 -0.2845
 6657TIP3   OH241385   2.782   5.076   3.397  0.2686 -0.0623  0.2380
 6657TIP3    H141386   2.853   5.090   3.459  0.5090  0.3073 -0.1112
 6657TIP3    H241387   2.799   4.989   3.360 -1.0720 -1.2493  2.2084
 6658TIP3   OH241388   0.001   3.994   5.173  0.2839  0.1186 -0.0487
 6658TIP3    H141389  -0.015   3.952   5.258 -0.1379 -1.4028 -0.8349
 6658TIP3    H241390   0.096   3.997   5.166  0.5250  4.1974  2.2697
 6659TIP3   OH241391   2.710   3.540   5.366  0.2110  0.4261 -0.3706
 6659TIP3    H141392   2.657   3.620   5.360  1.7285  1.5914  1.0442
 6659TIP3    H241393   2.705   3.515   5.459  1.3034 -0.0122 -0.4168
 6660TIP3   OH241394   2.869   0.999  14.749 -0.2581 -0.4264 -0.5311
 6660TIP3    H141395   2.933   0.932  14.722 -1.5327 -0.8602 -2.6388
 6660TIP3    H241396   2.848   0.976  14.840  2.2367 -0.4969  0.1070
 6661TIP3   OH241397   3.615   0.371   2.738  0.2258 -0.1887  0.5110
 6661TIP3    H141398   3.603   0.458   2.701  0.3683  0.4588  1.9049
 6661TIP3    H241399   3.527   0.334   2.743  0.1388 -0.0293  0.1484
 6662TIP3   OH241400   2.441   1.372   0.325 -0.0110 -0.1226 -0.0276
 6662TIP3    H141401   2.357   1.417   0.324 -0.7738 -1.4801 -1.0205
 6662TIP3    H241402   2.476   1.388   0.413 -1.7324 -0.2853  0.7260
 6663TIP3   OH241403   1.457   2.544  14.622  0.3897 -0.1466  0.0259
 6663TIP3    H141404   1.376   2.551  14.571  0.7370 -0.0143 -0.5238
 6663TIP3    H241405   1.445   2.605  14.695  0.2142  0.2813 -0.3559
 6664TIP3   OH241406   5.591   2.736   5.478  0.2010 -0.2880  0.0448
 6664TIP3    H141407   5.513   2.689   5.506 -0.3560  0.2135 -0.6339
 6664TIP3    H241408   5.656   2.668   5.461 -0.7388 -0.8650 -1.3771
 6665TIP3   OH241409   0.998   4.909   2.920 -0.8496  0.2036  0.0995
 6665TIP3    H141410   1.025   5.000   2.908  1.0630 -0.3686 -0.4783
 6665TIP3    H241411   1.077   4.858   2.897 -2.1957 -1.6325 -0.7179
 6666TIP3   OH241412   2.694   3.299   2.097  0.3661 -0.2321  0.2010
 6666TIP3    H141413   2.733   3.255   2.173 -0.5111  0.3137  1.0023
 6666TIP3    H241414   2.608   3.258   2.088  0.3692 -0.1224 -0.3578
 6667TIP3   OH241415   6.526   4.427  14.051 -0.0560  0.4716 -0.2252
 6667TIP3    H141416   6.524   4.522  14.036  1.1523  0.4555 -0.5683
 6667TIP3    H241417   6.588   4.394  13.987 -1.3658 -0.7328 -0.9232
 6668TIP3   OH241418   6.578   4.896   1.886 -0.0200  0.7763 -0.2209
 6668TIP3    H141419   6.550   4.903   1.795  1.0179  2.0810 -0.4667
 6668TIP3    H241420   6.497   4.909   1.937 -0.8161 -1.0905 -0.9154
 6669TIP3   OH241421   3.299   1.799   6.553  0.8328 -0.1129 -0.2139
 6669TIP3    H141422   3.286   1.862   6.624  0.6899  0.3517 -0.6482
 6669TIP3    H241423   3.212   1.790   6.513  0.9686 -0.1602 -0.5031
 6670TIP3   OH241424   0.533   1.710   1.551  0.0818  0.3617  0.4498
 6670TIP3    H141425   0.585   1.678   1.477  1.4843  1.7009  0.8126
 6670TIP3    H241426   0.570   1.667   1.628  0.3219  0.8869  0.6399
 6671TIP3   OH241427   2.648   4.011   2.222 -0.6055 -0.3862  0.4545
 6671TIP3    H141428   2.743   4.002   2.226 -0.7300 -1.4869  1.9563
 6671TIP3    H241429   2.623   3.967   2.141  0.0701 -1.3470  0.7430
 6672TIP3   OH241430   6.625   4.263   1.176 -0.5579  0.1231  0.1235
 6672TIP3    H141431   6.586   4.220   1.253 -0.9336  0.6983  0.2654
 6672TIP3    H241432   6.677   4.334   1.213 -0.7071  0.3770 -0.1485
 6673TIP3   OH241433   4.412   0.748   2.019  0.2056 -0.3993 -0.3776
 6673TIP3    H141434   4.447   0.760   2.107 -1.7585 -2.7463  0.8618
 6673TIP3    H241435   4.424   0.833   1.977  1.1564  0.8462  2.1672
 6674TIP3   OH241436   5.872   3.512   4.255 -0.6480  0.4616  0.8078
 6674TIP3    H141437   5.891   3.422   4.226 -0.9109  0.2271  1.3493
 6674TIP3    H241438   5.940   3.565   4.214 -1.5584  0.2978 -1.0593
 6675TIP3   OH241439   4.985   4.984   5.353 -0.1406 -0.2801 -0.0119
 6675TIP3    H141440   4.903   4.950   5.317 -1.5955  0.8101  2.0715
 6675TIP3    H241441   5.018   5.044   5.286 -0.9480 -0.8567 -0.9499
 6676TIP3   OH241442   2.875   4.537  14.947 -0.5789 -0.5562  0.0799
 6676TIP3    H141443   2.876   4.483  14.868 -0.4082 -0.9994  0.3838
 6676TIP3    H241444   2.786   4.570  14.953 -0.3493  0.3205 -0.8604
 6677TIP3   OH241445   6.190   5.382  14.390  0.0746 -0.3039 -0.4789
 6677TIP3    H141446   6.160   5.326  14.319  0.9520  2.1664 -2.9583
 6677TIP3    H241447   6.109   5.408  14.436 -0.5160 -1.8312 -0.5983
 6678TIP3   OH241448   2.828   4.804  17.185 -0.3513 -0.0549  0.4745
 6678TIP3    H141449   2.806   4.845  17.269 -0.9810  1.0108 -0.1900
 6678TIP3    H241450   2.922   4.789  17.189 -0.5075 -0.9156  1.7439
 6679TIP3   OH241451   2.870   1.593   4.116 -0.2549  0.1481  0.4146
 6679TIP3    H141452   2.814   1.517   4.131  0.4335  0.0278  2.7418
 6679TIP3    H241453   2.948   1.576   4.168  1.6330  0.7222 -2.0390
 6680TIP3   OH241454   2.688   3.411  16.685  0.0566 -0.1534  0.2190
 6680TIP3    H141455   2.601   3.452  16.685  0.4883  0.8646 -0.9700
 6680TIP3    H241456   2.745   3.476  16.726  0.2903 -0.7593  0.8711
 6681TIP3   OH241457   3.896   5.899   1.339 -0.1415 -0.3216 -0.2179
 6681TIP3    H141458   3.860   5.938   1.418 -0.4593  0.2770 -0.6586
 6681TIP3    H241459   3.828   5.839   1.308  0.4220 -1.4056  0.5655
 6682TIP3   OH241460   5.802   1.761   0.724  0.0881  0.4201  0.0975
 6682TIP3    H141461   5.827   1.828   0.787 -1.4338 -0.2252  1.4427
 6682TIP3    H241462   5.708   1.748   0.738  0.6362 -3.3930  1.3222
 6683TIP3   OH241463   5.079   1.205   1.597 -0.0711 -0.2204  0.4836
 6683TIP3    H141464   5.007   1.223   1.536 -0.5060 -0.3743  0.9375
 6683TIP3    H241465   5.069   1.271   1.666  0.6721  0.2212  0.1806
 6684TIP3   OH241466   3.612   1.664   4.983  0.4517  0.1134 -0.2321
 6684TIP3    H141467   3.707   1.651   4.989  0.0356 -3.4928  0.5965
 6684TIP3    H241468   3.586   1.694   5.070  0.7770  1.1339 -0.4669
 6685TIP3   OH241469   6.137   1.065  10.508 -0.1878  0.0792 -0.3193
 6685TIP3    H141470   6.106   0.982  10.470  0.4827 -0.0365 -0.6191
 6685TIP3    H241471   6.131   1.051  10.602  1.6959 -1.0274 -0.3073
 6686TIP3   OH241472   0.037   1.024   3.019 -0.1694  0.5891 -0.5827
 6686TIP3    H141473  -0.051   0.989   3.035  0.9200 -1.2069  2.2562
 6686TIP3    H241474   0.027   1.080   2.942 -4.1237  1.8326  0.6018
 6687TIP3   OH241475   5.742   6.698  13.866 -0.6657 -0.0963 -0.2274
 6687TIP3    H141476   5.837   6.693  13.855 -0.5183 -1.7387  1.3025
 6687TIP3    H241477   5.726   6.788  13.896  0.9096 -0.7636  3.0222
 6688TIP3   OH241478   0.451   2.951   0.848  0.3484  0.2047 -0.4915
 6688TIP3    H141479   0.389   2.955   0.776 -0.0104  0.0193 -0.1958
 6688TIP3    H241480   0.476   2.858   0.853 -0.0537  0.1210 -0.0192
 6689TIP3   OH241481   6.238   5.427  16.747 -1.0462 -0.1821 -0.0973
 6689TIP3    H141482   6.150   5.423  16.710 -0.2924 -0.0613 -2.0219
 6689TIP3    H241483   6.295   5.442  16.672  0.7950 -1.8423  0.8688
 6690TIP3   OH241484   6.750   6.643  14.290 -0.1050 -0.8444 -0.6102
 6690TIP3    H141485   6.741   6.582  14.363 -0.2870  0.5888  0.5986
 6690TIP3    H241486   6.843   6.666  14.291 -0.3190  0.0269 -0.1086
 6691TIP3   OH241487   2.987   1.611  12.614  0.6487 -0.4426 -0.3974
 6691TIP3    H141488   2.968   1.555  12.689  1.2086 -1.6289 -1.1175
 6691TIP3    H241489   2.925   1.583  12.546 -0.4412  1.2062 -0.1348
 6692TIP3   OH241490   5.983   5.415  11.479 -0.5022 -0.8976 -0.3562
 6692TIP3    H141491   5.973   5.483  11.545 -1.3895 -0.0590 -1.3164
 6692TIP3    H241492   6.058   5.443  11.426 -0.4586 -1.0080 -0.3530
 6693TIP3   OH241493   3.181   2.473  17.217 -0.8830  0.1175  0.0309
 6693TIP3    H141494   3.204   2.564  17.233 -1.3447  0.3291 -0.5032
 6693TIP3    H241495   3.247   2.423  17.266  0.2838  0.7196 -0.8609
 6694TIP3   OH241496   2.710   5.421  12.361  0.5438  0.8885 -0.3377
 6694TIP3    H141497   2.645   5.372  12.312  0.8683  2.5698 -2.6405
 6694TIP3    H241498   2.661   5.459  12.434 -0.7681  0.9879 -1.2296
 6695TIP3   OH241499   4.317   2.166  15.376 -0.5891 -0.4418  0.2716
 6695TIP3    H141500   4.269   2.235  15.329 -0.7208 -0.7350 -0.0265
 6695TIP3    H241501   4.295   2.086  15.329 -0.3159 -0.6670  0.5296
 6696TIP3   OH241502   1.466   4.455   3.734 -0.3752 -0.0823  0.1730
 6696TIP3    H141503   1.447   4.438   3.642 -1.0943 -0.6511  0.4188
 6696TIP3    H241504   1.556   4.488   3.734 -0.2823 -0.3111 -0.7082
 6697TIP3   OH241505   0.886   3.115  13.426 -0.5246  0.4142  0.2451
 6697TIP3    H141506   0.979   3.129  13.410 -0.7374  1.5818 -0.0931
 6697TIP3    H241507   0.857   3.196  13.468 -1.0714 -0.5468  1.8010
 6698TIP3   OH241508   3.511   2.096  13.759 -0.1345 -0.2807  0.1267
 6698TIP3    H141509   3.603   2.109  13.781  0.6103 -1.6377 -1.8679
 6698TIP3    H241510   3.512   2.047  13.676 -2.6532 -0.2231 -0.0445
 6699TIP3   OH241511   6.209   4.229   0.101 -1.0632 -0.1181 -0.1029
 6699TIP3    H141512   6.165   4.177   0.034 -2.5074 -0.3607  0.9852
 6699TIP3    H241513   6.201   4.177   0.181 -0.9592  0.9661  0.6369
 6700TIP3   OH241514   0.167   4.963   3.256 -0.0615  0.6951 -0.2580
 6700TIP3    H141515   0.208   4.951   3.341 -1.7659 -0.2071  0.4826
 6700TIP3    H241516   0.220   5.030   3.213  0.4168  1.6807  1.7678
 6701TIP3   OH241517   3.234   0.778   6.513 -0.2873  0.0205 -0.6477
 6701TIP3    H141518   3.176   0.835   6.462 -2.5579  0.6744  2.3170
 6701TIP3    H241519   3.215   0.690   6.481 -1.9387  0.3690 -0.7534
 6702TIP3   OH241520   6.451   1.801  13.198  0.1335  0.4519 -0.6602
 6702TIP3    H141521   6.516   1.870  13.209 -1.4473  2.0883 -0.9714
 6702TIP3    H241522   6.502   1.721  13.183  2.0499  1.3412  0.7118
 6703TIP3   OH241523   4.430   5.406  12.275  0.0936  0.0686  0.2252
 6703TIP3    H141524   4.469   5.482  12.233  0.3616 -0.9336 -1.4317
 6703TIP3    H241525   4.453   5.415  12.368  0.9208  1.4896 -0.0866
 6704TIP3   OH241526   4.408   0.427   5.358 -0.4651  0.3968  0.6029
 6704TIP3    H141527   4.431   0.403   5.268 -1.8005  1.1963  0.0097
 6704TIP3    H241528   4.313   0.437   5.356 -0.6515 -0.4857  2.3458
 6705TIP3   OH241529   0.279   1.285   5.328 -0.1905 -0.0562 -0.3467
 6705TIP3    H141530   0.241   1.370   5.350  0.5762  0.0421  0.6245
 6705TIP3    H241531   0.357   1.278   5.383  0.4696 -0.8324 -1.3493
 6706TIP3   OH241532   0.967   1.684   6.196 -0.2560 -0.1398  0.0224
 6706TIP3    H141533   0.982   1.724   6.110  0.9348 -1.1355 -0.2598
 6706TIP3    H241534   0.970   1.758   6.257  0.9322  0.3464 -0.5900
 6707TIP3   OH241535   3.191   3.803  11.506  0.1654  0.3390 -0.9554
 6707TIP3    H141536   3.149   3.825  11.589  2.6953  0.5938  0.3713
 6707TIP3    H241537   3.268   3.861  11.502  0.8800 -0.6394 -2.8118
 6708TIP3   OH241538   2.215   3.284   5.002  0.3104 -0.1930  0.1434
 6708TIP3    H141539   2.254   3.340   4.934  0.0222 -0.1198  0.0378
 6708TIP3    H241540   2.143   3.336   5.037  1.4075  0.4295  1.5932
 6709TIP3   OH241541   4.904   3.801   5.887  0.0165 -0.2929 -0.3366
 6709TIP3    H141542   4.992   3.809   5.925 -0.1405 -0.0388 -0.0154
 6709TIP3    H241543   4.860   3.736   5.942 -0.1310 -0.1098 -0.2371
 6710TIP3   OH241544   4.161   4.838  11.909 -0.9732 -0.4958  0.0382
 6710TIP3    H141545   4.164   4.927  11.873  0.8508 -0.2216  0.7434
 6710TIP3    H241546   4.243   4.798  11.879 -1.1123 -1.4572  0.8970
 6711TIP3   OH241547   4.387   2.714   5.059  0.1988  0.2834 -0.4937
 6711TIP3    H141548   4.356   2.624   5.046  1.2448 -0.1045 -0.4547
 6711TIP3    H241549   4.379   2.755   4.973  0.7935 -0.2173 -0.8047
 6712TIP3   OH241550   0.836   3.982  16.037 -0.1775  0.2316 -1.1545
 6712TIP3    H141551   0.814   4.017  16.124 -0.9511  1.5531 -1.8391
 6712TIP3    H241552   0.812   3.890  16.042  1.2290 -0.0940  0.4987
 6713TIP3   OH241553   6.125   4.286  12.756 -0.1757  0.4483  0.6646
 6713TIP3    H141554   6.092   4.358  12.702  0.6159  0.4660  0.1803
 6713TIP3    H241555   6.067   4.212  12.736 -0.3729  0.6761  0.3928
 6714TIP3   OH241556   4.178   0.700  11.246  0.5841 -0.2312 -0.2479
 6714TIP3    H141557   4.184   0.622  11.192  1.9536  0.3361 -0.9456
 6714TIP3    H241558   4.264   0.741  11.240  0.1200  0.9522  0.6860
 6715TIP3   OH241559   3.103   6.015   0.691  0.2582  0.2726  0.4375
 6715TIP3    H141560   3.114   6.019   0.596 -1.6722 -2.0243  0.0132
 6715TIP3    H241561   3.118   5.924   0.714 -1.4963  0.2990  1.9681
 6716TIP3   OH241562   3.022   6.367   2.328 -0.0096 -0.2904 -0.4569
 6716TIP3    H141563   3.031   6.337   2.237  1.9292 -4.0404  0.7697
 6716TIP3    H241564   2.953   6.311   2.365  0.4257 -0.0180  0.7993
 6717TIP3   OH241565   6.745   1.757  13.056  0.0741 -0.1048  0.6970
 6717TIP3    H141566   6.724   1.849  13.073  0.1509 -0.1774  1.2100
 6717TIP3    H241567   6.786   1.757  12.970 -0.4520  0.2656  0.4396
 6718TIP3   OH241568   6.510   3.276   3.082  0.6914  0.0192  0.3119
 6718TIP3    H141569   6.584   3.260   3.024  0.4653 -0.2041  0.0818
 6718TIP3    H241570   6.484   3.366   3.063  0.0614 -0.3404 -0.5764
 6719TIP3   OH241571   5.457   1.826  14.777  0.1939 -0.9537 -0.2222
 6719TIP3    H141572   5.402   1.877  14.837  0.0997 -0.0786 -1.0405
 6719TIP3    H241573   5.476   1.746  14.826 -0.2999 -0.4834  0.7863
 6720TIP3   OH241574   5.040   3.038  13.905  0.7725  0.2196 -0.0918
 6720TIP3    H141575   5.095   3.070  13.977  0.3443 -1.0565  0.8571
 6720TIP3    H241576   4.997   3.116  13.870  1.4468  0.9391  0.6487
 6721TIP3   OH241577   4.438   1.580  14.495  0.0345 -0.1598  0.0800
 6721TIP3    H141578   4.506   1.517  14.472  0.8573  0.7323 -0.0363
 6721TIP3    H241579   4.361   1.551  14.447  0.3465 -1.1593  0.1554
 6722TIP3   OH241580   2.914   2.776   5.156  0.0535 -0.3163 -0.2918
 6722TIP3    H141581   2.967   2.855   5.171  0.8108 -1.0953  1.3400
 6722TIP3    H241582   2.979   2.706   5.147 -0.6546 -0.9766 -0.2919
 6723TIP3   OH241583   1.830   2.830  14.460  0.4398  0.1800  0.0222
 6723TIP3    H141584   1.802   2.779  14.383 -1.2366 -0.6559  1.1417
 6723TIP3    H241585   1.919   2.798  14.478 -0.2272 -1.7333  0.1304
 6724TIP3   OH241586   6.179   3.979  12.858 -0.0310 -0.3518  0.0060
 6724TIP3    H141587   6.163   3.891  12.889 -1.5105  0.0434  0.4230
 6724TIP3    H241588   6.176   4.034  12.937  0.1769  0.1627 -0.3320
 6725TIP3   OH241589   1.045   1.948  15.800 -0.3156 -0.5032  0.0214
 6725TIP3    H141590   0.982   1.986  15.861  1.1074 -0.2652  1.4028
 6725TIP3    H241591   1.074   1.867  15.843  1.7153  0.3434  0.3508
 6726TIP3   OH241592   0.749   3.117  15.402 -0.2981 -0.4181  0.0829
 6726TIP3    H141593   0.739   3.206  15.368 -0.7570 -0.1660  0.8418
 6726TIP3    H241594   0.843   3.106  15.414 -0.0909 -0.6438 -1.5690
 6727TIP3   OH241595   1.513   0.478   4.217 -0.2089  0.1337 -0.2852
 6727TIP3    H141596   1.545   0.391   4.237 -1.7657 -0.1978  0.9872
 6727TIP3    H241597   1.434   0.464   4.165  1.0875  0.8968 -2.5809
 6728TIP3   OH241598   3.614   1.355  15.635  0.1458  0.2789  0.5679
 6728TIP3    H141599   3.533   1.331  15.681  0.5943  0.4216  1.4549
 6728TIP3    H241600   3.651   1.272  15.605  0.9499 -0.0560  2.3637
 6729TIP3   OH241601   4.356   0.972  10.331  0.8468 -0.5736  0.0641
 6729TIP3    H141602   4.448   0.985  10.311  0.5999  0.4110 -0.4666
 6729TIP3    H241603   4.344   1.010  10.418  0.6022  0.8425 -0.5605
 6730TIP3   OH241604   5.955   1.998  15.049 -0.1250  0.1047  0.5236
 6730TIP3    H141605   5.929   2.003  14.957 -0.2228 -0.7493  0.4914
 6730TIP3    H241606   6.050   1.996  15.047 -0.1070 -2.3483  0.2388
 6731TIP3   OH241607   0.981   6.733   2.296  0.5918  0.0798 -0.5417
 6731TIP3    H141608   0.975   6.673   2.221 -1.4233  1.8338 -1.9014
 6731TIP3    H241609   0.962   6.678   2.372  0.3050 -1.3126 -1.5813
 6732TIP3   OH241610   3.795   0.001   0.207 -0.2550  0.9479 -0.6275
 6732TIP3    H141611   3.882  -0.039   0.201 -0.3763  0.4023  0.8734
 6732TIP3    H241612   3.768   0.014   0.116  0.6879 -0.4309 -1.1348
 6733TIP3   OH241613   1.153   1.274   4.033 -0.2231 -0.1549  0.0631
 6733TIP3    H141614   1.079   1.213   4.033  0.1699 -0.6402 -0.5023
 6733TIP3    H241615   1.146   1.319   3.949 -0.6980  0.8302  0.6066
 6734TIP3   OH241616   4.257   4.290   0.765  0.0611  0.5625 -0.6411
 6734TIP3    H141617   4.324   4.265   0.701  0.6431  0.1119  0.1416
 6734TIP3    H241618   4.299   4.279   0.850 -1.5044 -1.2496 -0.0598
 6735TIP3   OH241619   3.118   0.474   2.416  0.0823 -0.0362 -0.2199
 6735TIP3    H141620   3.101   0.528   2.339  2.2075 -1.2932 -1.7022
 6735TIP3    H241621   3.038   0.424   2.429 -0.3853  0.3443 -1.4911
 6736TIP3   OH241622   3.024   0.641   4.164 -0.2433  0.3114 -0.1394
 6736TIP3    H141623   3.090   0.678   4.105  0.5609  0.2914  0.7198
 6736TIP3    H241624   3.059   0.555   4.188 -1.4198 -0.4477 -1.0115
 6737TIP3   OH241625   6.356   1.784  10.866 -0.2950  0.0511 -0.5941
 6737TIP3    H141626   6.449   1.799  10.879 -0.7987  1.9692  1.5391
 6737TIP3    H241627   6.351   1.702  10.817  2.4640 -0.8744  0.4742
 6738TIP3   OH241628   2.957   3.739   4.288  0.1125 -0.7852  0.6432
 6738TIP3    H141629   2.865   3.757   4.272 -0.5712 -1.1094  3.6349
 6738TIP3    H241630   3.000   3.824   4.284 -0.2650 -0.6394 -0.7963
 6739TIP3   OH241631   4.531   4.085  16.466 -0.2853 -0.5757 -0.3912
 6739TIP3    H141632   4.531   4.011  16.526  1.4703  0.5896  1.1664
 6739TIP3    H241633   4.472   4.149  16.507 -1.5627 -0.9576 -1.5706
 6740TIP3   OH241634   3.637   1.924  16.287  0.0772  0.3000  0.4765
 6740TIP3    H141635   3.573   1.853  16.285  0.6641 -0.2194 -0.4550
 6740TIP3    H241636   3.621   1.974  16.208  1.4942 -0.4671 -0.3348
 6741TIP3   OH241637   5.003   6.760   1.026 -0.1473 -0.8270 -0.3377
 6741TIP3    H141638   4.930   6.698   1.027 -1.4389  0.6275  0.2068
 6741TIP3    H241639   4.967   6.839   0.986  1.0269  0.0514  0.2535
 6742TIP3   OH241640   4.639   2.019  13.817  0.0818  0.1518  0.4650
 6742TIP3    H141641   4.681   1.938  13.845  0.1588  0.2108  0.5204
 6742TIP3    H241642   4.633   2.012  13.722 -0.9240 -0.4173  0.5537
 6743TIP3   OH241643   1.729   2.934   3.545  0.7328 -0.2807 -0.2742
 6743TIP3    H141644   1.649   2.894   3.511  0.7052 -0.1305 -0.3876
 6743TIP3    H241645   1.709   2.953   3.637  0.8068 -0.6859 -0.1738
 6744TIP3   OH241646   0.996   6.363  13.759 -0.7343 -0.1188  0.2827
 6744TIP3    H141647   1.072   6.351  13.815 -1.1516  1.3531  1.2458
 6744TIP3    H241648   1.024   6.335  13.672  0.5258 -0.6862  0.8601
 6745TIP3   OH241649   1.958   3.366  16.653 -0.0579  0.1242 -0.2033
 6745TIP3    H141650   2.052   3.347  16.653 -0.3582 -1.5392 -0.8067
 6745TIP3    H241651   1.918   3.286  16.618 -1.6893  0.8581 -0.0773
 6746TIP3   OH241652   0.407   3.250   5.752 -0.0426 -0.3023  0.1512
 6746TIP3    H141653   0.373   3.339   5.750 -1.1687 -0.7212  0.0824
 6746TIP3    H241654   0.331   3.195   5.769  0.2675 -1.4155 -1.7089
 6747TIP3   OH241655   6.062   0.861   4.465 -0.3221 -0.1378  0.4276
 6747TIP3    H141656   6.010   0.838   4.387 -0.1890  1.0997 -0.0425
 6747TIP3    H241657   6.152   0.866   4.433 -0.0076 -1.3250  1.0438
 6748TIP3   OH241658   6.435   1.533  16.622  0.2152  0.0802  0.6721
 6748TIP3    H141659   6.441   1.440  16.599  0.1068  0.0344  0.8239
 6748TIP3    H241660   6.431   1.578  16.538 -2.8758 -0.2532  0.5487
 6749TIP3   OH241661   5.461   5.939  14.891 -0.3133  0.1197 -0.1532
 6749TIP3    H141662   5.550   5.972  14.903 -0.9016  1.4231  0.8923
 6749TIP3    H241663   5.434   5.910  14.978 -1.3629  0.9655 -0.1765
 6750TIP3   OH241664   6.084   2.683  12.874 -0.0320  0.2476  0.0284
 6750TIP3    H141665   5.989   2.693  12.878 -0.0442  0.3552 -0.4135
 6750TIP3    H241666   6.102   2.599  12.917 -0.2070  0.8100  1.2077
 6751TIP3   OH241667   5.918   1.032   4.864 -0.1156  0.1390 -0.0677
 6751TIP3    H141668   5.941   0.943   4.891  2.6320  0.3746 -1.2958
 6751TIP3    H241669   5.947   1.087   4.937  0.1013  0.1900 -0.1930
 6752TIP3   OH241670   1.232   0.241   4.591 -0.9585  0.2753 -0.0430
 6752TIP3    H141671   1.208   0.300   4.519 -2.3709  0.8194  0.8312
 6752TIP3    H241672   1.204   0.155   4.561 -0.7326  0.3521 -0.4919
 6753TIP3   OH241673   3.531   2.521   3.866 -0.4378 -0.7300 -0.2217
 6753TIP3    H141674   3.454   2.469   3.889 -3.5838  3.3107 -0.4381
 6753TIP3    H241675   3.573   2.539   3.949 -1.9611 -0.0263  0.4483
 6754TIP3   OH241676   3.256   4.027   4.645 -0.0311  0.0650  0.2072
 6754TIP3    H141677   3.314   4.090   4.689  2.7642  0.0768 -3.0252
 6754TIP3    H241678   3.207   4.080   4.582  0.8221 -0.6195 -1.0936
 6755TIP3   OH241679   0.932   2.998   6.100  0.6619 -0.0830 -0.2589
 6755TIP3    H141680   0.842   2.978   6.076 -0.3035  0.7642  2.2715
 6755TIP3    H241681   0.958   2.927   6.159  1.1185  0.4035  0.1438
 6756TIP3   OH241682   2.261   6.457   4.565  0.1479  0.0144  0.2267
 6756TIP3    H141683   2.335   6.402   4.588 -0.9286 -0.6224  2.4056
 6756TIP3    H241684   2.230   6.492   4.648 -1.9921  0.2626 -0.6071
 6757TIP3   OH241685   0.637   0.123  13.898 -0.4596  0.1592  0.1462
 6757TIP3    H141686   0.716   0.168  13.928 -1.3374  0.8645  1.4986
 6757TIP3    H241687   0.662   0.031  13.892  0.8776  0.5570 -0.9691
 6758TIP3   OH241688   3.083   4.424   4.515  0.6127 -0.1706 -0.3211
 6758TIP3    H141689   2.989   4.424   4.500  0.7350  0.2810 -1.1143
 6758TIP3    H241690   3.111   4.336   4.490 -0.1270 -1.7912  3.6768
 6759TIP3   OH241691   3.501   0.920   4.973 -0.2714  0.7831 -0.3171
 6759TIP3    H141692   3.468   0.838   5.007 -0.0954  0.4100 -1.0301
 6759TIP3    H241693   3.430   0.956   4.920 -0.2340  0.9288 -0.2704
 6760TIP3   OH241694   0.419   2.583  14.165 -0.3453  0.0829  0.1009
 6760TIP3    H141695   0.359   2.545  14.101 -1.0719 -1.7690  1.7750
 6760TIP3    H241696   0.363   2.636  14.222  0.1426  0.9796 -0.2448
 6761TIP3   OH241697   6.583   6.463   3.187 -0.4458  0.4055 -0.1821
 6761TIP3    H141698   6.532   6.535   3.223  0.0169  1.3805 -1.4239
 6761TIP3    H241699   6.526   6.386   3.197  0.0012  0.3731  3.4284
 6762TIP3   OH241700   3.245   3.641   0.687 -0.3624 -0.6826 -0.0695
 6762TIP3    H141701   3.204   3.617   0.604 -0.1835 -1.3533  0.0249
 6762TIP3    H241702   3.285   3.560   0.718  2.1270  0.2181 -0.7688
 6763TIP3   OH241703   1.553   5.940  14.284 -0.1822 -0.5120  0.5400
 6763TIP3    H141704   1.594   5.992  14.354 -3.0179 -0.9945  2.7324
 6763TIP3    H241705   1.484   5.996  14.250 -0.1423 -1.0698 -0.4948
 6764TIP3   OH241706   6.579   6.242  12.092 -0.4092 -0.1620 -0.0323
 6764TIP3    H141707   6.593   6.333  12.117  0.9805 -0.2028 -0.5743
 6764TIP3    H241708   6.548   6.199  12.172  0.4090  0.4741  0.6365
 6765TIP3   OH241709   1.976   3.513   4.628  0.1318  0.2462  0.4131
 6765TIP3    H141710   1.961   3.433   4.676  3.4592 -1.0303 -0.3951
 6765TIP3    H241711   1.914   3.509   4.555  0.6375 -1.9516  0.0348
 6766TIP3   OH241712   6.243   6.125  13.295 -0.4103  0.3236  0.4552
 6766TIP3    H141713   6.186   6.124  13.372 -0.3095 -0.7381  0.5223
 6766TIP3    H241714   6.218   6.048  13.244  0.8620 -0.0954  0.4170
 6767TIP3   OH241715   3.246   0.012  16.162 -0.3895  0.4724 -0.0850
 6767TIP3    H141716   3.321  -0.047  16.156  0.5061  1.6731 -1.4850
 6767TIP3    H241717   3.259   0.059  16.245  0.5454  0.8186 -0.4107
 6768TIP3   OH241718   5.212   1.003  16.752  0.8570  0.4153  0.5082
 6768TIP3    H141719   5.148   1.056  16.706  1.1721 -0.4580 -0.9864
 6768TIP3    H241720   5.292   1.008  16.699  0.4843 -2.7033 -0.5660
 6769TIP3   OH241721   4.340   5.009   0.997 -0.0263  0.0044 -0.5081
 6769TIP3    H141722   4.268   4.962   1.038  1.3772 -0.3353  1.7868
 6769TIP3    H241723   4.308   5.098   0.984 -1.2460 -0.4563 -0.7084
 6770TIP3   OH241724   4.311   5.289   3.974  0.3288 -0.5695 -0.6723
 6770TIP3    H141725   4.254   5.362   4.000  0.9144 -0.5089  0.4938
 6770TIP3    H241726   4.251   5.221   3.945 -0.3193 -0.3123  0.0333
 6771TIP3   OH241727   1.221   3.197  16.881  0.0337  0.5686  0.1881
 6771TIP3    H141728   1.156   3.143  16.835  1.0819 -0.6836  0.1111
 6771TIP3    H241729   1.173   3.275  16.908 -1.8200 -0.8635  1.2348
 6772TIP3   OH241730   5.802   4.806  14.661  0.0874  0.1152  0.0049
 6772TIP3    H141731   5.824   4.828  14.570 -0.6534 -0.5048 -0.3419
 6772TIP3    H241732   5.757   4.884  14.693  0.5845  0.4387 -0.0732
 6773TIP3   OH241733   6.031   0.317   4.348  0.2083  0.3478  0.2168
 6773TIP3    H141734   5.955   0.318   4.406  2.3905  0.4672  3.3314
 6773TIP3    H241735   6.015   0.244   4.289 -1.7964 -0.3689  1.5404
 6774TIP3   OH241736   0.417   2.753   3.016 -0.0535  0.3869  0.1150
 6774TIP3    H141737   0.497   2.805   3.005 -0.3075  1.1077  1.4874
 6774TIP3    H241738   0.440   2.686   3.080  1.0286 -2.9534 -3.3852
 6775TIP3   OH241739   6.245   4.190  12.249 -0.1406  0.2051  0.4293
 6775TIP3    H141740   6.191   4.246  12.305  0.1800  1.0697 -0.1096
 6775TIP3    H241741   6.294   4.251  12.193 -0.4691 -0.6196 -0.8157
 6776TIP3   OH241742   4.908   4.159   1.220  0.1533  0.1937 -0.4713
 6776TIP3    H141743   4.858   4.229   1.177 -1.6594 -0.9196 -0.2590
 6776TIP3    H241744   4.968   4.127   1.153 -0.5447  0.4871 -1.2505
 6777TIP3   OH241745   5.494   2.666  16.549  0.0803  0.3399 -0.1818
 6777TIP3    H141746   5.435   2.624  16.612 -1.6224  1.3552 -1.0395
 6777TIP3    H241747   5.437   2.699  16.480  1.3730  3.3088  0.0103
 6778TIP3   OH241748   6.217   3.952   1.322  0.0921  0.4080 -0.2281
 6778TIP3    H141749   6.247   3.949   1.413  2.1347  0.4758 -0.8657
 6778TIP3    H241750   6.287   3.911   1.272 -1.5768 -0.8097 -1.6576
 6779TIP3   OH241751   0.354   0.110   0.683 -0.4576 -0.1725 -1.0686
 6779TIP3    H141752   0.445   0.086   0.667 -0.5911 -0.9217 -0.7163
 6779TIP3    H241753   0.326   0.053   0.754 -1.3095 -0.1754 -1.3970
 6780TIP3   OH241754   2.636   2.063   1.653  0.2794 -0.3184 -0.1217
 6780TIP3    H141755   2.595   2.076   1.568  2.1782 -0.0851 -1.0676
 6780TIP3    H241756   2.671   1.974   1.649  0.5501 -0.2367  0.3225
 6781TIP3   OH241757   6.000   2.306   1.023  0.2094 -0.4765 -0.1367
 6781TIP3    H141758   6.046   2.224   1.003 -1.9425 -1.8131  0.0483
 6781TIP3    H241759   5.955   2.289   1.105  0.4333  1.2486  0.3899
 6782TIP3   OH241760   1.951   2.166  11.234  0.2141  0.4042 -0.4591
 6782TIP3    H141761   1.913   2.235  11.289  2.4859  0.9510  0.5132
 6782TIP3    H241762   2.005   2.115  11.294  0.9578 -0.3848 -1.7656
 6783TIP3   OH241763   6.126   6.714   2.379 -0.1896 -0.5320  0.4222
 6783TIP3    H141764   6.144   6.695   2.471  0.6516 -2.2343 -0.0694
 6783TIP3    H241765   6.205   6.758   2.347  0.1050 -1.2446  0.1575
 6784TIP3   OH241766   0.542   0.598   5.164 -0.2623 -0.1594 -0.1299
 6784TIP3    H141767   0.506   0.667   5.108 -0.6138  0.2067  0.5256
 6784TIP3    H241768   0.637   0.613   5.163 -0.0591 -1.3007 -2.0926
 6785TIP3   OH241769   5.136   2.307   1.138 -0.0406  0.2130 -0.1367
 6785TIP3    H141770   5.093   2.248   1.076  1.1211 -1.7787  0.8557
 6785TIP3    H241771   5.107   2.277   1.224  1.0044  0.7554  0.4258
 6786TIP3   OH241772   2.240   5.311   2.163 -0.1526  0.2488 -0.1265
 6786TIP3    H141773   2.185   5.331   2.239 -1.6268 -0.5850 -0.9381
 6786TIP3    H241774   2.226   5.218   2.147  0.4434  0.3295 -1.2011
 6787TIP3   OH241775   0.508   0.726  16.011 -0.8552  0.1923 -0.1496
 6787TIP3    H141776   0.507   0.734  16.106 -0.5104 -1.0750 -0.0248
 6787TIP3    H241777   0.531   0.814  15.980  1.6240  0.0618  1.0348
 6788TIP3   OH241778   1.669   2.196   2.085 -0.0696  0.6906  0.0814
 6788TIP3    H141779   1.743   2.253   2.106 -0.2050  1.5825 -1.6718
 6788TIP3    H241780   1.707   2.126   2.032  0.1496 -1.1253  2.4530
 6789TIP3   OH241781   2.293   0.708  15.108 -0.4100  0.3099 -0.1612
 6789TIP3    H141782   2.228   0.757  15.057 -0.7808  0.2976  0.2904
 6789TIP3    H241783   2.277   0.735  15.199  0.6119  0.7703 -0.0966
 6790TIP3   OH241784   1.710   0.024   0.681  0.2687 -0.3632  0.0514
 6790TIP3    H141785   1.661   0.024   0.763 -0.8931 -2.5014 -0.5623
 6790TIP3    H241786   1.760  -0.059   0.683  0.1320 -0.5115 -1.4286
 6791TIP3   OH241787   0.644   3.107   4.009  0.1030  0.6823  0.0156
 6791TIP3    H141788   0.676   3.066   4.089 -1.3272 -0.0416  0.2549
 6791TIP3    H241789   0.555   3.135   4.031 -0.3972  0.2691 -1.3902
 6792TIP3   OH241790   1.409   5.264  11.501 -0.0224 -0.0387 -0.7251
 6792TIP3    H141791   1.422   5.205  11.575 -0.5463  1.1668  0.3656
 6792TIP3    H241792   1.317   5.256  11.479 -0.4985  1.5441  0.5122
 6793TIP3   OH241793   3.545   5.081  17.124 -0.0136 -0.2397  0.2835
 6793TIP3    H141794   3.484   5.154  17.135 -0.6541 -1.0039  1.9673
 6793TIP3    H241795   3.614   5.117  17.067 -2.6928  0.1963 -3.0067
 6794TIP3   OH241796   6.190   4.773   3.239  1.1338 -0.0141  0.3592
 6794TIP3    H141797   6.184   4.761   3.145 -0.2963  0.1370  0.3985
 6794TIP3    H241798   6.184   4.684   3.275 -0.7185  0.0594  0.3541
 6795TIP3   OH241799   0.079   4.282   0.802  0.2006  0.1489  0.2340
 6795TIP3    H141800   0.025   4.267   0.725 -0.5834  0.4720  0.7104
 6795TIP3    H241801   0.165   4.246   0.778 -0.4867 -1.3157 -0.1596
 6796TIP3   OH241802   4.952   4.348   5.792  0.1525 -0.4330  0.8874
 6796TIP3    H141803   5.015   4.388   5.852  1.8885 -1.1333 -0.3888
 6796TIP3    H241804   4.953   4.404   5.715 -2.1842  0.5488  1.4686
 6797TIP3   OH241805   0.789   4.620  12.553 -0.3106  0.3059  0.2663
 6797TIP3    H141806   0.712   4.646  12.503 -1.4182 -1.9877  0.6693
 6797TIP3    H241807   0.774   4.528  12.575  2.7613 -0.3573 -0.0068
 6798TIP3   OH241808   3.740   3.168  15.920  0.4668  0.0157  0.1475
 6798TIP3    H141809   3.697   3.122  15.992  1.3364  0.6166  1.0703
 6798TIP3    H241810   3.750   3.258  15.952  0.0381  0.5208 -1.0862
 6799TIP3   OH241811   0.416   4.717   0.677  0.2943 -0.8725  0.4376
 6799TIP3    H141812   0.363   4.640   0.698 -0.0157 -0.3234  1.7722
 6799TIP3    H241813   0.493   4.709   0.733  0.5590 -0.5270  0.1267
 6800TIP3   OH241814   3.879   0.792  15.314 -0.8836 -0.3359 -0.1711
 6800TIP3    H141815   3.864   0.769  15.405 -0.6279  0.0146 -0.0407
 6800TIP3    H241816   3.950   0.735  15.286  0.0060  0.5413  0.2620
 6801TIP3   OH241817   5.311   5.333   0.740 -0.1465 -0.1026 -0.3729
 6801TIP3    H141818   5.291   5.293   0.825  0.3757  0.5812  0.0799
 6801TIP3    H241819   5.329   5.258   0.683  2.1108 -0.5434  0.7821
 6802TIP3   OH241820   6.531   3.260  14.425 -0.3658 -0.0370 -0.0453
 6802TIP3    H141821   6.520   3.172  14.460  1.7649  0.4539  2.1536
 6802TIP3    H241822   6.477   3.316  14.481 -0.0504  0.3035 -0.0774
 6803TIP3   OH241823   6.158   3.712  12.936 -0.2272  0.2124 -0.5610
 6803TIP3    H141824   6.197   3.627  12.915  3.5788  1.7896 -0.5559
 6803TIP3    H241825   6.121   3.700  13.023  2.0813 -0.9654  0.3369
 6804TIP3   OH241826   6.780   0.146  17.013 -0.4119  0.0622  0.1378
 6804TIP3    H141827   6.831   0.131  16.934 -0.5075  1.1261 -0.1437
 6804TIP3    H241828   6.773   0.241  17.019 -0.4945 -0.0057  1.3695
 6805TIP3   OH241829   1.207   2.100  15.034  0.2477 -0.3719  0.2903
 6805TIP3    H141830   1.220   2.114  15.128  1.4913 -3.1705  0.6267
 6805TIP3    H241831   1.228   2.007  15.020  0.3431  0.0092 -2.8079
 6806TIP3   OH241832   5.573   2.591   5.783 -0.8668  0.4004  0.1286
 6806TIP3    H141833   5.629   2.538   5.727 -1.3494  1.2558 -1.2194
 6806TIP3    H241834   5.623   2.603   5.864 -0.0911 -0.7435 -0.1680
 6807TIP3   OH241835   3.131   3.362  10.901 -0.5179  0.2867  0.0359
 6807TIP3    H141836   3.155   3.323  10.817 -0.3519  0.9673 -0.2434
 6807TIP3    H241837   3.143   3.456  10.888 -0.7991  0.4266  0.7251
 6808TIP3   OH241838   6.060   3.355  15.315 -0.0633 -0.4156 -0.5571
 6808TIP3    H141839   5.971   3.370  15.282  0.4664  0.6086 -1.6173
 6808TIP3    H241840   6.087   3.274  15.273 -1.0205 -1.5679  0.9696
 6809TIP3   OH241841   4.984   1.761   4.610  0.6888 -0.9527  0.3008
 6809TIP3    H141842   4.920   1.721   4.669 -1.6139 -0.2386 -1.5323
 6809TIP3    H241843   4.999   1.849   4.646 -1.0004 -0.3788 -0.3034
 6810TIP3   OH241844   4.815   3.637   5.628  0.2712 -0.2058 -0.0060
 6810TIP3    H141845   4.852   3.562   5.581  0.6189 -1.4112  2.0792
 6810TIP3    H241846   4.891   3.684   5.662  0.0509  1.0677 -1.1958
 6811TIP3   OH241847   5.760   0.615  12.830 -0.1016  0.3164 -0.1947
 6811TIP3    H141848   5.771   0.634  12.737  0.8040 -0.9993 -0.3753
 6811TIP3    H241849   5.681   0.663  12.854 -2.4528 -1.9983 -2.4910
 6812TIP3   OH241850   1.098   5.180  11.999  0.2697 -0.0451  0.4135
 6812TIP3    H141851   1.061   5.251  12.051  0.7312 -0.4156  1.2778
 6812TIP3    H241852   1.059   5.101  12.036  0.4061 -0.3028  0.0146
 6813TIP3   OH241853   2.662   2.392  11.087  0.0622 -0.4223 -0.2236
 6813TIP3    H141854   2.720   2.438  11.148 -0.6729 -2.1776  1.9260
 6813TIP3    H241855   2.675   2.437  11.003  1.9804  1.3688  0.9356
 6814TIP3   OH241856   4.563   6.322   3.791 -0.3328  0.3457 -0.6655
 6814TIP3    H141857   4.554   6.398   3.849  1.4433 -0.4461  0.7478
 6814TIP3    H241858   4.475   6.285   3.785 -0.9540  1.6735 -0.2352
 6815TIP3   OH241859   1.631   4.485  14.144 -0.1824 -0.0953 -0.3291
 6815TIP3    H141860   1.588   4.458  14.226 -1.3081 -0.0965 -0.8975
 6815TIP3    H241861   1.662   4.574  14.161  0.5936 -0.5009  0.4581
 6816TIP3   OH241862   4.678   6.537  17.041 -0.2140  0.0653  0.1440
 6816TIP3    H141863   4.753   6.564  16.988 -0.3696 -0.5296 -0.3930
 6816TIP3    H241864   4.604   6.586  17.006  0.0571  1.2726  1.2091
 6817TIP3   OH241865   4.691   0.798   0.687 -0.2004  0.8992 -0.3950
 6817TIP3    H141866   4.705   0.705   0.706 -1.7122  0.3488 -1.7226
 6817TIP3    H241867   4.665   0.836   0.771  0.9957  0.2768  0.2871
 6818TIP3   OH241868   4.179   1.582  11.961  0.6156 -0.0479  0.1239
 6818TIP3    H141869   4.121   1.509  11.941  1.8610 -1.1695  0.4273
 6818TIP3    H241870   4.200   1.571  12.054  1.7191  0.0212 -0.1049
 6819TIP3   OH241871   6.409   4.932   3.527 -0.2534 -0.2886 -0.3215
 6819TIP3    H141872   6.406   4.836   3.526 -1.8993 -0.2698 -1.4668
 6819TIP3    H241873   6.377   4.956   3.614 -0.2393 -0.7819 -0.1774
 6820TIP3   OH241874   0.857   4.634   3.614  0.1063  0.1633 -0.6188
 6820TIP3    H141875   0.822   4.558   3.660  0.7549  0.3220  0.1541
 6820TIP3    H241876   0.857   4.609   3.522  0.7533 -0.9614 -0.3319
 6821TIP3   OH241877   0.066   1.478   4.339 -0.6822  0.1334  0.4072
 6821TIP3    H141878   0.134   1.417   4.366  0.9236  1.6277 -0.0768
 6821TIP3    H241879   0.041   1.523   4.420 -0.9831 -0.2844  0.5525
 6822TIP3   OH241880   2.005   5.108  14.013 -0.1329  0.1250  0.0939
 6822TIP3    H141881   2.085   5.055  14.001 -0.1815  0.2743 -1.0149
 6822TIP3    H241882   1.935   5.052  13.979 -0.4694  0.1127  0.7978
 6823TIP3   OH241883   2.274   5.149  15.129  0.0948  0.0054 -0.0097
 6823TIP3    H141884   2.215   5.090  15.176 -0.2424 -0.2544 -0.7609
 6823TIP3    H241885   2.228   5.232  15.127  1.7037  1.1999  3.5345
 6824TIP3   OH241886   1.399   0.763  14.816 -0.1348 -0.2703  0.5845
 6824TIP3    H141887   1.355   0.759  14.731 -1.4016 -1.1463  1.2524
 6824TIP3    H241888   1.410   0.856  14.834  1.6078 -0.0605 -1.2474
 6825TIP3   OH241889   4.928   2.851   3.373 -0.7749 -0.0497  0.1842
 6825TIP3    H141890   5.009   2.880   3.332 -1.3107  2.0842  0.4670
 6825TIP3    H241891   4.869   2.832   3.300 -0.4537 -0.2426 -0.0251
 6826TIP3   OH241892   1.634   6.487   4.748 -0.2755  0.8502  0.0480
 6826TIP3    H141893   1.592   6.403   4.726  2.3023 -0.4125 -0.3734
 6826TIP3    H241894   1.665   6.475   4.838  0.6897  1.0990 -0.2457
 6827TIP3   OH241895   2.398   2.097   0.367  0.0847 -0.2965 -0.2920
 6827TIP3    H141896   2.416   2.135   0.453  1.7425 -0.2591 -0.6090
 6827TIP3    H241897   2.366   2.009   0.387 -2.2836  0.6618  0.3999
 6828TIP3   OH241898   0.121   1.906  12.850  0.0923  0.6384  0.1363
 6828TIP3    H141899   0.144   1.917  12.758 -0.1496 -2.6239 -0.4199
 6828TIP3    H241900   0.044   1.962  12.862 -3.1501 -2.6041 -3.1506
 6829TIP3   OH241901   5.216   5.722  17.016 -0.2901  0.4508  0.1445
 6829TIP3    H141902   5.195   5.812  16.993  0.1048  0.4849 -0.0925
 6829TIP3    H241903   5.293   5.700  16.963 -0.3339  0.0005  0.2550
 6830TIP3   OH241904   1.192   6.465  15.982 -0.4458  0.1671  0.2393
 6830TIP3    H141905   1.234   6.522  15.918 -0.8835  0.8604  0.5658
 6830TIP3    H241906   1.109   6.508  16.003 -1.3154 -1.1356 -0.3344
 6831TIP3   OH241907   6.167   2.345   3.546 -0.3868  0.0560  0.4423
 6831TIP3    H141908   6.085   2.321   3.588 -0.7579  2.2049  1.0900
 6831TIP3    H241909   6.142   2.375   3.458 -0.3895  1.2469  0.8380
 6832TIP3   OH241910   3.939   1.529   6.407  0.2667  0.1470  0.4706
 6832TIP3    H141911   4.032   1.538   6.430  0.2058  1.5187  0.2437
 6832TIP3    H241912   3.930   1.438   6.379  1.6539  0.1288  0.0139
 6833TIP3   OH241913   4.465   2.540   4.232 -0.0064  0.1542  0.2681
 6833TIP3    H141914   4.561   2.536   4.235  0.0563  0.1944 -1.0132
 6833TIP3    H241915   4.446   2.587   4.151 -1.1215 -1.4406 -0.4551
 6834TIP3   OH241916   4.458   3.130   4.828 -0.3202  0.5398 -0.3202
 6834TIP3    H141917   4.443   3.159   4.738 -1.9398  0.1999 -0.1958
 6834TIP3    H241918   4.511   3.051   4.820 -0.2579  0.6444 -0.9585
 6835TIP3   OH241919   0.721   2.732   4.380  0.1978  0.1667  0.0373
 6835TIP3    H141920   0.722   2.645   4.339  1.7099 -0.5396  1.5002
 6835TIP3    H241921   0.776   2.723   4.457  1.7528  2.8711 -0.6524
 6836TIP3   OH241922   5.660   4.655  16.775 -0.0483 -0.2801 -0.0936
 6836TIP3    H141923   5.629   4.689  16.691  1.0394 -0.1513 -0.4596
 6836TIP3    H241924   5.754   4.673  16.775 -0.3148  1.5231  2.0238
 6837TIP3   OH241925   0.170   2.294  15.394  0.3655 -0.0580  0.2262
 6837TIP3    H141926   0.244   2.261  15.445 -1.2773 -4.5480  0.1732
 6837TIP3    H241927   0.206   2.310  15.307  1.5842 -0.9405  0.5384
 6838TIP3   OH241928   4.721   6.497   4.627  0.2963 -0.1736  0.0917
 6838TIP3    H141929   4.644   6.445   4.604  0.3918 -0.9492  1.4052
 6838TIP3    H241930   4.702   6.585   4.595 -1.8335  0.0414  1.7185
 6839TIP3   OH241931   5.552   3.421  17.196 -0.0393  0.5135 -0.8983
 6839TIP3    H141932   5.610   3.481  17.149  1.9027  0.6165  1.4180
 6839TIP3    H241933   5.493   3.479  17.245 -0.5741  0.4477 -1.4570
 6840TIP3   OH241934   2.553   4.338   5.404 -0.3167  0.2586 -0.0303
 6840TIP3    H141935   2.537   4.340   5.498 -2.9225 -2.1755 -0.2841
 6840TIP3    H241936   2.648   4.325   5.395 -0.1439 -0.4739  2.2843
 6841TIP3   OH241937   5.352   4.203  13.094  0.1883 -0.1457  0.7116
 6841TIP3    H141938   5.258   4.205  13.109 -0.4177  4.1760 -1.9284
 6841TIP3    H241939   5.385   4.283  13.136  2.4955 -0.8652  0.4349
 6842TIP3   OH241940   5.686   1.085  16.475  0.2557 -0.0964 -0.7094
 6842TIP3    H141941   5.648   1.026  16.409 -0.8635  1.2774 -1.3652
 6842TIP3    H241942   5.741   1.145  16.424  2.8384 -1.5913  0.1485
 6843TIP3   OH241943   5.763   3.126  13.531 -0.5787  0.2619 -1.1585
 6843TIP3    H141944   5.785   3.215  13.557  2.3920 -1.0930  1.7708
 6843TIP3    H241945   5.670   3.116  13.554 -0.5525  2.1387 -0.0536
 6844TIP3   OH241946   6.508   4.740  12.453 -0.6260  0.1169  0.1588
 6844TIP3    H141947   6.417   4.745  12.425 -0.3652 -1.1824 -1.0009
 6844TIP3    H241948   6.555   4.800  12.395 -0.7433  0.9250  0.8733
 6845TIP3   OH241949   2.387   6.165  14.294  0.1302  0.0282 -0.3373
 6845TIP3    H141950   2.298   6.149  14.261  0.2889 -0.0811 -0.7171
 6845TIP3    H241951   2.411   6.250  14.258  0.5566 -0.3873 -1.0645
 6846TIP3   OH241952   4.884   6.317  15.607 -0.1556  0.2112  0.3941
 6846TIP3    H141953   4.861   6.259  15.680 -1.4934 -1.2023 -1.0863
 6846TIP3    H241954   4.979   6.307  15.598 -0.4989 -3.3316 -0.9954
 6847TIP3   OH241955   1.809   5.340   2.735  0.0469 -0.0079  0.3410
 6847TIP3    H141956   1.850   5.257   2.711  1.9276  0.1108  2.7282
 6847TIP3    H241957   1.853   5.405   2.681 -0.0592 -0.3500 -0.1604
 6848TIP3   OH241958   6.019   6.448   2.288  0.1694 -0.4930 -0.2896
 6848TIP3    H141959   6.086   6.459   2.220  0.3509 -0.8934 -0.1734
 6848TIP3    H241960   5.999   6.538   2.316 -0.5445 -0.2589 -1.4922
 6849TIP3   OH241961   1.483   4.623   3.974  0.2743  0.3013  0.0271
 6849TIP3    H141962   1.430   4.617   3.895  1.3145  0.1114 -0.6730
 6849TIP3    H241963   1.436   4.685   4.030 -1.3644 -0.8472 -0.0186
 6850TIP3   OH241964   6.114   4.778   5.075 -0.1168  0.1828 -0.2604
 6850TIP3    H141965   6.162   4.851   5.036 -1.1180  0.7735 -0.4329
 6850TIP3    H241966   6.099   4.804   5.166 -0.9035  0.4420 -0.4489
 6851TIP3   OH241967   2.100   2.773  14.414 -0.1196  0.2511 -0.2308
 6851TIP3    H141968   2.061   2.826  14.344 -0.3709 -1.0760 -1.1458
 6851TIP3    H241969   2.191   2.763  14.388 -0.4323 -1.0473 -0.9196
 6852TIP3   OH241970   6.014   4.648   1.054  0.5290  0.2171 -0.0798
 6852TIP3    H141971   6.068   4.654   0.975  2.0466  1.5646  0.9981
 6852TIP3    H241972   6.069   4.685   1.123 -0.4260 -1.7079  1.8007
 6853TIP3   OH241973   0.359   6.009  14.097  0.4210 -0.2130  0.2160
 6853TIP3    H141974   0.409   6.025  14.177  1.2522 -0.4898 -0.2329
 6853TIP3    H241975   0.407   6.057  14.029 -1.2264  1.4619  0.1535
 6854TIP3   OH241976   3.338   0.478   2.181 -0.1390  0.0552 -0.3803
 6854TIP3    H141977   3.265   0.533   2.209 -0.7887 -1.3583  0.8167
 6854TIP3    H241978   3.370   0.438   2.262  0.5863 -1.0057 -1.1691
 6855TIP3   OH241979   6.535   3.586  13.453  0.6034 -0.1819  0.6007
 6855TIP3    H141980   6.463   3.577  13.390 -0.7341  0.3360  2.0038
 6855TIP3    H241981   6.543   3.499  13.492  0.0257  0.0059  1.1610
 6856TIP3   OH241982   6.485   5.595   2.040  0.2107 -0.1593 -0.0599
 6856TIP3    H141983   6.555   5.605   1.975 -0.1776  1.1521 -0.3070
 6856TIP3    H241984   6.484   5.679   2.086 -1.3696 -0.0567 -0.2322
 6857TIP3   OH241985   1.438   2.095  15.797 -0.3551  0.3613  0.3649
 6857TIP3    H141986   1.356   2.122  15.757  0.6539  4.2631  0.5256
 6857TIP3    H241987   1.469   2.024  15.741 -3.1285 -0.3039 -0.4911
 6858TIP3   OH241988   3.297   2.317  11.237 -0.2505  0.1826 -0.1362
 6858TIP3    H141989   3.298   2.349  11.327 -0.8335  0.7033 -0.3083
 6858TIP3    H241990   3.326   2.392  11.184  0.0041 -0.0921 -0.3889
 6859TIP3   OH241991   1.945   1.162  10.947  0.4640  0.6919  0.1240
 6859TIP3    H141992   1.901   1.244  10.970  0.4373  1.4500 -2.2993
 6859TIP3    H241993   1.878   1.112  10.901  0.7330 -0.3135  0.8174
 6860TIP3   OH241994   1.387   1.564  16.430 -0.1292  0.7136 -0.2839
 6860TIP3    H141995   1.374   1.607  16.346  1.9492  1.2282 -0.4007
 6860TIP3    H241996   1.382   1.635  16.494 -0.3899  0.5300 -0.0988
 6861TIP3   OH241997   5.098   6.520  13.074  0.3328  0.2879 -0.2154
 6861TIP3    H141998   5.119   6.449  13.135  0.4858  0.9644  0.5398
 6861TIP3    H241999   5.181   6.567  13.064  0.7218 -0.7121 -2.1896
 6862TIP3   OH242000   3.014   2.854  16.105  0.3794 -0.2459 -0.4722
 6862TIP3    H142001   2.930   2.898  16.102  0.0531 -0.7312  0.6905
 6862TIP3    H242002   3.029   2.822  16.016 -0.7127 -0.2279 -0.6684
 6863TIP3   OH242003   0.926   6.758   4.223  0.8553  0.2748 -0.6429
 6863TIP3    H142004   0.994   6.698   4.193  1.4941  0.9541 -0.5887
 6863TIP3    H242005   0.866   6.767   4.149  2.4443  1.9886 -1.8280
 6864TIP3   OH242006   1.609   1.885  12.695 -0.7809  0.7395  0.1104
 6864TIP3    H142007   1.590   1.975  12.719 -1.3469  0.6271  0.1123
 6864TIP3    H242008   1.648   1.890  12.608 -0.5924  1.0023  0.2118
 6865TIP3   OH242009   4.198   0.818   2.497 -0.4585 -0.1858  0.1803
 6865TIP3    H142010   4.179   0.838   2.589 -1.1324  2.3116 -0.4204
 6865TIP3    H242011   4.156   0.889   2.449  0.4273 -1.0989 -2.0340
 6866TIP3   OH242012   1.691   2.640   0.371 -0.0641  0.5765  0.5354
 6866TIP3    H142013   1.632   2.709   0.341  0.3959  0.3347 -0.9981
 6866TIP3    H242014   1.764   2.643   0.309  0.2752 -0.8376  0.8479
 6867TIP3   OH242015   0.528   2.427   0.144  0.0833  0.4455 -0.1128
 6867TIP3    H142016   0.508   2.336   0.121 -1.9007  0.7693  0.1165
 6867TIP3    H242017   0.620   2.437   0.123  0.1700 -1.4070 -0.8536
 6868TIP3   OH242018   1.042   0.075   5.782 -0.1746  0.0019  0.1154
 6868TIP3    H142019   1.103   0.110   5.846 -0.8016  0.9848  0.1846
 6868TIP3    H242020   1.025   0.148   5.723 -1.4942 -0.1812  0.2571
 6869TIP3   OH242021   1.212   5.161   1.607  0.2942  0.5947  0.0730
 6869TIP3    H142022   1.170   5.136   1.689 -1.3558 -0.3183 -0.9809
 6869TIP3    H242023   1.194   5.254   1.598 -1.6383  0.2334 -0.3455
 6870TIP3   OH242024   4.984   2.733  11.456  0.1614 -0.0419 -0.3912
 6870TIP3    H142025   5.004   2.797  11.524  3.1173 -1.6402  0.4265
 6870TIP3    H242026   5.050   2.749  11.388 -1.1048 -0.1683 -1.6961
 6871TIP3   OH242027   3.354   1.613   3.633 -0.4028 -0.7983 -0.0193
 6871TIP3    H142028   3.271   1.614   3.680 -0.0310 -1.0227  0.6565
 6871TIP3    H242029   3.419   1.638   3.698 -0.0526  0.3440 -0.7773
 6872TIP3   OH242030   0.008   3.473   0.073 -0.1009 -0.0554  0.0991
 6872TIP3    H142031   0.029   3.405   0.009  0.6042 -0.8342  1.1165
 6872TIP3    H242032   0.046   3.553   0.037  1.3604 -0.7205  0.1116
 6873TIP3   OH242033   0.684   5.891  14.578 -0.1442  0.1026 -0.1323
 6873TIP3    H142034   0.630   5.866  14.503 -1.3856  1.3674  0.2961
 6873TIP3    H242035   0.647   5.842  14.651  0.0330  0.1000 -0.0445
 6874TIP3   OH242036   6.002   1.273   0.149 -0.4654  0.1915  0.6795
 6874TIP3    H142037   5.943   1.204   0.120  0.6888 -1.1823  1.4067
 6874TIP3    H242038   6.009   1.332   0.075 -0.4240 -1.2336 -0.4975
 6875TIP3   OH242039   4.050   5.745   2.159  0.5064  0.4758 -0.3085
 6875TIP3    H142040   4.059   5.795   2.240 -0.9610  1.1203 -0.5055
 6875TIP3    H242041   4.075   5.656   2.183 -1.4178  0.2965  1.3076
 6876TIP3   OH242042   5.930   3.596  15.700  0.0386  0.5235 -0.3501
 6876TIP3    H142043   5.999   3.649  15.660  1.1080 -0.8256 -0.4147
 6876TIP3    H242044   5.937   3.511  15.656 -0.1838 -0.3325  1.1682
 6877TIP3   OH242045   6.710   1.107  11.274  0.5377  0.3370 -0.2809
 6877TIP3    H142046   6.646   1.174  11.297  0.7967  0.7031 -0.6210
 6877TIP3    H242047   6.735   1.127  11.184  1.5809  0.5584  0.0445
 6878TIP3   OH242048   5.691   0.668  11.507  0.3032  0.4433  0.0595
 6878TIP3    H142049   5.785   0.688  11.511  0.0423  2.2351 -1.3581
 6878TIP3    H242050   5.684   0.602  11.437  0.2581  2.9387 -2.4996
 6879TIP3   OH242051   5.357   5.103   0.601 -0.1169  0.2691  0.6728
 6879TIP3    H142052   5.421   5.039   0.572 -0.4026  0.3048 -0.0712
 6879TIP3    H242053   5.289   5.052   0.645 -0.5063  0.0119 -0.2047
 6880TIP3   OH242054   1.695   3.301   2.669  0.4628 -0.6395  0.3407
 6880TIP3    H142055   1.660   3.273   2.754 -3.3415 -0.6906 -1.0495
 6880TIP3    H242056   1.759   3.235   2.646 -0.3758 -2.1162  2.0290
 6881TIP3   OH242057   0.076   1.392   2.195 -0.1294 -0.4668 -0.3367
 6881TIP3    H142058   0.150   1.388   2.134 -0.8534  0.2708 -1.2804
 6881TIP3    H242059   0.008   1.439   2.148 -0.9617 -0.5014  0.7898
 6882TIP3   OH242060   2.867   2.127  15.330  0.3710  0.5301  0.5665
 6882TIP3    H142061   2.919   2.171  15.262 -1.7610 -0.2569 -1.6986
 6882TIP3    H242062   2.792   2.091  15.283 -0.6344 -1.0449  3.2084
 6883TIP3   OH242063   4.350   2.215  14.743  0.1116  0.0849 -0.0647
 6883TIP3    H142064   4.326   2.228  14.835  0.2428  1.2246 -0.1857
 6883TIP3    H242065   4.273   2.243  14.694 -0.2339 -1.2057 -0.2962
 6884TIP3   OH242066   2.424   4.714   4.898 -0.3438 -0.3045  0.6500
 6884TIP3    H142067   2.332   4.730   4.917  0.0018  2.4365  0.4434
 6884TIP3    H242068   2.461   4.801   4.884  1.6534 -1.4517 -2.2747
 6885TIP3   OH242069   1.812   4.977  11.575 -0.1043  0.4278  1.0507
 6885TIP3    H142070   1.732   4.985  11.523  0.2359 -1.2813  0.2076
 6885TIP3    H242071   1.879   5.022  11.522  0.4847 -2.2328 -0.6590
 6886TIP3   OH242072   0.039   2.765   5.394  0.2564  0.3709  0.5215
 6886TIP3    H142073   0.092   2.724   5.462 -0.3474  0.3783  1.0138
 6886TIP3    H242074   0.014   2.692   5.336 -0.8239  0.0109  1.4019
 6887TIP3   OH242075   1.924   4.837  10.659  0.5004  0.3129 -0.6561
 6887TIP3    H142076   1.863   4.840  10.733  1.0008 -2.7411  0.0324
 6887TIP3    H242077   1.983   4.910  10.673 -0.0155  0.3917  1.4440
 6888TIP3   OH242078   0.906   1.865  16.549 -0.1586 -0.7004  0.1968
 6888TIP3    H142079   0.822   1.852  16.594 -1.0609  0.5783 -1.0341
 6888TIP3    H242080   0.951   1.780  16.558 -1.0775 -1.0593  1.8472
 6889TIP3   OH242081   2.916   6.595  11.936  0.2953  0.1036  0.1996
 6889TIP3    H142082   2.960   6.652  11.874  0.2314  1.5409  1.4140
 6889TIP3    H242083   2.824   6.595  11.909 -0.3008  2.9609  1.7557
 6890TIP3   OH242084   0.103   5.411   6.512  0.4664  0.1168  0.2998
 6890TIP3    H142085   0.168   5.446   6.573 -0.6338  0.8926  1.0638
 6890TIP3    H242086   0.151   5.348   6.459  1.4231 -0.7763  2.1437
 6891TIP3   OH242087   5.377   1.560   5.060 -0.4716 -0.5545  0.0402
 6891TIP3    H142088   5.465   1.542   5.096  0.7230  3.0339 -0.7104
 6891TIP3    H242089   5.386   1.544   4.966 -0.4829  0.1521 -0.0882
 6892TIP3   OH242090   1.284   1.287   2.997  0.4140  0.0403 -0.2981
 6892TIP3    H142091   1.329   1.365   3.028  1.1063 -0.1186 -0.8704
 6892TIP3    H242092   1.303   1.284   2.903 -0.7159 -0.0884 -0.5293
 6893TIP3   OH242093   0.998   1.465   0.568 -0.4628 -0.1869 -0.2639
 6893TIP3    H142094   1.016   1.559   0.565  4.4658 -0.8345  0.0649
 6893TIP3    H242095   1.003   1.436   0.477 -1.3730 -0.2155 -0.3062
 6894TIP3   OH242096   1.832   4.309   5.182  0.0353  0.5288  0.7092
 6894TIP3    H142097   1.788   4.254   5.246 -0.0662  1.2997  1.3140
 6894TIP3    H242098   1.824   4.398   5.216  0.1623  0.9328 -0.2670
 6895TIP3   OH242099   6.070   6.255   5.319  0.3945  0.3938  0.3230
 6895TIP3    H142100   6.144   6.195   5.329  0.3499  0.3132  0.1838
 6895TIP3    H242101   6.045   6.278   5.408 -0.1674 -0.5111  0.4182
 6896TIP3   OH242102   5.314   5.140   4.656 -0.1712  0.6831 -0.3714
 6896TIP3    H142103   5.239   5.085   4.637 -0.1584 -0.1553  1.7135
 6896TIP3    H242104   5.387   5.101   4.607 -0.6237  0.1402 -0.6122
 6897TIP3   OH242105   1.365   4.535  12.096  0.1023 -0.6588 -0.3364
 6897TIP3    H142106   1.448   4.515  12.140 -0.1861  0.2857  0.6956
 6897TIP3    H242107   1.343   4.623  12.126 -0.7762 -0.4943 -1.3942
 6898TIP3   OH242108   1.007   2.478  14.598 -0.1970  0.2617 -0.1167
 6898TIP3    H142109   1.045   2.562  14.622 -2.4120  1.3606 -0.1919
 6898TIP3    H242110   1.078   2.415  14.609  1.3821  2.0595  0.4173
 6899TIP3   OH242111   1.079   2.830  11.971 -0.0648  0.0780 -0.5170
 6899TIP3    H142112   1.047   2.807  12.058 -2.2655 -0.4820 -1.3951
 6899TIP3    H242113   1.081   2.926  11.971  3.6116  0.1655  1.2836
 6900TIP3   OH242114   3.334   0.262  11.932  0.0198 -0.0377 -0.1930
 6900TIP3    H142115   3.334   0.233  12.023 -0.3357  0.1583 -0.1303
 6900TIP3    H242116   3.365   0.353  11.935  0.4225 -0.1688 -0.3131
 6901TIP3   OH242117   0.548   4.390  12.686  0.1159 -0.0867  0.1292
 6901TIP3    H142118   0.508   4.328  12.747  0.1232 -0.5677 -0.3443
 6901TIP3    H242119   0.481   4.403  12.619 -0.1022  0.8599  0.5104
 6902TIP3   OH242120   5.121   6.421  14.558  0.1218 -0.5151  0.3571
 6902TIP3    H142121   5.202   6.463  14.530 -1.1169  0.3354 -2.1666
 6902TIP3    H242122   5.075   6.489  14.608  0.1835 -0.3995  0.2584
 6903TIP3   OH242123   3.701   2.857  12.807  0.4898 -0.3663 -0.0937
 6903TIP3    H142124   3.729   2.823  12.722  0.4559 -1.3773  0.2847
 6903TIP3    H242125   3.776   2.908  12.839  0.8966 -0.8633 -0.2563
 6904TIP3   OH242126   3.299   2.578  14.676  0.4242 -0.3230 -0.4106
 6904TIP3    H142127   3.310   2.672  14.662 -0.4258 -0.6077 -4.0661
 6904TIP3    H242128   3.386   2.541  14.662  0.5035 -0.1863 -0.2793
 6905TIP3   OH242129   0.453   4.279   2.142  0.0301  0.1559  0.1070
 6905TIP3    H142130   0.524   4.339   2.119  1.3457 -1.2622  0.2930
 6905TIP3    H242131   0.441   4.224   2.064 -0.3607 -0.0953  0.3380
 6906TIP3   OH242132   4.147   1.035   5.354 -0.1172 -0.2472 -0.2103
 6906TIP3    H142133   4.170   0.942   5.362 -0.4311 -0.4421 -1.3731
 6906TIP3    H242134   4.208   1.069   5.289 -0.6126  0.1395 -0.4766
 6907TIP3   OH242135   0.455   3.342  16.248  0.3222 -0.5462 -0.1845
 6907TIP3    H142136   0.414   3.260  16.221  0.9699 -1.0792  0.4078
 6907TIP3    H242137   0.524   3.356  16.184 -1.2151  0.7537 -1.6400
 6908TIP3   OH242138   5.391   2.469  16.386 -0.1902 -0.2177  0.4991
 6908TIP3    H142139   5.433   2.533  16.444 -1.0174 -0.4293  1.3525
 6908TIP3    H242140   5.424   2.491  16.299  0.2151  0.8247  0.8941
 6909TIP3   OH242141   0.869   2.852  16.170 -0.3353 -0.1578 -0.3391
 6909TIP3    H142142   0.808   2.782  16.192 -0.7066 -0.1524 -1.2971
 6909TIP3    H242143   0.855   2.868  16.076  0.5351  0.4267 -0.3869
 6910TIP3   OH242144   4.960   4.461   0.880 -0.4853 -0.2105  0.1010
 6910TIP3    H142145   4.905   4.494   0.809 -0.8640 -1.2438 -0.1049
 6910TIP3    H242146   4.903   4.400   0.928  0.7149 -2.0358 -0.6842
 6911TIP3   OH242147   5.893   0.762   1.037 -0.5527 -0.3184 -0.1865
 6911TIP3    H142148   5.951   0.756   1.113  1.2214 -0.3452 -1.4890
 6911TIP3    H242149   5.887   0.855   1.018 -0.7771 -0.3313 -0.1816
 6912TIP3   OH242150   6.417   2.914   2.399  0.7289 -0.4272 -0.1437
 6912TIP3    H142151   6.486   2.969   2.362  0.0057  1.3356  0.9751
 6912TIP3    H242152   6.447   2.894   2.488  0.3005 -0.5894 -0.0311
 6913TIP3   OH242153   5.793   4.609  13.348  0.0168  0.0498 -0.2610
 6913TIP3    H142154   5.758   4.600  13.437 -1.4831 -1.5658 -0.9508
 6913TIP3    H242155   5.866   4.671  13.357 -1.6905  1.9477  1.6256
 6914TIP3   OH242156   5.166   0.487   2.488  0.4278 -0.4616  0.2913
 6914TIP3    H142157   5.246   0.459   2.445 -0.9440 -0.8456 -2.1963
 6914TIP3    H242158   5.169   0.583   2.484 -0.0511 -0.4827 -1.5534
 6915TIP3   OH242159   3.537   2.923   0.041  0.6371  0.3024 -0.3107
 6915TIP3    H142160   3.616   2.976   0.056 -0.1503  1.1384  1.0844
 6915TIP3    H242161   3.523   2.877   0.124 -0.1354 -0.1057 -0.6598
 6916TIP3   OH242162   1.109   2.631  14.007 -0.0612 -0.0592 -0.4271
 6916TIP3    H142163   1.058   2.659  13.932 -0.8640  1.0272  0.4917
 6916TIP3    H242164   1.119   2.710  14.061  0.8869 -0.6993  0.3912
 6917TIP3   OH242165   6.532   4.348  16.685  0.1874  0.5858 -0.6026
 6917TIP3    H142166   6.628   4.348  16.677  0.2458 -1.2377 -0.2879
 6917TIP3    H242167   6.515   4.390  16.769  0.6876  1.1344 -0.7692
 6918TIP3   OH242168   6.104   6.420  14.777 -0.4672 -0.2814  0.2172
 6918TIP3    H142169   6.066   6.425  14.864  0.1925 -0.5899  0.5345
 6918TIP3    H242170   6.078   6.502  14.734 -2.7415 -1.1112 -0.1301
 6919TIP3   OH242171   5.542   6.715  15.710 -0.0924  0.0559 -0.5234
 6919TIP3    H142172   5.589   6.686  15.789 -2.6978  1.1324  1.5535
 6919TIP3    H242173   5.532   6.635  15.658 -0.9478 -1.3923  1.7235
 6920TIP3   OH242174   5.548   3.475  10.747 -0.2915 -0.5658  0.3821
 6920TIP3    H142175   5.491   3.402  10.773  0.2955 -1.2592 -0.2535
 6920TIP3    H242176   5.632   3.434  10.728 -0.1863  0.1611 -0.8159
 6921TIP3   OH242177   1.352   0.130   2.796 -0.2388 -0.1830  0.0858
 6921TIP3    H142178   1.300   0.159   2.721 -0.4631  1.5269  0.8679
 6921TIP3    H242179   1.292   0.078   2.849 -0.8295  0.7674  0.3681
 6922TIP3   OH242180   2.955   0.863   4.280 -0.1394 -0.2874  0.3879
 6922TIP3    H142181   2.981   0.783   4.234 -0.5507 -0.0789 -0.2148
 6922TIP3    H242182   2.895   0.907   4.220 -0.1454  0.3318  0.8392
 6923TIP3   OH242183   4.807   2.585  15.678  0.4274 -0.0987 -0.5722
 6923TIP3    H142184   4.841   2.594  15.767  0.4786 -1.1440 -0.4822
 6923TIP3    H242185   4.795   2.491  15.666 -1.4669  0.1490 -0.9628
 6924TIP3   OH242186   6.156   6.343  17.202  0.2400  0.1011 -0.0742
 6924TIP3    H142187   6.200   6.334  17.117 -0.6031 -0.7149 -0.4474
 6924TIP3    H242188   6.063   6.342  17.180 -0.0315 -1.4283  0.9505
 6925TIP3   OH242189   1.126   1.538  15.635  0.6538 -0.2326  0.3871
 6925TIP3    H142190   1.121   1.599  15.709  0.8274 -1.2423  1.2575
 6925TIP3    H242191   1.035   1.526  15.607  0.5327 -0.2463  0.7829
 6926TIP3   OH242192   2.468   5.174  13.693  0.0548 -0.2704 -0.1837
 6926TIP3    H142193   2.385   5.148  13.732 -1.6087  2.3451 -1.6599
 6926TIP3    H242194   2.474   5.268  13.708  1.5577  0.0391 -2.1997
 6927TIP3   OH242195   1.857   2.472   0.679 -0.7011  0.3546  0.1257
 6927TIP3    H142196   1.769   2.481   0.642 -0.4054  0.4360 -0.5826
 6927TIP3    H242197   1.876   2.557   0.717 -0.1974  0.9485 -1.3912
 6928TIP3   OH242198   5.990   6.701   5.621  0.2895  0.4371  0.7548
 6928TIP3    H142199   6.024   6.783   5.657  0.3495  0.6174  0.2829
 6928TIP3    H242200   6.066   6.643   5.617  0.4459  0.6762  0.1758
 6929TIP3   OH242201   0.812   1.613  14.222  0.3597  0.2722 -1.2930
 6929TIP3    H142202   0.823   1.610  14.126  0.3373  3.0482 -1.4467
 6929TIP3    H242203   0.898   1.635  14.255  0.0603  0.6943 -0.7871
 6930TIP3   OH242204   3.083   2.652   1.169 -0.0286 -0.1127  0.4982
 6930TIP3    H142205   3.008   2.711   1.167 -0.4597 -0.6715 -0.3122
 6930TIP3    H242206   3.141   2.684   1.101  0.6477  0.5320  1.3606
 6931TIP3   OH242207   3.898   4.454   1.335  0.1149 -0.5976 -0.2335
 6931TIP3    H142208   3.828   4.414   1.283  0.6035 -2.0387  0.1719
 6931TIP3    H242209   3.965   4.387   1.341  0.6417  0.0083  1.1449
 6932TIP3   OH242210   2.356   2.829   5.184 -0.0656 -0.3193  0.2899
 6932TIP3    H142211   2.443   2.798   5.158  1.2530  2.0547  1.5144
 6932TIP3    H242212   2.301   2.815   5.107  2.3829  1.6749 -2.0327
 6933TIP3   OH242213   6.298   4.495  11.874 -0.0642  0.1927 -0.1000
 6933TIP3    H142214   6.365   4.551  11.912 -0.2216  0.1818  0.1979
 6933TIP3    H242215   6.342   4.412  11.858 -0.2400 -0.1217  0.9738
 6934TIP3   OH242216   3.472   0.158   4.313 -0.1984  0.4656  1.1118
 6934TIP3    H142217   3.492   0.085   4.372  2.0217 -0.3188 -0.4904
 6934TIP3    H242218   3.409   0.211   4.362  0.2198 -1.0347  3.4612
 6935TIP3   OH242219   5.574   4.060  11.685 -0.0465 -0.5744 -0.0221
 6935TIP3    H142220   5.521   4.061  11.605 -0.6938  0.4832  0.4048
 6935TIP3    H242221   5.632   3.985  11.673 -1.5713 -1.7322 -0.5301
 6936TIP3   OH242222   2.341   4.301  11.256  0.6449 -0.9228  0.1577
 6936TIP3    H142223   2.357   4.295  11.350 -1.6873  0.8314  0.7560
 6936TIP3    H242224   2.414   4.353  11.223 -0.5186  1.9236  1.7556
 6937TIP3   OH242225   4.154   6.517   5.642  0.5588 -0.0773 -0.0220
 6937TIP3    H142226   4.112   6.602   5.652  0.8164  0.3416 -2.0150
 6937TIP3    H242227   4.131   6.490   5.553  1.8127 -1.3501  0.0114
 6938TIP3   OH242228   1.410   5.781  12.068  0.1224  0.0377 -0.0452
 6938TIP3    H142229   1.333   5.725  12.084 -0.9546  1.4027 -0.2428
 6938TIP3    H242230   1.471   5.724  12.020 -1.2294 -0.7828 -0.8673
 6939TIP3   OH242231   2.695   3.802   0.007 -0.1336 -0.2183  0.3388
 6939TIP3    H142232   2.668   3.891  -0.015 -2.1736 -1.5949 -3.7495
 6939TIP3    H242233   2.653   3.784   0.091 -2.0850  1.7654 -0.1269
 6940TIP3   OH242234   2.091   5.967  17.004  0.2465 -0.4183  0.4851
 6940TIP3    H142235   2.037   6.044  17.023  0.6432 -0.1597  0.6072
 6940TIP3    H242236   2.037   5.892  17.027 -1.0301 -0.2878 -1.8397
 6941TIP3   OH242237   1.405   3.768  11.834 -0.5461 -0.8048  0.0332
 6941TIP3    H142238   1.413   3.768  11.930 -1.9036 -2.9218  0.2154
 6941TIP3    H242239   1.474   3.709  11.804 -0.4281 -0.5140 -0.2734
 6942TIP3   OH242240   4.741   1.248  15.925 -0.5094 -0.1400  0.8044
 6942TIP3    H142241   4.811   1.250  15.860 -1.5524 -0.0004 -0.3618
 6942TIP3    H242242   4.786   1.256  16.009  0.7520  1.6639  0.0255
 6943TIP3   OH242243   3.336   0.522   5.130  0.6362  0.5638  0.0078
 6943TIP3    H142244   3.358   0.489   5.217 -0.3234 -1.6339 -0.5048
 6943TIP3    H242245   3.282   0.453   5.092 -0.2912  2.1783 -1.7489
 6944TIP3   OH242246   6.700   5.936   2.269 -0.0854 -0.5740  0.6117
 6944TIP3    H142247   6.634   5.912   2.204 -1.0125 -2.6352  2.1607
 6944TIP3    H242248   6.710   6.030   2.260 -1.5780 -0.5253 -1.2011
 6945TIP3   OH242249   3.725   0.800   5.816 -0.5196 -0.0007  0.3860
 6945TIP3    H142250   3.804   0.763   5.776  0.8601  2.2305  0.9319
 6945TIP3    H242251   3.706   0.741   5.889  1.6442  0.3403  1.2894
 6946TIP3   OH242252   2.083   3.563  14.971 -0.6373  0.2067 -0.4029
 6946TIP3    H142253   2.136   3.529  15.043  1.4280 -2.7369 -3.0506
 6946TIP3    H242254   2.011   3.502  14.963 -0.4005  0.0314 -1.3016
 6947TIP3   OH242255   5.712   1.946  16.708  0.0050 -0.3240  0.3719
 6947TIP3    H142256   5.647   1.883  16.679  0.5491 -1.8356  2.2429
 6947TIP3    H242257   5.681   1.977  16.793  1.7783 -1.2819  1.4411
 6948TIP3   OH242258   0.987   6.373  14.196 -0.4529 -0.3212 -0.0368
 6948TIP3    H142259   0.938   6.429  14.256  1.1720  1.3984 -0.2247
 6948TIP3    H242260   0.978   6.415  14.111  0.5885 -0.4295 -0.2228
 6949TIP3   OH242261   4.759   4.420  11.156  0.2436  0.3599  0.4819
 6949TIP3    H142262   4.735   4.451  11.068 -0.2556 -2.2598 -0.4027
 6949TIP3    H242263   4.815   4.489  11.191  0.3216  1.5781 -1.8086
 6950TIP3   OH242264   5.405   1.230   1.772  0.5025  0.4050 -0.1547
 6950TIP3    H142265   5.411   1.136   1.790  1.6640  0.8247  2.0327
 6950TIP3    H242266   5.341   1.262   1.835  1.6278  1.3673  0.5379
 6951TIP3   OH242267   2.931   5.773   6.733 -0.3948  0.2213 -0.1212
 6951TIP3    H142268   3.009   5.817   6.768 -1.4935  2.8696 -0.7974
 6951TIP3    H242269   2.941   5.779   6.638 -1.3497  0.4908 -0.2136
 6952TIP3   OH242270   5.353   1.027  16.091  0.1459  0.3231 -0.1055
 6952TIP3    H142271   5.320   0.986  16.012  0.9812  0.4778 -0.5469
 6952TIP3    H242272   5.330   1.120  16.082  1.8949  0.7139 -1.1048
 6953TIP3   OH242273   3.034   3.064  16.532 -0.1170  0.2910 -0.0229
 6953TIP3    H142274   2.994   3.085  16.448  1.1827  1.3837 -0.4045
 6953TIP3    H242275   3.088   2.986  16.515  0.3351  0.6553 -0.2697
 6954TIP3   OH242276   0.618   0.976  15.959 -0.4702 -0.0310  0.3778
 6954TIP3    H142277   0.619   0.969  15.864 -1.6542 -1.0833  0.4159
 6954TIP3    H242278   0.659   1.060  15.978  1.1688 -0.4722 -0.9806
 6955TIP3   OH242279   1.991   6.180  12.193 -0.3128  0.2605 -0.0475
 6955TIP3    H142280   2.042   6.183  12.273 -0.5723  0.2349  0.1209
 6955TIP3    H242281   1.921   6.244  12.207 -0.8656 -0.3615  0.0987
 6956TIP3   OH242282   4.270   2.509  14.440  0.1638  0.0878 -0.1784
 6956TIP3    H142283   4.349   2.563  14.433  0.6482 -0.6523 -0.5329
 6956TIP3    H242284   4.249   2.511  14.534  0.2693  0.7512 -0.1600
 6957TIP3   OH242285   4.680   0.850  13.190 -0.1467  0.0103 -0.0886
 6957TIP3    H142286   4.766   0.812  13.206 -1.0378 -1.8360  0.6280
 6957TIP3    H242287   4.687   0.940  13.221  1.3426 -0.3007  0.5379
 6958TIP3   OH242288   1.900   6.631   1.188  0.0435 -0.0743  0.2329
 6958TIP3    H142289   1.826   6.633   1.248 -0.7711  0.7112 -0.7661
 6958TIP3    H242290   1.861   6.611   1.103  1.1219 -0.7627 -0.1233
 6959TIP3   OH242291   0.734   6.638  17.061 -0.2619 -0.1240 -0.1557
 6959TIP3    H142292   0.672   6.637  17.133 -0.6622 -0.5513 -0.5042
 6959TIP3    H242293   0.717   6.720  17.015  1.3299  1.1397  1.3740
 6960TIP3   OH242294   1.479   2.837  14.154  0.1197 -0.3506  0.1939
 6960TIP3    H142295   1.521   2.921  14.172  1.3428 -0.4816 -1.7714
 6960TIP3    H242296   1.466   2.836  14.059 -1.3635 -1.7203  0.3645
 6961TIP3   OH242297   5.018   3.755   5.331 -0.3197 -0.0810  0.5072
 6961TIP3    H142298   5.040   3.675   5.379 -1.0013 -0.9748 -0.6276
 6961TIP3    H242299   4.925   3.769   5.350 -0.6153 -0.4887 -0.5902
 6962TIP3   OH242300   4.956   3.771  10.523  0.2526  0.2647 -0.4325
 6962TIP3    H142301   4.868   3.752  10.555 -0.2153  1.7908 -0.7491
 6962TIP3    H242302   4.977   3.856  10.559  1.4165  0.1324 -0.7617
 6963TIP3   OH242303   3.279   0.064   2.623 -0.4663  0.0629 -0.2548
 6963TIP3    H142304   3.278   0.034   2.532 -1.1807 -0.3122 -0.1279
 6963TIP3    H242305   3.365   0.037   2.655 -1.2577 -2.3486 -0.0003
 6964TIP3   OH242306   6.486   4.072  15.604 -0.0956 -0.4446  0.3807
 6964TIP3    H142307   6.508   3.994  15.654 -2.0087 -1.2977 -0.0218
 6964TIP3    H242308   6.568   4.098  15.562  0.5917 -2.2299  0.5534
 6965TIP3   OH242309   4.468   3.829   1.223  0.5161  0.3312 -0.3496
 6965TIP3    H142310   4.391   3.773   1.237  0.2763  0.6188 -0.5072
 6965TIP3    H242311   4.539   3.783   1.267  0.2631  0.0364 -0.2446
 6966TIP3   OH242312   5.665   3.913   3.539 -0.4703 -0.0418  0.8743
 6966TIP3    H142313   5.631   3.947   3.456 -3.5044 -0.7455  1.7149
 6966TIP3    H242314   5.751   3.877   3.516 -1.7240 -1.4595 -2.3219
 6967TIP3   OH242315   4.164   6.278   5.225  0.4601  0.4182 -0.1667
 6967TIP3    H142316   4.106   6.311   5.157  0.6296 -2.4986 -1.8839
 6967TIP3    H242317   4.105   6.247   5.294  0.1807  0.9766 -0.1486
 6968TIP3   OH242318   1.208   2.818   4.719 -0.5312 -0.1345  0.0137
 6968TIP3    H142319   1.236   2.865   4.798 -1.6159 -0.9306  0.9064
 6968TIP3    H242320   1.228   2.726   4.739 -1.7343 -0.4539 -0.2157
 6969TIP3   OH242321   6.383   2.463   1.188  0.6110 -0.6484 -0.0744
 6969TIP3    H142322   6.398   2.435   1.098  0.3788 -0.0606 -0.3000
 6969TIP3    H242323   6.400   2.385   1.240  1.9020 -0.6993 -0.5264
 6970TIP3   OH242324   1.343   6.664   5.838  0.1592 -0.0764 -0.0382
 6970TIP3    H142325   1.329   6.663   5.933  0.3415 -2.0860  0.0129
 6970TIP3    H242326   1.421   6.610   5.825 -1.0527 -1.5550 -1.4912
 6971TIP3   OH242327   4.160   3.365  17.156 -0.6917 -0.1371  0.0683
 6971TIP3    H142328   4.209   3.322  17.086  1.2964 -1.2106  2.0158
 6971TIP3    H242329   4.149   3.455  17.125 -1.2159 -0.9058 -2.2439
 6972TIP3   OH242330   2.376   0.837   2.872  0.2365 -0.7409  0.1143
 6972TIP3    H142331   2.380   0.806   2.782 -0.3414 -2.9232  0.7867
 6972TIP3    H242332   2.399   0.930   2.866  0.9714 -1.0019 -2.1603
 6973TIP3   OH242333   0.260   3.754   3.098 -0.2598  1.1737 -0.0930
 6973TIP3    H142334   0.253   3.764   3.003  1.8901 -0.8155 -0.5305
 6973TIP3    H242335   0.301   3.835   3.128 -0.7802  1.7342 -0.8491
 6974TIP3   OH242336   1.932   0.333  14.796 -0.0100 -0.3616  0.2606
 6974TIP3    H142337   1.976   0.274  14.735 -1.4335 -0.0780 -1.1147
 6974TIP3    H242338   1.907   0.409  14.743  0.0688  0.6014  1.5583
 6975TIP3   OH242339   4.489   4.189   0.625  0.2450  0.6000 -0.4660
 6975TIP3    H142340   4.503   4.241   0.546 -0.0046 -0.9407 -1.5559
 6975TIP3    H242341   4.450   4.107   0.594 -0.3049  0.1431  1.3029
 6976TIP3   OH242342   3.465   2.076  11.327 -0.1832 -0.1078 -0.4160
 6976TIP3    H142343   3.426   2.046  11.245  0.4065 -0.0011 -0.7401
 6976TIP3    H242344   3.462   2.172  11.321 -1.9315 -0.0611  0.5527
 6977TIP3   OH242345   5.413   1.576   0.004  0.1562 -0.3632  0.0860
 6977TIP3    H142346   5.500   1.538  -0.009  1.1043  0.9126  2.2156
 6977TIP3    H242347   5.407   1.645  -0.063  1.4111  0.5020  0.8165
 6978TIP3   OH242348   5.781   4.457  11.243  0.1872 -0.2525 -0.3406
 6978TIP3    H142349   5.698   4.443  11.289  0.7113  0.0000  0.7209
 6978TIP3    H242350   5.755   4.493  11.158 -0.7686  1.0177  0.4337
 6979TIP3   OH242351   3.089   3.952   1.655 -0.8147 -0.0122 -0.5038
 6979TIP3    H142352   3.173   3.970   1.612  0.4257 -0.0217  1.7187
 6979TIP3    H242353   3.032   4.024   1.627  0.8454  1.6303  0.0962
 6980TIP3   OH242354   4.766   2.800  14.629  1.0495 -0.2719  0.5718
 6980TIP3    H142355   4.773   2.706  14.610  1.5988  0.2820 -2.5952
 6980TIP3    H242356   4.683   2.808  14.677  1.3520 -2.4194  1.5738
 6981TIP3   OH242357   1.025   3.028   0.470  0.0909 -0.1743 -0.2409
 6981TIP3    H142358   0.992   3.082   0.542 -1.7857  0.6695 -1.6605
 6981TIP3    H242359   1.115   3.056   0.457  0.1863  0.2515  1.2039
 6982TIP3   OH242360   4.488   5.069  11.739  0.0917  0.4132 -0.1827
 6982TIP3    H142361   4.519   5.016  11.666 -2.1025 -0.3375 -0.6658
 6982TIP3    H242362   4.525   5.156  11.724 -0.6661  0.4048 -2.5033
 6983TIP3   OH242363   6.556   2.351   4.249 -0.1023  0.0559 -0.7404
 6983TIP3    H142364   6.492   2.285   4.227 -0.2391  0.5659 -1.9402
 6983TIP3    H242365   6.604   2.315   4.324 -1.7279 -0.3513  0.1451
 6984TIP3   OH242366   2.894   5.465   3.858  0.2842 -0.4604 -0.0693
 6984TIP3    H142367   2.814   5.413   3.858 -1.0368  1.4835 -0.0754
 6984TIP3    H242368   2.894   5.510   3.774  0.5093  0.8251  0.6014
 6985TIP3   OH242369   1.654   3.666   0.293  0.1056  0.0239  0.8930
 6985TIP3    H142370   1.625   3.574   0.298 -0.9286  0.2907  0.0928
 6985TIP3    H242371   1.629   3.694   0.205  1.6154  0.7019  0.6532
 6986TIP3   OH242372   3.772   3.831   5.601  0.4463 -0.7457 -0.0425
 6986TIP3    H142373   3.694   3.885   5.601  1.0327  0.1741  1.3660
 6986TIP3    H242374   3.740   3.741   5.591 -0.6349 -0.2486 -1.1487
 6987TIP3   OH242375   0.413   0.750   1.349  0.5498 -0.4264 -0.3113
 6987TIP3    H142376   0.390   0.781   1.262  0.8524 -1.6313 -0.8475
 6987TIP3    H242377   0.405   0.827   1.406  4.4030  1.5475 -2.0810
 6988TIP3   OH242378   2.810   0.232   5.855 -0.3507 -0.7208 -0.5037
 6988TIP3    H142379   2.851   0.292   5.917 -1.4036  1.0265 -1.4139
 6988TIP3    H242380   2.858   0.244   5.774 -0.9802 -0.6284 -0.8677
 6989TIP3   OH242381   1.175   3.926  14.763 -0.0665 -0.3080  0.4617
 6989TIP3    H142382   1.171   3.861  14.834 -0.2402  0.4442  1.1619
 6989TIP3    H242383   1.160   4.010  14.807  1.4429  0.3612 -0.2174
 6990TIP3   OH242384   6.191   0.107   0.749 -0.1861  0.2581 -0.6445
 6990TIP3    H142385   6.168   0.199   0.733  0.3377  0.6067  0.4895
 6990TIP3    H242386   6.127   0.078   0.813  0.7062  0.3656  0.3195
 6991TIP3   OH242387   0.496   0.636  14.715  0.5751  0.5548  0.2715
 6991TIP3    H142388   0.537   0.600  14.636 -0.1696 -1.0900  0.6095
 6991TIP3    H242389   0.426   0.692  14.681  0.3306 -0.0552 -0.2445
 6992TIP3   OH242390   4.354   2.921   3.339 -0.3041  0.1408  0.5309
 6992TIP3    H142391   4.264   2.898   3.361 -0.3832 -0.6171 -0.5511
 6992TIP3    H242392   4.404   2.841   3.355  0.2071  0.5721  1.1823
 6993TIP3   OH242393   6.672   5.641   1.850 -0.1710  0.2694 -0.2516
 6993TIP3    H142394   6.671   5.728   1.811 -3.0375  0.3786 -0.1412
 6993TIP3    H242395   6.758   5.635   1.893  0.7598  2.3498 -1.6385
 6994TIP3   OH242396   3.905   5.268  11.397 -0.1736 -0.5731  0.3192
 6994TIP3    H142397   3.983   5.273  11.453  0.7689  0.1314 -0.9811
 6994TIP3    H242398   3.837   5.312  11.448  0.3331 -0.9546  1.3728
 6995TIP3   OH242399   1.812   0.057   2.425 -0.2092 -0.3583  0.3689
 6995TIP3    H142400   1.794   0.060   2.519 -1.9843  1.6236  0.0351
 6995TIP3    H242401   1.789   0.144   2.393  0.8447 -0.8223 -1.8435
 6996TIP3   OH242402   2.725   2.871  14.352 -0.3994  0.1519 -0.4388
 6996TIP3    H142403   2.691   2.815  14.282 -0.7109 -0.9862  0.5823
 6996TIP3    H242404   2.807   2.828  14.378 -0.6592  0.1492  0.3854
 6997TIP3   OH242405   1.971   1.741  16.702 -0.1314  0.0449 -0.0818
 6997TIP3    H142406   1.988   1.698  16.618 -1.1227  2.1528 -1.4441
 6997TIP3    H242407   1.878   1.764  16.698  0.1132  1.3266  1.0486
 6998TIP3   OH242408   5.685   3.619  14.587  0.1001 -0.2672  0.5557
 6998TIP3    H142409   5.596   3.594  14.610  0.5230 -1.4674  0.9554
 6998TIP3    H242410   5.694   3.710  14.617 -1.4989  0.4547 -0.9924
 6999TIP3   OH242411   1.345   1.280   4.732 -0.0337 -0.3171  0.2817
 6999TIP3    H142412   1.429   1.280   4.777 -0.5211  0.0186  1.2083
 6999TIP3    H242413   1.282   1.311   4.797 -0.3594  3.0404 -1.3958
 7000TIP3   OH242414   0.742   5.223  12.618  0.7250  0.2800  0.1787
 7000TIP3    H142415   0.729   5.177  12.701  1.7406  1.0298  0.7761
 7000TIP3    H242416   0.690   5.174  12.555 -1.4917  0.6860  1.5777
 7001TIP3   OH242417   6.531   3.661   5.845 -0.1148 -0.4149  0.3084
 7001TIP3    H142418   6.624   3.687   5.843 -0.3213  0.3207 -0.0540
 7001TIP3    H242419   6.485   3.741   5.869 -0.5847 -1.0195  1.4615
 7002TIP3   OH242420   5.240   3.427  14.220  0.2835  0.0930 -0.5044
 7002TIP3    H142421   5.319   3.440  14.168  0.4516 -1.0968 -0.5679
 7002TIP3    H242422   5.193   3.356  14.175  1.0495 -1.8690  1.6119
 7003TIP3   OH242423   3.439   2.746  14.399  0.1076  0.1146 -0.2672
 7003TIP3    H142424   3.358   2.704  14.369 -0.5512  1.7907 -0.9623
 7003TIP3    H242425   3.411   2.829  14.436  1.4995  0.6310 -0.3006
 7004TIP3   OH242426   6.631   1.699  15.934  0.1445 -0.1767 -0.0426
 7004TIP3    H142427   6.695   1.645  15.886 -1.0340 -1.2553 -0.4560
 7004TIP3    H242428   6.599   1.643  16.004 -0.3634  0.3374  0.1474
 7005TIP3   OH242429   4.738   0.316   0.010 -0.2445  0.2627 -0.1155
 7005TIP3    H142430   4.789   0.393  -0.014  0.1925 -0.3447 -1.2567
 7005TIP3    H242431   4.747   0.258  -0.066 -3.2987  0.4502 -0.7360
 7006TIP3   OH242432   0.463   6.330  17.209  0.3360 -0.3642  0.0526
 7006TIP3    H142433   0.434   6.412  17.248  1.9499  0.1474  0.2681
 7006TIP3    H242434   0.383   6.279  17.198 -0.5430  0.7235  1.0944
 7007TIP3   OH242435   3.074   1.958   3.849 -0.1886  0.3333  0.2122
 7007TIP3    H142436   3.047   2.050   3.854 -1.5360 -0.0573  0.6396
 7007TIP3    H242437   3.045   1.921   3.932  2.9381  0.1411  1.3484
 7008TIP3   OH242438   6.617   3.132  14.841  0.0416 -0.2950  0.3925
 7008TIP3    H142439   6.534   3.137  14.889  0.0352 -0.5911  0.4127
 7008TIP3    H242440   6.652   3.222  14.844 -0.0336 -0.2753  0.8217
 7009TIP3   OH242441   1.194   3.543  14.760 -0.2195  0.1394  0.1335
 7009TIP3    H142442   1.262   3.486  14.725  0.5425  1.0244  0.1214
 7009TIP3    H242443   1.136   3.485  14.810 -1.4055 -1.1730 -2.6033
 7010TIP3   OH242444   6.029   5.260   4.264 -0.0019  0.2874  0.2637
 7010TIP3    H142445   6.041   5.176   4.307 -1.4879 -0.1927 -0.1951
 7010TIP3    H242446   6.057   5.324   4.329  0.6571 -0.5373  0.8069
 7011TIP3   OH242447   3.509   3.399  11.390  0.3338 -0.5221 -0.1100
 7011TIP3    H142448   3.555   3.328  11.346  0.6797 -0.2933 -0.1179
 7011TIP3    H242449   3.498   3.368  11.481  1.0550 -0.3149  0.0482
 7012TIP3   OH242450   6.703   3.996  13.330  0.0973  0.0146  0.3139
 7012TIP3    H142451   6.787   4.040  13.340 -0.9976  1.9469  1.4900
 7012TIP3    H242452   6.716   3.937  13.255  2.3036  0.6562  0.1249
 7013TIP3   OH242453   2.518   0.333  12.396 -0.1699  0.3628  0.5200
 7013TIP3    H142454   2.449   0.279  12.357  0.9655  0.5732 -1.9109
 7013TIP3    H242455   2.482   0.422  12.394 -0.1370  0.3675 -0.0447
 7014TIP3   OH242456   1.762   4.951  10.867  0.4164  0.2576  0.1914
 7014TIP3    H142457   1.698   5.023  10.861 -0.0708 -0.3052 -2.2311
 7014TIP3    H242458   1.726   4.893  10.934 -0.9929  0.5666 -0.2607
 7015TIP3   OH242459   5.725   1.413   2.655  0.1175 -0.5591  0.1301
 7015TIP3    H142460   5.658   1.471   2.691 -0.1594 -1.0709  0.4389
 7015TIP3    H242461   5.695   1.325   2.676 -0.0623 -0.8776 -1.3653
 7016TIP3   OH242462   3.165   2.267   2.872 -0.6764  0.3133 -0.7397
 7016TIP3    H142463   3.173   2.182   2.830 -0.2744  0.3278 -0.6929
 7016TIP3    H242464   3.213   2.327   2.814  1.0934  0.0968  0.4417
 7017TIP3   OH242465   0.908   4.382   2.247 -0.1201 -0.1443 -0.2133
 7017TIP3    H142466   0.937   4.342   2.329 -1.6069 -1.2768 -0.1943
 7017TIP3    H242467   0.880   4.307   2.193 -0.2411  0.6680 -1.3114
 7018TIP3   OH242468   0.317   4.031   3.172 -1.0827 -0.6244 -0.3589
 7018TIP3    H142469   0.350   4.115   3.204  0.2921 -1.1479 -0.3153
 7018TIP3    H242470   0.235   4.052   3.128 -0.4447  0.8431 -0.9146
 7019TIP3   OH242471   2.283   1.281   5.085 -0.2463 -0.3590 -0.4880
 7019TIP3    H142472   2.278   1.222   5.160 -0.2816 -2.0961 -1.7997
 7019TIP3    H242473   2.359   1.336   5.103 -0.2373 -0.7612  0.8003
 7020TIP3   OH242474   4.770   4.742   4.527  0.6167  0.0659  0.5164
 7020TIP3    H142475   4.699   4.801   4.501  0.3103 -0.5681 -0.1217
 7020TIP3    H242476   4.840   4.761   4.465  1.1570  0.9466  1.3700
 7021TIP3   OH242477   5.933   4.150  10.805 -0.0122  1.0169  0.4736
 7021TIP3    H142478   5.965   4.232  10.768 -0.9574  1.1007 -0.1886
 7021TIP3    H242479   5.863   4.123  10.746 -1.5931  1.1671  2.1921
 7022TIP3   OH242480   2.030   4.351  17.111  0.0033 -0.0953  0.1470
 7022TIP3    H142481   2.084   4.393  17.045 -2.4340 -1.2652 -2.8055
 7022TIP3    H242482   2.081   4.275  17.140  1.3914  0.8226  0.1948
 7023TIP3   OH242483   3.162   1.311   5.348  0.2324 -0.0735 -0.3081
 7023TIP3    H142484   3.210   1.228   5.350 -1.3557 -1.0268  2.3174
 7023TIP3    H242485   3.225   1.375   5.379  1.4274 -0.2305 -2.1969
 7024TIP3   OH242486   1.820   6.300   0.751  0.0908 -0.3258  0.0393
 7024TIP3    H142487   1.826   6.379   0.806 -0.9017  0.3220 -0.7582
 7024TIP3    H242488   1.727   6.280   0.747  0.0923 -0.1368 -1.6932
 7025TIP3   OH242489   3.314   3.220   1.697 -0.1969  0.2745  0.0330
 7025TIP3    H142490   3.304   3.315   1.697  0.2931  0.3318 -1.0644
 7025TIP3    H242491   3.236   3.188   1.743 -1.2640  1.1171 -1.1258
 7026TIP3   OH242492   2.307   6.253  12.212 -0.0760 -0.2245 -0.1990
 7026TIP3    H142493   2.246   6.198  12.261  0.7237 -0.5135  0.5097
 7026TIP3    H242494   2.267   6.340  12.212 -0.6293 -0.4768 -0.0159
 7027TIP3   OH242495   6.783   4.882  17.108  0.1853  0.1291  0.4584
 7027TIP3    H142496   6.849   4.818  17.083 -0.2317 -1.0060  2.1248
 7027TIP3    H242497   6.812   4.964  17.068  1.7299 -0.6841 -0.1452
 7028TIP3   OH242498   3.211   6.645   6.288 -0.4044  0.5274 -0.4130
 7028TIP3    H142499   3.198   6.592   6.210  0.1071 -4.5435  2.4932
 7028TIP3    H242500   3.125   6.651   6.328 -0.3086  1.1764 -0.2987
 7029TIP3   OH242501   0.731   4.690  13.326 -0.1687  0.2143 -0.2955
 7029TIP3    H142502   0.659   4.653  13.274 -2.5811  3.3036  0.5408
 7029TIP3    H242503   0.692   4.705  13.412  2.3771 -0.5249  1.0604
 7030TIP3   OH242504   6.366   0.168  13.005  0.1678 -0.1856  0.2984
 7030TIP3    H142505   6.392   0.260  13.015  0.0405 -0.1618  0.4040
 7030TIP3    H242506   6.446   0.118  13.024  0.2443 -0.0970  0.2144
 7031TIP3   OH242507   1.982   4.160  11.722 -1.2395  0.4250  0.2769
 7031TIP3    H142508   2.030   4.206  11.653 -0.8295 -0.6848 -0.2032
 7031TIP3    H242509   2.034   4.081  11.738 -2.5328 -0.4550  0.2548
 7032TIP3   OH242510   6.275   3.919   1.584 -0.5879  0.7054  0.3225
 7032TIP3    H142511   6.265   4.006   1.621 -0.5817  0.5213  0.7630
 7032TIP3    H242512   6.196   3.872   1.610  0.2161  0.0236  1.6439
 7033TIP3   OH242513   5.715   3.268   2.908 -0.8276  0.5696  0.5380
 7033TIP3    H142514   5.688   3.215   2.983 -1.8450  0.2569 -0.0341
 7033TIP3    H242515   5.802   3.301   2.933 -0.5211 -0.6789  1.2650
 7034TIP3   OH242516   1.987   1.805   0.445 -0.1642 -0.3046 -0.1901
 7034TIP3    H142517   2.019   1.766   0.527 -0.6675  0.8524  0.5753
 7034TIP3    H242518   1.902   1.764   0.431 -0.7629  0.5963  0.6966
 7035TIP3   OH242519   2.922   3.793  11.356 -0.4608 -0.8687  0.1665
 7035TIP3    H142520   2.897   3.859  11.420 -1.3188 -0.3924 -0.6245
 7035TIP3    H242521   2.892   3.829  11.272  1.9135 -0.7813 -0.7254
 7036TIP3   OH242522   1.332   6.380   4.921  0.2412  0.1465 -0.0253
 7036TIP3    H142523   1.363   6.406   4.833  0.6154  0.6783  0.2527
 7036TIP3    H242524   1.285   6.299   4.907  1.4443 -0.4949 -0.5397
 7037TIP3   OH242525   6.707   5.947  16.735 -0.1189 -0.6076 -0.0049
 7037TIP3    H142526   6.616   5.979  16.732  0.7312  2.5376  2.3036
 7037TIP3    H242527   6.738   5.958  16.645 -1.6636 -0.4975 -0.5594
 7038TIP3   OH242528   4.928   2.248   0.133  0.6454  0.0085 -0.3662
 7038TIP3    H142529   4.853   2.281   0.084  0.7112 -1.0970 -1.2746
 7038TIP3    H242530   4.942   2.312   0.203 -1.6589 -0.1968  0.3632
 7039TIP3   OH242531   6.017   4.587   4.403 -0.0453 -0.1329  0.0048
 7039TIP3    H142532   5.936   4.637   4.389  0.0048  0.0438  0.3329
 7039TIP3    H242533   5.990   4.496   4.393  0.1056 -0.0021 -1.7639
 7040TIP3   OH242534   2.848   6.205   2.449  0.1333 -0.0298  0.7246
 7040TIP3    H142535   2.905   6.147   2.499  0.2814 -0.3980  0.1427
 7040TIP3    H242536   2.771   6.151   2.428 -0.4355  0.4594  1.4973
 7041TIP3   OH242537   4.179   6.667   5.169 -0.0478 -0.7183  0.0049
 7041TIP3    H142538   4.148   6.590   5.121 -1.1229 -0.7180  0.6598
 7041TIP3    H242539   4.203   6.634   5.255  0.3933 -0.4671 -0.0158
 7042TIP3   OH242540   2.787   6.469  13.381 -0.0503  0.1000  0.3207
 7042TIP3    H142541   2.827   6.395  13.335  1.0707  1.9126 -1.8477
 7042TIP3    H242542   2.699   6.476  13.343  0.7382  1.3586 -1.3814
 7043TIP3   OH242543   0.200   3.324  13.424  0.0512 -0.1422 -0.7440
 7043TIP3    H142544   0.283   3.285  13.451 -0.6376 -1.0251  0.1797
 7043TIP3    H242545   0.162   3.261  13.363 -0.2890 -0.1204 -0.5602
 7044TIP3   OH242546   0.858   6.250   4.540 -0.2872  0.4991 -0.2016
 7044TIP3    H142547   0.786   6.220   4.485  0.1517  0.6803 -0.8824
 7044TIP3    H242548   0.824   6.244   4.630 -1.3550  1.1278 -0.5465
 7045TIP3   OH242549   6.383   4.885   5.171 -0.1917 -0.0340 -0.3447
 7045TIP3    H142550   6.337   4.955   5.124  0.4846 -0.3705 -1.5427
 7045TIP3    H242551   6.403   4.923   5.256  0.0222  1.1879 -0.9131
 7046TIP3   OH242552   0.796   0.481   1.606 -0.0441 -0.5741 -0.4217
 7046TIP3    H142553   0.873   0.433   1.637  0.8320 -0.9146 -2.9017
 7046TIP3    H242554   0.724   0.447   1.658  1.2179 -1.4809  0.8149
 7047TIP3   OH242555   0.948   2.287   2.190  0.2200 -0.2331 -0.1361
 7047TIP3    H142556   0.947   2.191   2.195 -0.5652 -0.3571 -1.8407
 7047TIP3    H242557   0.919   2.306   2.101 -0.0996  1.6101  0.3249
 7048TIP3   OH242558   6.390   3.077  11.040 -0.4410  0.3721 -0.4834
 7048TIP3    H142559   6.484   3.080  11.027 -0.3142 -2.2928 -0.9177
 7048TIP3    H242560   6.379   3.042  11.129 -1.0014  0.3440 -0.5568
 7049TIP3   OH242561   3.597   6.150   1.708  0.1333  0.3015 -0.1719
 7049TIP3    H142562   3.669   6.171   1.648  1.6622 -3.2746  0.1795
 7049TIP3    H242563   3.625   6.186   1.792  2.5210 -2.4043  0.3568
 7050TIP3   OH242564   2.831   0.568   6.064 -0.4058 -0.1180  1.4054
 7050TIP3    H142565   2.867   0.617   5.990 -0.3477 -2.9155 -0.5955
 7050TIP3    H242566   2.741   0.600   6.072  0.1745  1.5928  1.4528
 7051TIP3   OH242567   6.544   0.831   5.167 -1.1882 -0.3168 -0.2773
 7051TIP3    H142568   6.635   0.841   5.140 -1.0966 -0.9587 -0.2198
 7051TIP3    H242569   6.546   0.832   5.263 -0.9769 -2.3217 -0.2148
 7052TIP3   OH242570   1.511   0.929   6.262 -0.5398  0.1948  0.0439
 7052TIP3    H142571   1.472   0.854   6.307  0.8492  0.1947  1.3183
 7052TIP3    H242572   1.599   0.899   6.239 -0.2038  1.2244 -0.0321
 7053TIP3   OH242573   3.827   1.116   1.533 -0.0025 -0.3682  0.3228
 7053TIP3    H142574   3.744   1.144   1.494  1.2732  3.2169 -0.1751
 7053TIP3    H242575   3.840   1.027   1.500 -3.0797 -0.6264 -0.4743
 7054TIP3   OH242576   6.526   4.050   5.520  1.0032  0.0047 -0.7040
 7054TIP3    H142577   6.612   4.039   5.479 -0.1425 -0.7918 -3.0600
 7054TIP3    H242578   6.488   3.962   5.518 -0.5229  0.6606 -1.2378
 7055TIP3   OH242579   1.870   2.142  10.936  0.2449 -0.2934 -0.4386
 7055TIP3    H142580   1.893   2.147  11.028  1.6184 -0.8659 -0.7211
 7055TIP3    H242581   1.831   2.055  10.925 -0.6924  0.0906 -0.2568
 7056TIP3   OH242582   5.066   3.169  16.958  0.2113  0.4102 -0.7574
 7056TIP3    H142583   4.993   3.220  16.993 -1.2032 -0.8630 -1.7135
 7056TIP3    H242584   5.073   3.094  17.016  0.8610  0.5924 -0.5958
 7057TIP3   OH242585   2.161   4.144   3.746 -0.5361 -0.5142 -0.1411
 7057TIP3    H142586   2.083   4.193   3.770 -0.8759 -1.7545  1.5029
 7057TIP3    H242587   2.127   4.068   3.698 -0.4031 -1.1422  0.7182
 7058TIP3   OH242588   0.890   3.488  12.240 -0.8856 -0.2405 -0.3556
 7058TIP3    H142589   0.916   3.405  12.202  1.5931  0.2831  0.0215
 7058TIP3    H242590   0.928   3.487  12.328 -1.6397  0.8978  0.0065
 7059TIP3   OH242591   6.220   4.438   1.080  0.3983 -0.0746 -0.1523
 7059TIP3    H142592   6.310   4.407   1.086  0.3476 -0.4923 -1.3335
 7059TIP3    H242593   6.218   4.516   1.135  2.0914  1.3160 -1.8950
 7060TIP3   OH242594   2.988   2.144  12.639 -0.5214  0.3545  0.3133
 7060TIP3    H142595   3.078   2.122  12.662 -0.6789 -0.1221  0.4738
 7060TIP3    H242596   2.945   2.060  12.623 -1.4331  0.4297  2.0853
 7061TIP3   OH242597   0.394   3.823  16.744  0.1809 -0.2324 -0.8197
 7061TIP3    H142598   0.477   3.783  16.718  0.4911  0.1415 -0.4107
 7061TIP3    H242599   0.395   3.910  16.703  0.2395 -0.0165 -0.3639
 7062TIP3   OH242600   3.687   4.572   0.594 -0.0140  0.4060  0.1254
 7062TIP3    H142601   3.682   4.632   0.520 -1.8379  2.0181  1.4468
 7062TIP3    H242602   3.609   4.517   0.586  0.9836 -1.0075 -0.3662
 7063TIP3   OH242603   5.836   1.138  11.994  0.4139  0.0081  0.4580
 7063TIP3    H142604   5.797   1.099  12.073  0.9735 -1.4638  0.0566
 7063TIP3    H242605   5.838   1.232  12.012 -1.2147 -0.1033  1.3979
 7064TIP3   OH242606   0.413   5.421   2.902  0.0001  0.1793 -0.3492
 7064TIP3    H142607   0.400   5.328   2.880  0.2373  0.1227 -0.2499
 7064TIP3    H242608   0.325   5.458   2.900 -0.0136  0.1197 -1.1228
 7065TIP3   OH242609   3.574   6.183  13.494 -0.2019  0.4150  0.4295
 7065TIP3    H142610   3.487   6.193  13.532  0.5064  2.1687  1.6999
 7065TIP3    H242611   3.563   6.208  13.402 -0.9847  0.8614  0.6444
 7066TIP3   OH242612   5.352   5.408  15.172 -0.2854  0.0940  0.4077
 7066TIP3    H142613   5.391   5.429  15.087 -0.2408 -2.1789 -0.1839
 7066TIP3    H242614   5.282   5.472  15.182 -0.2850  0.4210 -1.3334
 7067TIP3   OH242615   0.142   6.384  15.524  0.0359 -0.3943  0.8044
 7067TIP3    H142616   0.076   6.316  15.541 -0.3500  0.0665  1.1828
 7067TIP3    H242617   0.176   6.363  15.437 -0.9348 -0.3804  0.4064
 7068TIP3   OH242618   4.157   4.470   3.946  0.1270 -0.4268  0.4664
 7068TIP3    H142619   4.062   4.457   3.954 -0.0067 -1.2576 -1.8292
 7068TIP3    H242620   4.166   4.558   3.911  0.3414  0.3368  2.3241
 7069TIP3   OH242621   2.043   1.658   1.102 -0.3840  0.1486  0.1906
 7069TIP3    H142622   2.054   1.562   1.104 -0.1175  0.1882  0.7860
 7069TIP3    H242623   2.056   1.681   1.010  0.8426 -0.2420  0.2384
 7070TIP3   OH242624   6.387   3.156   3.288  0.0978 -0.2366  0.3479
 7070TIP3    H142625   6.423   3.199   3.211  1.7299 -2.4178 -0.2046
 7070TIP3    H242626   6.293   3.177   3.286  0.6306  2.3468 -0.4050
 7071TIP3   OH242627   4.429   6.747  13.071  0.4505  0.5761 -0.1068
 7071TIP3    H142628   4.413   6.725  13.163  1.2021  0.1039 -0.0795
 7071TIP3    H242629   4.483   6.676  13.038  4.0010  2.8435  0.3009
 7072TIP3   OH242630   6.494   5.460  13.277 -0.7111  0.6052 -0.1460
 7072TIP3    H142631   6.466   5.550  13.258  1.2484  1.5311  0.9728
 7072TIP3    H242632   6.581   5.453  13.237 -0.2342 -0.2911  0.9699
 7073TIP3   OH242633   1.166   5.465   3.105 -0.5837  0.3311  0.3719
 7073TIP3    H142634   1.077   5.457   3.071 -0.1339  0.3843 -0.8868
 7073TIP3    H242635   1.186   5.379   3.142 -1.1673  0.3265  0.6796
 7074TIP3   OH242636   3.783   3.207   5.650 -0.4145  0.7155 -0.5045
 7074TIP3    H142637   3.791   3.188   5.556 -1.6766  1.0744 -0.7041
 7074TIP3    H242638   3.859   3.261   5.670  0.9742 -1.0141 -0.8535
 7075TIP3   OH242639   0.006   5.618   3.654 -0.3789 -0.1643 -0.0659
 7075TIP3    H142640  -0.039   5.636   3.737 -0.4673  0.0929 -0.1666
 7075TIP3    H242641   0.098   5.639   3.672 -0.3017 -0.6501  0.1278
 7076TIP3   OH242642   2.391   2.752  12.242 -0.1075 -0.5379 -0.4166
 7076TIP3    H142643   2.425   2.673  12.283  1.2842 -0.4122 -1.2565
 7076TIP3    H242644   2.467   2.810  12.236 -1.3448  1.4322  1.3938
 7077TIP3   OH242645   3.643   0.923   2.326 -0.5863  0.0366 -0.1706
 7077TIP3    H142646   3.645   1.013   2.295  1.3436 -0.4766 -1.6818
 7077TIP3    H242647   3.731   0.889   2.311 -1.0102 -1.8672  1.1544
 7078TIP3   OH242648   1.641   1.992   2.688  0.2076  0.2912 -0.4041
 7078TIP3    H142649   1.720   2.044   2.677  0.6799 -0.5219 -0.9665
 7078TIP3    H242650   1.602   1.990   2.600  1.8402 -2.8433 -1.2209
 7079TIP3   OH242651   3.526   2.826  14.008 -0.6449  0.2489  0.6998
 7079TIP3    H142652   3.449   2.769  14.007 -1.7719  1.6397  2.3988
 7079TIP3    H242653   3.504   2.899  13.950 -0.1084  0.0699  0.2604
 7080TIP3   OH242654   5.680   3.604   3.849  0.3858 -0.0739  1.1454
 7080TIP3    H142655   5.690   3.699   3.856  0.7763  0.0144 -0.3041
 7080TIP3    H242656   5.656   3.576   3.938  0.7561  1.3071  1.7104
 7081TIP3   OH242657   0.108   2.857   5.038 -0.9813  0.0438  0.0426
 7081TIP3    H142658   0.150   2.774   5.017  0.4314  1.0562 -1.3870
 7081TIP3    H242659   0.163   2.896   5.106 -2.6178 -0.8999  2.0038
 7082TIP3   OH242660   1.596   1.989   6.509 -0.0139 -0.2939  0.1569
 7082TIP3    H142661   1.586   1.943   6.593 -1.4252 -0.4252 -0.0430
 7082TIP3    H242662   1.690   1.997   6.497  0.2264  0.6282  2.2364
 7083TIP3   OH242663   2.271   1.512   3.947  0.0894  0.4073 -0.2427
 7083TIP3    H142664   2.279   1.607   3.939 -0.4882  0.4925  0.1380
 7083TIP3    H242665   2.206   1.488   3.880 -1.9541  0.6603  1.5508
 7084TIP3   OH242666   0.651   1.323   0.716 -0.3233  0.9004 -0.2222
 7084TIP3    H142667   0.655   1.370   0.633  0.2611  1.3206  0.0344
 7084TIP3    H242668   0.732   1.273   0.720  0.4367  2.1285  0.7961
 7085TIP3   OH242669   2.994   2.983   1.437  0.3952  0.4432  0.3041
 7085TIP3    H142670   3.021   3.036   1.362  0.8035 -0.3559 -0.1284
 7085TIP3    H242671   3.072   2.932   1.458 -0.4027 -1.0356 -0.2036
 7086TIP3   OH242672   2.565   1.104  16.237  0.1306 -0.4359  0.1891
 7086TIP3    H142673   2.627   1.059  16.294 -0.7836 -0.6572  1.0371
 7086TIP3    H242674   2.483   1.103  16.286 -0.7880 -0.9934 -1.3009
 7087TIP3   OH242675   0.097   0.750  16.280 -0.5368 -0.2005  0.7637
 7087TIP3    H142676   0.148   0.708  16.349 -1.1707 -2.1730  0.0846
 7087TIP3    H242677   0.129   0.712  16.199 -0.9069  0.9069  0.0750
 7088TIP3   OH242678   5.580   6.356   3.855  0.2780  0.2519 -0.3758
 7088TIP3    H142679   5.532   6.277   3.832  1.1426 -0.5456  0.4440
 7088TIP3    H242680   5.585   6.355   3.951  1.4395  0.5787 -0.4081
 7089TIP3   OH242681   2.224   1.810   3.981 -0.0489  0.0656 -0.2920
 7089TIP3    H142682   2.236   1.820   3.887  1.8097  0.8449 -0.0135
 7089TIP3    H242683   2.296   1.859   4.020 -0.3492 -0.8526  1.5360
 7090TIP3   OH242684   0.012   1.516  15.816  1.1293  0.7897 -0.0067
 7090TIP3    H142685   0.041   1.570  15.743 -1.6036  2.4015 -0.0252
 7090TIP3    H242686  -0.004   1.430  15.778  1.2001  1.2006 -0.9807
 7091TIP3   OH242687   0.146   5.072  16.972 -0.6086  0.2495 -0.2248
 7091TIP3    H142688   0.230   5.118  16.959 -0.4088 -0.0554 -0.0214
 7091TIP3    H242689   0.168   4.980  16.964  0.1375 -0.3221  4.8615
 7092TIP3   OH242690   3.666   1.416   4.180  0.6032 -0.0200  0.3136
 7092TIP3    H142691   3.729   1.435   4.249  0.9906  0.6472 -0.2079
 7092TIP3    H242692   3.600   1.361   4.222  0.8481  0.3486  1.2016
 7093TIP3   OH242693   0.317   0.509   0.553 -0.0048  0.7203  0.3648
 7093TIP3    H142694   0.302   0.603   0.562  0.3252  0.7025  1.1905
 7093TIP3    H242695   0.313   0.493   0.459  0.6314  1.6869  0.1556
 7094TIP3   OH242696   2.563   4.930   1.700  0.3016 -0.5230  0.4447
 7094TIP3    H142697   2.615   4.850   1.694  1.8475  0.3897  1.0173
 7094TIP3    H242698   2.554   4.945   1.795 -0.1593 -0.1366  0.3424
 7095TIP3   OH242699   0.162   5.966  15.261 -0.3898 -0.0156 -0.0993
 7095TIP3    H142700   0.175   5.886  15.312  2.5903  1.1835  1.2382
 7095TIP3    H242701   0.153   5.935  15.171  2.1655 -1.9081  0.1644
 7096TIP3   OH242702   0.809   3.575  16.413 -0.1521 -0.2754  0.1582
 7096TIP3    H142703   0.863   3.627  16.473  1.4718 -1.9624  0.2796
 7096TIP3    H242704   0.859   3.494  16.400 -1.6477 -1.0166 -1.5115
 7097TIP3   OH242705   3.447   6.314   2.385  0.3645 -0.7212  0.0468
 7097TIP3    H142706   3.374   6.376   2.374  0.6446 -0.7038 -1.9919
 7097TIP3    H242707   3.417   6.234   2.341  1.6048 -0.6780 -0.9042
 7098TIP3   OH242708   1.756   1.045  11.233 -0.0467  0.2043 -0.3421
 7098TIP3    H142709   1.704   0.996  11.296  1.3045 -1.1178 -0.2139
 7098TIP3    H242710   1.845   1.012  11.244  0.6264  1.5674 -1.3691
 7099TIP3   OH242711   6.716   2.446   1.586 -0.1321 -0.1069  0.4665
 7099TIP3    H142712   6.630   2.435   1.626 -0.7432 -0.8729 -1.0111
 7099TIP3    H242713   6.746   2.357   1.569  0.0742  0.1900 -0.8215
 7100TIP3   OH242714   0.944   1.398  13.229 -0.0960  0.2555  0.1799
 7100TIP3    H142715   0.937   1.469  13.165  0.9842  0.6554  0.4906
 7100TIP3    H242716   0.868   1.410  13.286 -0.9276  0.0465 -0.8620
 7101TIP3   OH242717   2.976   4.096   2.748  0.4247  0.3070 -0.7669
 7101TIP3    H142718   3.014   4.156   2.684  0.4230  3.5730  2.0050
 7101TIP3    H242719   3.048   4.074   2.807 -0.1345 -0.3764 -0.3202
 7102TIP3   OH242720   0.234   6.537   1.450 -0.1176  0.2674 -0.3651
 7102TIP3    H142721   0.234   6.479   1.526 -0.5675  1.4204  0.5473
 7102TIP3    H242722   0.322   6.531   1.414 -0.1395 -0.9204 -0.2593
 7103TIP3   OH242723   6.139   0.403   2.819  0.7945 -0.1591 -0.3840
 7103TIP3    H142724   6.198   0.419   2.892 -0.0680 -0.1198  0.3145
 7103TIP3    H242725   6.106   0.490   2.795  2.0292 -0.0110 -1.6573
 7104TIP3   OH242726   0.217   3.627  17.174  0.3870 -0.0950 -0.0494
 7104TIP3    H142727   0.294   3.675  17.143  1.0064  1.9720  3.9957
 7104TIP3    H242728   0.146   3.691  17.171 -0.9683 -1.5837 -2.4598
 7105TIP3   OH242729   6.185   5.128   1.872  0.5545 -0.5052  0.0461
 7105TIP3    H142730   6.241   5.101   1.945  1.0219  1.4538  0.4785
 7105TIP3    H242731   6.113   5.065   1.873  0.8106 -0.8370  1.8817
 7106TIP3   OH242732   6.665   3.067  11.012 -0.7573  0.2995 -1.1359
 7106TIP3    H142733   6.708   3.010  10.948  1.8552 -0.3174  0.9627
 7106TIP3    H242734   6.735   3.091  11.073 -2.0327  4.6645 -1.0756
 7107TIP3   OH242735   3.502   6.469  16.333  0.0773 -0.6483 -0.3776
 7107TIP3    H142736   3.516   6.376  16.314 -1.4876 -0.8029 -0.8430
 7107TIP3    H242737   3.520   6.513  16.250 -1.7747 -0.8172 -0.8923
 7108TIP3   OH242738   2.859   2.889   1.128 -0.3421  0.0602 -0.7642
 7108TIP3    H142739   2.859   2.855   1.218  2.1464 -1.8025 -1.3715
 7108TIP3    H242740   2.825   2.818   1.075  1.5237 -0.2416 -1.6457
 7109TIP3   OH242741   0.097   1.540   4.622  0.2231  0.7045 -0.0595
 7109TIP3    H142742   0.158   1.491   4.677 -0.5753 -0.1159  0.1112
 7109TIP3    H242743   0.014   1.537   4.670 -0.1774  1.0343 -0.7205
 7110TIP3   OH242744   3.015   4.288  13.416 -0.3605 -0.4376  0.5795
 7110TIP3    H142745   2.925   4.316  13.427 -0.6392 -0.8573 -0.5636
 7110TIP3    H242746   3.039   4.314  13.327  0.1539 -1.6386  0.3435
 7111TIP3   OH242747   5.041   0.323   2.665 -0.2667 -0.2250 -0.3857
 7111TIP3    H142748   5.073   0.239   2.630 -0.6881 -0.1542 -0.9585
 7111TIP3    H242749   5.074   0.388   2.602  0.1913  0.0589  0.1417
 7112TIP3   OH242750   5.212   0.169  12.734  0.6082 -0.5301  0.3291
 7112TIP3    H142751   5.204   0.232  12.806  1.2244 -0.1588  0.0754
 7112TIP3    H242752   5.205   0.083  12.777 -0.0801 -0.2982  0.6931
 7113TIP3   OH242753   1.740   0.075   0.416  0.3623  0.2136 -0.0911
 7113TIP3    H142754   1.830   0.106   0.421 -0.3661  2.4702  0.4827
 7113TIP3    H242755   1.721   0.043   0.505  0.2801  0.7798  0.1012
 7114TIP3   OH242756   6.577   5.368   1.442  0.0162  0.0449  0.1653
 7114TIP3    H142757   6.581   5.463   1.437 -2.8107  0.2598  0.0046
 7114TIP3    H242758   6.601   5.347   1.532 -1.3541  1.1612  0.8421
 7115TIP3   OH242759   5.776   1.396   1.634 -0.5735 -0.1086  0.1478
 7115TIP3    H142760   5.872   1.405   1.631 -0.5014 -0.9243 -0.0661
 7115TIP3    H242761   5.761   1.302   1.637 -1.3516  0.0382  1.1340
 7116TIP3   OH242762   0.430   3.341   3.341  0.5943  0.6188  0.0843
 7116TIP3    H142763   0.403   3.432   3.333  0.7894  0.6570 -0.1659
 7116TIP3    H242764   0.516   3.345   3.383  0.2369  0.5011  0.8465
 7117TIP3   OH242765   3.792   0.505  14.803 -0.0676  0.1276 -0.1243
 7117TIP3    H142766   3.824   0.537  14.888  0.1170  0.1241 -0.1920
 7117TIP3    H242767   3.811   0.577  14.742  1.8900 -0.7397 -0.6159
 7118TIP3   OH242768   2.702   6.694  15.846  0.0793  0.3784 -0.3976
 7118TIP3    H142769   2.760   6.717  15.774  0.1163 -1.8172 -1.1453
 7118TIP3    H242770   2.758   6.696  15.924  0.0806  2.5745 -0.4073
 7119TIP3   OH242771   1.425   3.769   2.932  0.4188  0.8585  0.7379
 7119TIP3    H142772   1.490   3.731   2.873 -1.9724 -1.7291 -0.4550
 7119TIP3    H242773   1.436   3.722   3.015  0.7429  1.1859  0.8831
 7120TIP3   OH242774   2.337   6.385   1.416 -0.0578 -0.2820 -0.4526
 7120TIP3    H142775   2.249   6.352   1.395 -0.0628 -1.4094  1.2326
 7120TIP3    H242776   2.359   6.345   1.500  2.5894 -0.9833 -1.3907
 7121TIP3   OH242777   5.556   3.837   3.112  0.4510 -0.0740  0.4998
 7121TIP3    H142778   5.639   3.815   3.154  1.8684  2.2276 -0.8965
 7121TIP3    H242779   5.574   3.917   3.063 -2.0930 -0.5763 -1.4687
 7122TIP3   OH242780   4.138   3.014   6.319  0.3115  0.0292  0.3349
 7122TIP3    H142781   4.072   3.072   6.359 -2.0572 -1.0947 -1.6850
 7122TIP3    H242782   4.102   2.926   6.330  2.3039 -0.7939  0.5607
 7123TIP3   OH242783   2.272   3.010  13.342 -0.6682 -0.7525 -0.0198
 7123TIP3    H142784   2.348   3.006  13.284  0.3752 -2.2547  1.3821
 7123TIP3    H242785   2.199   3.033  13.284  0.1640 -2.9838 -2.1148
 7124TIP3   OH242786   5.838   0.881  14.986  0.0076 -0.6087 -0.1511
 7124TIP3    H142787   5.872   0.887  14.896 -0.3369  2.0762 -0.1767
 7124TIP3    H242788   5.915   0.895  15.041  0.1566 -1.9187  0.0179
 7125TIP3   OH242789   5.750   1.378  14.685  0.4301 -0.6143  0.7084
 7125TIP3    H142790   5.792   1.462  14.671 -0.2119 -0.2301  1.0594
 7125TIP3    H242791   5.813   1.314  14.651  0.8700  0.0072  0.3273
 7126TIP3   OH242792   4.691   4.382  16.822 -0.8226  0.5550  0.4703
 7126TIP3    H142793   4.674   4.328  16.899  0.0955 -0.1183  0.2318
 7126TIP3    H242794   4.723   4.320  16.757 -0.7644  1.2422 -0.1620
 7127TIP3   OH242795   2.547   3.589  15.933 -0.1953 -0.2009  0.1002
 7127TIP3    H142796   2.623   3.537  15.960 -0.4123 -0.8457 -0.5152
 7127TIP3    H242797   2.475   3.527  15.929 -1.1110  0.6467  2.0491
 7128TIP3   OH242798   1.458   0.152  15.000  0.0422 -0.6546  0.3917
 7128TIP3    H142799   1.453   0.229  15.057  0.4940 -0.4483  0.1569
 7128TIP3    H242800   1.544   0.158  14.959  0.4709 -1.7899  1.0851
 7129TIP3   OH242801   1.870   4.236  10.642 -0.2218  0.2506  0.2754
 7129TIP3    H142802   1.893   4.329  10.648  1.6955 -0.2631  2.9263
 7129TIP3    H242803   1.936   4.200  10.582 -0.3743  0.4355 -0.0064
 7130TIP3   OH242804   3.912   0.259   2.082 -0.2466 -0.5353 -0.2524
 7130TIP3    H142805   3.911   0.239   2.176 -0.2908 -0.0875 -0.1565
 7130TIP3    H242806   3.861   0.340   2.074  1.2020  0.3902 -0.4457
 7131TIP3   OH242807   3.316   4.150   6.351 -0.1031  0.3477  0.7410
 7131TIP3    H142808   3.384   4.148   6.418 -0.6245  1.3895  1.3271
 7131TIP3    H242809   3.279   4.238   6.358 -0.9668  0.0631 -0.1146
 7132TIP3   OH242810   4.530   0.857   4.541 -0.1107  0.3538  0.0991
 7132TIP3    H142811   4.574   0.899   4.468 -0.5736  1.6045  0.5202
 7132TIP3    H242812   4.591   0.866   4.615 -0.4379  0.7682  0.3205
 7133TIP3   OH242813   0.393   1.570  13.640 -0.7752 -0.3151 -0.2591
 7133TIP3    H142814   0.428   1.586  13.727 -3.2114 -1.3564  1.0205
 7133TIP3    H242815   0.377   1.475  13.637 -0.1033 -0.4190 -2.1252
 7134TIP3   OH242816   5.067   4.337  14.470  0.0314 -0.7553  0.6481
 7134TIP3    H142817   5.058   4.298  14.383  1.4029 -1.6985  0.8965
 7134TIP3    H242818   4.994   4.301  14.521 -0.7189 -0.2742 -0.0689
 7135TIP3   OH242819   0.759   6.058   4.056  0.6604  0.1142 -0.6873
 7135TIP3    H142820   0.840   6.094   4.092  2.0035 -1.9443 -1.4485
 7135TIP3    H242821   0.751   6.100   3.971  1.9059 -0.8644 -1.3332
 7136TIP3   OH242822   3.770   5.687   3.470  0.0850  0.4813 -0.0832
 7136TIP3    H142823   3.735   5.776   3.463 -0.4364  0.2109 -1.0112
 7136TIP3    H242824   3.827   5.678   3.393  0.1782  0.0313  0.0357
 7137TIP3   OH242825   1.764   0.175  12.133 -0.0381  0.2555 -0.4013
 7137TIP3    H142826   1.771   0.110  12.202 -2.1689  1.7958  1.4199
 7137TIP3    H242827   1.834   0.238  12.151  0.4736 -0.2182 -0.6999
 7138TIP3   OH242828   3.432   6.327  11.720 -0.2817 -0.8013 -0.4748
 7138TIP3    H142829   3.514   6.285  11.748 -0.7294 -0.9196  0.7285
 7138TIP3    H242830   3.367   6.257  11.721 -0.5364 -0.5752 -0.7931
 7139TIP3   OH242831   6.649   4.781  13.250  0.0843  0.0560 -0.4439
 7139TIP3    H142832   6.615   4.844  13.186  0.0240  0.3661 -0.1068
 7139TIP3    H242833   6.617   4.812  13.334  1.9230  0.8755 -0.0063
 7140TIP3   OH242834   1.732   5.941  14.566 -0.3676  0.1704  0.0912
 7140TIP3    H142835   1.747   6.028  14.529 -2.1769  0.6055  0.2883
 7140TIP3    H242836   1.663   5.954  14.631 -0.4466 -1.3620  0.3498
 7141TIP3   OH242837   6.724   1.582  11.712 -0.4767  0.2809 -0.1885
 7141TIP3    H142838   6.646   1.600  11.764  0.4000  0.4419  1.1497
 7141TIP3    H242839   6.777   1.661  11.721  0.6412 -0.5140  0.4960
 7142TIP3   OH242840   5.754   0.331   3.529 -0.5741  0.2984 -0.3650
 7142TIP3    H142841   5.665   0.349   3.558  0.1725 -2.0652  4.3461
 7142TIP3    H242842   5.807   0.397   3.574  0.2316  1.1659 -2.4630
 7143TIP3   OH242843   1.278   4.218  15.733 -0.4089  0.3671  0.0399
 7143TIP3    H142844   1.285   4.155  15.660 -0.1245 -0.1403  0.4951
 7143TIP3    H242845   1.329   4.293  15.704 -1.5225  0.7863 -0.9084
 7144TIP3   OH242846   1.112   2.483  15.031  0.1496  0.4089 -0.2274
 7144TIP3    H142847   1.063   2.408  15.067 -2.6785  0.5105 -3.3813
 7144TIP3    H242848   1.169   2.444  14.965 -0.0952  0.8538 -0.7060
 7145TIP3   OH242849   1.699   6.042   6.748  0.2418  0.2625  0.0836
 7145TIP3    H142850   1.664   6.131   6.737 -2.4457 -0.5526  1.1567
 7145TIP3    H242851   1.794   6.053   6.749  0.0439  2.8906 -1.5487
 7146TIP3   OH242852   3.078   6.302  12.919 -0.2964  0.1267  0.6352
 7146TIP3    H142853   3.154   6.348  12.883 -1.4564  1.4055 -0.2598
 7146TIP3    H242854   3.050   6.243  12.848 -2.2100  2.2048 -0.4846
 7147TIP3   OH242855   0.282   0.790   4.455  0.1253 -0.5436 -0.0018
 7147TIP3    H142856   0.352   0.852   4.474  1.7884 -2.1963 -0.3930
 7147TIP3    H242857   0.314   0.740   4.380 -1.3229 -1.6135  0.0468
 7148TIP3   OH242858   1.727   4.560   0.708  0.5171  0.0658  0.3347
 7148TIP3    H142859   1.788   4.633   0.724 -0.8387  1.6652 -1.3116
 7148TIP3    H242860   1.730   4.546   0.613 -2.3431  0.9417 -0.0017
 7149TIP3   OH242861   1.278   6.586   1.943  0.1789  0.0121 -0.3646
 7149TIP3    H142862   1.326   6.566   2.023  1.4114  1.1254 -0.7978
 7149TIP3    H242863   1.303   6.676   1.921 -1.2239  0.2234 -1.2485
 7150TIP3   OH242864   0.836   3.214  16.766  0.6128  0.0276  0.0134
 7150TIP3    H142865   0.904   3.202  16.699  0.5673  0.1056 -0.0478
 7150TIP3    H242866   0.839   3.308  16.785  0.8058 -0.0378  0.3134
 7151TIP3   OH242867   2.635   6.687   5.937 -0.1553 -0.6901  0.5667
 7151TIP3    H142868   2.694   6.716   6.007 -0.7817 -0.1345  0.8716
 7151TIP3    H242869   2.692   6.678   5.861  0.4443 -0.7931  1.0163
 7152TIP3   OH242870   3.668   2.346  12.192  0.0953  0.2153 -0.8168
 7152TIP3    H142871   3.710   2.291  12.258 -1.0738 -0.3343 -0.4989
 7152TIP3    H242872   3.635   2.285  12.127  0.2996  0.6818 -1.3679
 7153TIP3   OH242873   3.823   6.179   3.348  0.1303 -0.0281 -0.1633
 7153TIP3    H142874   3.814   6.266   3.309  0.7713 -0.9824 -2.6557
 7153TIP3    H242875   3.779   6.121   3.287 -2.4183 -1.2976  2.6164
 7154TIP3   OH242876   3.706   1.866   2.877  0.3338 -0.5555  0.1007
 7154TIP3    H142877   3.736   1.906   2.959  3.0361 -3.0720  0.4974
 7154TIP3    H242878   3.713   1.937   2.813 -1.7500  1.4504  1.9208
 7155TIP3   OH242879   2.405   1.112   4.596  0.0962 -0.3563  0.3302
 7155TIP3    H142880   2.346   1.065   4.537 -0.3790  1.4777 -0.7226
 7155TIP3    H242881   2.487   1.119   4.546  0.8455 -1.7771  1.2881
 7156TIP3   OH242882   4.004   6.184   4.591 -0.0176 -0.4115 -0.5729
 7156TIP3    H142883   3.983   6.096   4.560  2.8169 -1.4532  0.1049
 7156TIP3    H242884   4.030   6.231   4.512  0.6962 -0.9406 -0.6642
 7157TIP3   OH242885   4.422   1.872  16.271 -0.2397  0.3988  0.0126
 7157TIP3    H142886   4.368   1.951  16.276  0.1050  0.9456 -3.0280
 7157TIP3    H242887   4.365   1.803  16.304 -0.7237  1.7777  2.2804
 7158TIP3   OH242888   4.106   4.814   4.764 -0.0785  0.0694 -0.1107
 7158TIP3    H142889   4.200   4.801   4.750  0.0135 -1.0669  1.3832
 7158TIP3    H242890   4.066   4.782   4.683  0.7646 -0.1139 -0.4724
 7159TIP3   OH242891   4.167   5.430  16.722 -0.1162 -0.0999 -0.2645
 7159TIP3    H142892   4.089   5.470  16.760  1.0631  1.7938  0.3086
 7159TIP3    H242893   4.216   5.504  16.686  1.3831 -1.2426 -0.6462
 7160TIP3   OH242894   3.484   3.924   3.365  0.0179 -0.1394  0.4455
 7160TIP3    H142895   3.544   3.859   3.330 -0.8832 -1.4927  1.3404
 7160TIP3    H242896   3.529   3.961   3.441  0.6064  0.4397 -0.1730
 7161TIP3   OH242897   0.963   0.642  15.369  0.4177  0.3352 -0.3940
 7161TIP3    H142898   0.938   0.636  15.277 -0.7420 -0.1150 -0.0675
 7161TIP3    H242899   0.886   0.680  15.412  1.4555  1.9004  0.1920
 7162TIP3   OH242900   4.810   0.887   1.022 -0.1721 -0.2888  0.1629
 7162TIP3    H142901   4.752   0.928   0.957 -0.0428 -1.0393 -0.4420
 7162TIP3    H242902   4.897   0.894   0.984 -0.0759 -0.5906  0.3271
 7163TIP3   OH242903   1.598   5.628   1.685  0.3891  0.3578 -0.6936
 7163TIP3    H142904   1.657   5.696   1.718  0.4940  0.3290 -0.8213
 7163TIP3    H242905   1.597   5.640   1.590 -1.2086  1.5001 -0.5712
 7164TIP3   OH242906   2.784   3.183   3.305  0.6102 -0.1410  1.0006
 7164TIP3    H142907   2.696   3.176   3.268  0.7092  1.6735  0.3509
 7164TIP3    H242908   2.834   3.114   3.260  1.0704  2.6882 -3.4625
 7165TIP3   OH242909   2.310   4.714  14.066  0.3633 -0.1735  0.0034
 7165TIP3    H142910   2.329   4.624  14.094  0.3336 -0.4507 -0.8404
 7165TIP3    H242911   2.383   4.766  14.100  0.1766 -0.4382  0.8505
 7166TIP3   OH242912   4.010   5.562   3.638 -0.4569 -0.3760  0.5373
 7166TIP3    H142913   4.009   5.652   3.668 -0.2238  0.5176 -1.9043
 7166TIP3    H242914   3.957   5.514   3.701  0.7343  1.1258  2.7787
 7167TIP3   OH242915   0.323   5.760  15.013  0.0976  0.5495 -0.4590
 7167TIP3    H142916   0.303   5.763  14.920  0.8187  0.9090 -0.6121
 7167TIP3    H242917   0.293   5.673  15.041  0.4102  0.2077 -1.1573
 7168TIP3   OH242918   3.925   0.513  14.486 -0.0525 -0.3608  0.1917
 7168TIP3    H142919   4.008   0.490  14.443  0.5543 -1.4695  1.8725
 7168TIP3    H242920   3.939   0.602  14.518  0.5503 -0.5851  0.5711
 7169TIP3   OH242921   0.495   2.271  11.962 -0.6661  0.5269 -0.2504
 7169TIP3    H142922   0.573   2.320  11.989  0.3234 -0.7565 -0.6350
 7169TIP3    H242923   0.489   2.286  11.867 -1.1666  0.9994 -0.1448
 7170TIP3   OH242924   2.990   1.238  17.186 -0.4907 -0.3009  0.6271
 7170TIP3    H142925   3.069   1.186  17.170 -0.6879 -0.5912  0.5793
 7170TIP3    H242926   3.017   1.303  17.250 -0.2926 -0.6056  0.8584
 7171TIP3   OH242927   6.252   5.957  15.174  0.3747 -0.5669  0.1608
 7171TIP3    H142928   6.230   5.881  15.120 -1.4199 -0.0511  0.1082
 7171TIP3    H242929   6.230   6.033  15.119  0.4934 -0.0194  0.8588
 7172TIP3   OH242930   0.113   2.075  14.787  0.3837  0.0561  0.1839
 7172TIP3    H142931   0.080   2.128  14.860  0.3630 -1.5975  1.4355
 7172TIP3    H242932   0.097   1.985  14.814  1.1015 -0.6317 -1.5473
 7173TIP3   OH242933   0.747   3.341  15.755 -0.2075  0.0998  0.3124
 7173TIP3    H142934   0.832   3.297  15.753 -0.6539 -0.8073  1.1274
 7173TIP3    H242935   0.748   3.397  15.677  0.1415 -1.7609 -1.0935
 7174TIP3   OH242936   3.841   1.969  12.020 -0.2143 -0.7792  0.0764
 7174TIP3    H142937   3.904   1.914  12.066 -0.9746 -0.6278  1.3656
 7174TIP3    H242938   3.756   1.929  12.039 -0.6927  0.2476  0.2107
 7175TIP3   OH242939   2.142   2.062   6.066  0.1010  0.0419  0.4028
 7175TIP3    H142940   2.220   2.019   6.101 -0.4464 -0.5966  0.8666
 7175TIP3    H242941   2.098   1.994   6.015 -0.8234  0.0075  1.2209
 7176TIP3   OH242942   3.860   6.523   6.080 -0.0763  0.2243 -0.0170
 7176TIP3    H142943   3.930   6.493   6.138 -1.0105 -0.0359  1.0124
 7176TIP3    H242944   3.790   6.549   6.140 -0.9314  0.3052 -1.0354
 7177TIP3   OH242945   6.112   3.191  13.166 -0.6124  0.2805  0.7000
 7177TIP3    H142946   6.072   3.105  13.167  0.1191 -0.0821 -0.0779
 7177TIP3    H242947   6.148   3.200  13.078 -2.3256  2.1492  0.1203
 7178TIP3   OH242948   5.908   0.354   1.918  0.5160 -0.3209 -0.9965
 7178TIP3    H142949   5.850   0.416   1.874 -0.5131 -0.6832 -0.2075
 7178TIP3    H242950   5.997   0.382   1.894  0.0658  1.1990 -1.0052
 7179TIP3   OH242951   6.759   6.681   2.524  0.6367  0.6758 -0.5550
 7179TIP3    H142952   6.828   6.742   2.549  0.5570  0.4410  0.2786
 7179TIP3    H242953   6.795   6.595   2.546 -0.0738  0.5794  0.2671
 7180TIP3   OH242954   1.255   3.968  11.927 -0.1541 -0.3391 -0.5977
 7180TIP3    H142955   1.318   4.040  11.940 -0.2671  0.0674 -2.0986
 7180TIP3    H242956   1.307   3.898  11.886 -0.5275 -0.2165 -1.3056
 7181TIP3   OH242957   1.207   0.241  14.818 -0.2464 -0.4520  0.4337
 7181TIP3    H142958   1.243   0.274  14.900  1.0067 -1.3195  0.2699
 7181TIP3    H242959   1.284   0.210  14.769 -1.2020 -2.2246 -0.0260
 7182TIP3   OH242960   4.616   4.066   1.830  0.1194  0.0137 -0.1411
 7182TIP3    H142961   4.617   4.137   1.765  1.3916  0.7820  0.6828
 7182TIP3    H242962   4.537   4.016   1.809  0.3535  0.3878 -2.1158
 7183TIP3   OH242963   3.154   6.519   3.384  0.0406 -0.4399 -0.0038
 7183TIP3    H142964   3.177   6.570   3.461  0.0818 -0.5991  0.0912
 7183TIP3    H242965   3.219   6.544   3.318 -0.6681  0.5353 -0.3571
 7184TIP3   OH242966   4.935   5.314   2.827 -0.9683  0.2326  0.1717
 7184TIP3    H142967   4.944   5.260   2.905 -0.8571  0.2105  0.1439
 7184TIP3    H242968   4.911   5.253   2.757 -0.1594  0.1093 -0.0111
 7185TIP3   OH242969   3.495   5.260   5.676  0.1465  0.4048  0.5405
 7185TIP3    H142970   3.554   5.320   5.721 -2.7659  4.8266 -0.8824
 7185TIP3    H242971   3.517   5.268   5.583 -1.3418  0.6447  0.1763
 7186TIP3   OH242972   6.428   4.256  16.451  0.2116 -0.2344 -0.2772
 7186TIP3    H142973   6.342   4.214  16.463 -1.0279  2.3162  0.5508
 7186TIP3    H242974   6.443   4.303  16.533  2.3043 -0.3815 -0.5258
 7187TIP3   OH242975   5.964   6.150  15.540 -0.2255 -0.2182 -0.7083
 7187TIP3    H142976   6.043   6.113  15.579 -0.0168  0.1794 -0.7550
 7187TIP3    H242977   5.988   6.170  15.450  0.1173  1.4055 -0.2865
 7188TIP3   OH242978   3.940   0.622   2.999 -0.4887  0.5122  0.0265
 7188TIP3    H142979   3.858   0.607   3.048 -0.2823 -0.0575  0.2119
 7188TIP3    H242980   3.924   0.582   2.914 -0.4892  0.6102 -0.0189
 7189TIP3   OH242981   1.684   3.282  13.358  0.0786 -0.1226 -0.1389
 7189TIP3    H142982   1.656   3.336  13.283 -1.1894  0.3443  0.6430
 7189TIP3    H242983   1.606   3.233  13.383  0.3784  0.0011  1.1044
 7190TIP3   OH242984   5.454   4.096   0.299 -0.0636  0.0635 -0.0508
 7190TIP3    H142985   5.458   4.134   0.386 -0.3268  0.0416 -0.0278
 7190TIP3    H242986   5.475   4.003   0.312 -0.0507  0.0713 -0.0164
 7191TIP3   OH242987   3.509   4.327  15.401 -0.3108 -0.3740  0.0527
 7191TIP3    H142988   3.460   4.374  15.469  1.2148  1.7741 -0.2440
 7191TIP3    H242989   3.473   4.361  15.319  0.2865 -0.2705 -0.1701
 7192TIP3   OH242990   3.707   6.349  13.860 -0.3604 -0.1215 -0.0800
 7192TIP3    H142991   3.632   6.409  13.855  0.2997  0.7890  0.5984
 7192TIP3    H242992   3.734   6.353  13.952  1.3832  0.6328 -0.5984
 7193TIP3   OH242993   0.195   2.556   4.218  0.3207 -0.4153  0.2857
 7193TIP3    H142994   0.126   2.541   4.282  0.2965 -1.0708  0.1158
 7193TIP3    H242995   0.166   2.509   4.140  0.9115 -0.6229  0.1808
 7194TIP3   OH242996   0.891   2.439  15.328  0.3240 -0.2114  0.3548
 7194TIP3    H142997   0.922   2.386  15.255  1.0648 -0.4354  0.8218
 7194TIP3    H242998   0.804   2.470  15.300 -0.9417 -3.0737  0.7400
 7195TIP3   OH242999   4.866   1.992  10.753  0.3110  0.0621 -0.0762
 7195TIP3    H143000   4.783   1.949  10.734  0.7403 -0.1670 -1.5615
 7195TIP3    H243001   4.930   1.947  10.697  1.2433  0.9264  0.2538
 7196TIP3   OH243002   2.318   2.887  10.463 -0.0487 -0.0830 -0.0814
 7196TIP3    H143003   2.258   2.962  10.460  1.3304  1.0261 -1.5725
 7196TIP3    H243004   2.265   2.816  10.499 -1.8839  1.1707 -0.1491
 7197TIP3   OH243005   1.397   2.043  16.093  0.5202  0.3815 -0.0552
 7197TIP3    H143006   1.421   2.053  16.000  0.1912 -1.2183 -0.3409
 7197TIP3    H243007   1.468   1.991  16.130 -0.2076 -0.4723  0.1717
 7198TIP3   OH243008   5.828   4.115  12.471 -0.2393  0.2854  0.1273
 7198TIP3    H143009   5.766   4.044  12.453  1.7880 -0.9454 -2.5684
 7198TIP3    H243010   5.876   4.085  12.549 -0.0366 -0.8765 -0.4300
 7199TIP3   OH243011   1.184   1.382  15.196  0.3413  0.5133 -0.0396
 7199TIP3    H143012   1.240   1.381  15.274  0.1816  1.3419  0.0959
 7199TIP3    H243013   1.101   1.344  15.226  0.4167  0.4474  0.0864
 7200TIP3   OH243014   4.122   2.371  12.089  0.1259 -0.4551  0.1404
 7200TIP3    H143015   4.173   2.320  12.152  0.6508 -0.2131 -0.0829
 7200TIP3    H243016   4.031   2.361  12.117  0.3741 -0.1682  1.0738
 7201TIP3   OH243017   1.385   3.077   2.871  0.7449 -0.2067  0.4543
 7201TIP3    H143018   1.464   3.131   2.869 -0.6833  2.0086  0.2416
 7201TIP3    H243019   1.383   3.040   2.959  2.1202 -0.5322  0.3822
 7202TIP3   OH243020   3.199   1.324  16.675 -0.4967  0.3650  0.0432
 7202TIP3    H143021   3.178   1.372  16.756  3.1969 -1.3796  2.3241
 7202TIP3    H243022   3.272   1.373  16.637 -1.5935  0.6311 -1.8423
 7203TIP3   OH243023   6.238   4.004  16.691  0.6295  0.1211 -0.0651
 7203TIP3    H143024   6.191   3.949  16.754  1.0750  1.0401  1.0905
 7203TIP3    H243025   6.331   3.994  16.715  0.7691  0.8022 -0.3136
 7204TIP3   OH243026   0.094   5.925   3.001 -0.2054 -0.2773  0.4469
 7204TIP3    H143027   0.095   6.006   3.053  2.3133 -0.7026  1.1973
 7204TIP3    H243028   0.034   5.867   3.048 -0.9258  0.6520  0.6976
 7205TIP3   OH243029   5.680   1.858   0.002  0.2150 -0.2175 -0.4478
 7205TIP3    H143030   5.707   1.949   0.012 -2.4039  0.5547  0.6611
 7205TIP3    H243031   5.660   1.848  -0.091 -0.5423  0.7153 -0.4027
 7206TIP3   OH243032   6.520   5.158  15.248 -0.2775 -0.4235 -0.1439
 7206TIP3    H143033   6.537   5.228  15.185 -0.5465 -1.1943 -1.1054
 7206TIP3    H243034   6.526   5.201  15.334 -0.2456  0.7250 -0.6962
 7207TIP3   OH243035   6.675   0.691   2.521 -0.8997  0.3421  0.1515
 7207TIP3    H143036   6.741   0.761   2.526 -1.4832  1.0680 -1.4374
 7207TIP3    H243037   6.609   0.725   2.460 -0.6512 -2.0098 -1.5901
 7208TIP3   OH243038   1.670   5.088   1.220  0.0160 -0.2324 -0.3763
 7208TIP3    H143039   1.666   5.062   1.312 -0.8979  0.9457 -0.0486
 7208TIP3    H243040   1.738   5.156   1.218 -0.1282 -0.0936 -0.5242
 7209TIP3   OH243041   6.559   2.058   1.552  0.1977 -0.4541  0.1022
 7209TIP3    H143042   6.621   1.989   1.527  0.4749  0.1115 -0.8364
 7209TIP3    H243043   6.478   2.036   1.506  0.6579  0.4967 -1.2456
 7210TIP3   OH243044   4.255   5.907  10.871  0.2057 -0.5472 -0.1385
 7210TIP3    H143045   4.317   5.970  10.835 -1.7722  1.3661 -0.3986
 7210TIP3    H243046   4.179   5.912  10.814 -1.0178 -1.2622  1.3372
 7211TIP3   OH243047   5.526   4.409   2.842  0.4376 -0.4544 -1.0121
 7211TIP3    H143048   5.508   4.501   2.824 -0.4536  0.0077  1.7484
 7211TIP3    H243049   5.539   4.369   2.756 -1.0669  1.8491 -2.3943
 7212TIP3   OH243050   5.042   2.612  14.634  0.3464 -0.0607 -0.0141
 7212TIP3    H143051   4.963   2.567  14.665  1.2878 -1.6486  0.2184
 7212TIP3    H243052   5.021   2.638  14.544  0.0956 -1.9308 -0.5404
 7213TIP3   OH243053   6.334   5.799   1.063  0.4054 -0.3514  0.2989
 7213TIP3    H143054   6.262   5.748   1.026 -1.2051  1.4037  0.8624
 7213TIP3    H243055   6.349   5.870   1.000 -0.9737  1.4688  1.9072
 7214TIP3   OH243056   2.675   1.917  16.698 -0.0079 -0.5922 -0.2153
 7214TIP3    H143057   2.645   1.836  16.741  1.6483 -1.8427 -1.2726
 7214TIP3    H243058   2.771   1.914  16.706  0.0779  1.5609  0.1609
 7215TIP3   OH243059   5.496   1.120  12.597 -0.0742  0.1923 -0.2771
 7215TIP3    H143060   5.505   1.215  12.591 -1.5378  0.2760 -1.7375
 7215TIP3    H243061   5.562   1.086  12.536  0.5628  0.2373  0.3677
 7216TIP3   OH243062   3.640   0.498   0.392 -0.5216  0.0454 -0.3856
 7216TIP3    H143063   3.641   0.402   0.393 -1.2834  0.0235 -1.0597
 7216TIP3    H243064   3.643   0.521   0.300 -3.5469  0.5920 -0.4579
 7217TIP3   OH243065   6.415   1.013  11.251  0.9818  0.2344 -0.0550
 7217TIP3    H143066   6.449   1.049  11.333  1.5495 -0.7083  0.1411
 7217TIP3    H243067   6.488   1.022  11.189  1.0929 -0.4727 -0.0307
 7218TIP3   OH243068   2.594   2.109  13.812 -0.2457 -0.1247  1.0088
 7218TIP3    H143069   2.681   2.133  13.845 -1.5022  3.0540  2.4777
 7218TIP3    H243070   2.563   2.041  13.871  1.5251 -2.0092 -0.1173
 7219TIP3   OH243071   5.557   3.774  11.554  0.2224 -0.3459 -0.1097
 7219TIP3    H143072   5.639   3.814  11.583  0.0839  0.4007 -0.6933
 7219TIP3    H243073   5.579   3.733  11.470 -0.0663  0.1275 -0.4214
 7220TIP3   OH243074   1.067   0.608   0.938 -0.5808  0.0924 -0.2817
 7220TIP3    H143075   0.992   0.549   0.933  1.4514 -2.9344  1.6869
 7220TIP3    H243076   1.114   0.593   0.856 -2.0475  2.0910 -1.5782
 7221TIP3   OH243077   2.537   6.327   4.102  0.2260  0.3095  0.1185
 7221TIP3    H143078   2.578   6.351   4.185 -1.8129  1.7949  0.7874
 7221TIP3    H243079   2.535   6.408   4.051 -1.2303  0.1657 -0.1167
 7222TIP3   OH243080   1.516   1.077   0.459  0.1436 -1.1668 -0.2468
 7222TIP3    H143081   1.600   1.077   0.412  1.1111 -0.3479  1.4100
 7222TIP3    H243082   1.531   1.132   0.536 -0.9127 -3.5216  1.8054
 7223TIP3   OH243083   2.129   5.619  11.115  0.1391  0.4215 -0.5346
 7223TIP3    H143084   2.131   5.563  11.192 -1.9559 -1.2378 -1.5592
 7223TIP3    H243085   2.206   5.595  11.065  0.7549  0.5019  0.3493
 7224TIP3   OH243086   3.245   0.004   0.861  0.4849  0.1907  0.4632
 7224TIP3    H143087   3.248  -0.048   0.941 -0.8882  0.6335  0.8432
 7224TIP3    H243088   3.194  -0.049   0.800  0.7555  0.2429  0.1933
 7225TIP3   OH243089   0.195   3.284   3.489  0.0315 -0.0999  0.5012
 7225TIP3    H143090   0.283   3.296   3.451 -0.3577  2.6906  0.2901
 7225TIP3    H243091   0.207   3.299   3.582 -0.2878  1.0083  0.3833
 7226TIP3   OH243092   6.715   3.131  12.578  1.1724  0.4375 -0.0430
 7226TIP3    H143093   6.770   3.082  12.517  1.1854 -0.0797  0.3775
 7226TIP3    H243094   6.778   3.175  12.635  1.2143 -1.6379  1.6381
 7227TIP3   OH243095   2.181   5.723   2.451  0.4234 -0.4872  0.3350
 7227TIP3    H143096   2.120   5.760   2.387 -0.7725 -0.5120  1.4152
 7227TIP3    H243097   2.227   5.799   2.487  0.9446 -0.4556 -0.3679
 7228TIP3   OH243098   0.506   3.411   2.130 -0.0683 -0.8017  0.0728
 7228TIP3    H143099   0.415   3.401   2.158  0.3795 -1.4518  1.3895
 7228TIP3    H243100   0.550   3.451   2.205  0.3969  1.1967 -1.2023
 7229TIP3   OH243101   3.543   4.877   1.052 -0.1473  0.2470 -0.0584
 7229TIP3    H143102   3.498   4.867   0.969 -1.7741  0.3849  0.7613
 7229TIP3    H243103   3.542   4.790   1.092  1.9572 -0.1689 -0.7746
 7230TIP3   OH243104   0.687   2.070   2.735  0.4374  0.4926 -0.5721
 7230TIP3    H143105   0.775   2.054   2.769 -0.3386  0.0744  1.3704
 7230TIP3    H243106   0.629   2.034   2.802 -1.2212  0.7322 -1.8292
 7231TIP3   OH243107   5.313   3.845   2.538 -0.3502 -0.3150 -0.1856
 7231TIP3    H143108   5.405   3.860   2.557 -0.1288 -3.4936  1.9297
 7231TIP3    H243109   5.267   3.895   2.606  0.0075 -1.6834  1.1026
 7232TIP3   OH243110   0.314   3.034  12.785  0.5785 -0.1017  0.7807
 7232TIP3    H143111   0.338   3.067  12.699  1.5364 -0.5869  0.8471
 7232TIP3    H243112   0.288   2.943  12.771 -3.3737  0.9234  0.3926
 7233TIP3   OH243113   5.997   3.278   1.076  0.3179  0.3294 -0.5223
 7233TIP3    H143114   6.020   3.371   1.085 -1.9457  0.8345  0.8228
 7233TIP3    H243115   6.056   3.233   1.137 -0.7727  1.3433  1.3813
 7234TIP3   OH243116   1.446   2.586  12.962  0.0959 -0.5681  0.1843
 7234TIP3    H143117   1.460   2.669  13.008 -0.7496  0.2956 -1.0530
 7234TIP3    H243118   1.351   2.578  12.954 -0.0197 -2.9997  2.5507
 7235TIP3   OH243119   2.311   1.872   3.307  0.7637  0.5700  0.1022
 7235TIP3    H143120   2.259   1.920   3.371 -1.0052  0.0807 -0.8899
 7235TIP3    H243121   2.399   1.869   3.344  0.2671  2.0857  1.5050
 7236TIP3   OH243122   3.322   5.841   0.951 -0.0734 -0.6409  0.1765
 7236TIP3    H143123   3.404   5.846   0.901  0.7137 -0.8283  1.4065
 7236TIP3    H243124   3.253   5.842   0.884  0.9369 -0.8348 -0.9032
 7237TIP3   OH243125   4.517   4.396   3.886 -0.8364  0.2791 -0.2225
 7237TIP3    H143126   4.544   4.484   3.913 -0.7509 -0.2665  1.6348
 7237TIP3    H243127   4.426   4.388   3.916 -0.7132 -0.3945  0.0019
 7238TIP3   OH243128   0.311   5.801  13.029  0.6500 -0.1016  0.2916
 7238TIP3    H143129   0.392   5.851  13.016 -0.8909  1.8618 -3.1974
 7238TIP3    H243130   0.244   5.867  13.046 -0.9881 -1.1391 -1.6897
 7239TIP3   OH243131   0.936   2.351   1.910 -0.0171 -0.0634 -0.3629
 7239TIP3    H143132   0.937   2.287   1.838 -1.7022  1.6255 -1.9937
 7239TIP3    H243133   0.912   2.433   1.868 -1.4340  0.9276  2.2029
 7240TIP3   OH243134   1.422   0.550   0.667 -0.6512  0.0314  0.6462
 7240TIP3    H143135   1.447   0.578   0.755  0.6457 -1.1242  0.6883
 7240TIP3    H243136   1.428   0.629   0.614 -2.3647  0.9534  1.7358
 7241TIP3   OH243137   5.619   2.793   1.296 -0.2657  0.1800  0.6454
 7241TIP3    H143138   5.631   2.836   1.211 -0.8722  1.5381  1.2054
 7241TIP3    H243139   5.662   2.853   1.359  2.4920 -2.0377  1.0786
 7242TIP3   OH243140   0.499   2.992  14.110 -0.4264  0.0028  0.0819
 7242TIP3    H143141   0.475   2.935  14.183  0.7587 -0.5372  0.0761
 7242TIP3    H243142   0.475   2.942  14.032  1.1153 -0.7667  0.0656
 7243TIP3   OH243143   5.367   4.592  14.555 -0.1522  0.5349  0.3641
 7243TIP3    H143144   5.460   4.602  14.575  0.5909 -0.0792 -2.4199
 7243TIP3    H243145   5.359   4.504  14.519 -1.4705  1.1964 -1.0793
 7244TIP3   OH243146   5.613   2.660  11.402 -0.6743  0.1754  0.1030
 7244TIP3    H143147   5.572   2.574  11.413 -0.0599  0.0412  1.7071
 7244TIP3    H243148   5.556   2.720  11.452 -0.5608  0.5194 -0.1764
 7245TIP3   OH243149   3.078   4.614  17.144 -0.0463  0.5382  0.3944
 7245TIP3    H143150   3.147   4.618  17.210 -0.5447 -2.4899  1.2411
 7245TIP3    H243151   3.123   4.585  17.065 -0.3062 -2.2024  1.1360
 7246TIP3   OH243152   5.849   6.565  15.164  0.2303 -0.1309 -0.5821
 7246TIP3    H143153   5.765   6.522  15.148  0.4011 -0.6419 -0.1313
 7246TIP3    H243154   5.832   6.624  15.238  0.7178 -1.6812  0.8440
 7247TIP3   OH243155   4.319   6.162  11.342  0.1393  0.2177  0.1330
 7247TIP3    H143156   4.330   6.255  11.324 -0.5350 -0.0692 -1.9286
 7247TIP3    H243157   4.320   6.120  11.256  1.2200 -1.7938  1.0446
 7248TIP3   OH243158   2.097   4.969   6.533 -0.9157 -0.0997 -0.0593
 7248TIP3    H143159   2.192   4.973   6.544 -0.7664 -2.0203 -0.1761
 7248TIP3    H243160   2.084   4.937   6.444 -1.6802  0.3130 -0.1033
 7249TIP3   OH243161   3.753   1.903  16.911 -0.5653  0.0752 -0.4543
 7249TIP3    H143162   3.740   1.990  16.874  3.8821  0.5813 -1.4526
 7249TIP3    H243163   3.826   1.914  16.973 -1.3566 -2.5680  1.1152
 7250TIP3   OH243164   0.111   6.259  13.417  0.3214 -0.3220  0.1725
 7250TIP3    H143165   0.031   6.208  13.405  0.2369 -0.2835  0.5734
 7250TIP3    H243166   0.151   6.261  13.330 -0.6663  0.5893 -0.2856
 7251TIP3   OH243167   2.938   4.635   6.539  0.3953  0.0758  0.5362
 7251TIP3    H143168   3.021   4.671   6.568  0.9537 -1.1107  0.4862
 7251TIP3    H243169   2.946   4.541   6.554 -0.4784 -0.2073 -0.5831
 7252TIP3   OH243170   3.091   2.928   6.037  0.1050  0.2171 -0.5253
 7252TIP3    H143171   3.044   3.011   6.040 -0.3414  0.0090 -1.3687
 7252TIP3    H243172   3.112   2.909   6.128 -2.4905 -0.2595  0.0520
 7253TIP3   OH243173   5.282   1.215  13.807 -0.2730  0.2713 -0.4029
 7253TIP3    H143174   5.212   1.150  13.817 -0.3258  0.3755 -0.0894
 7253TIP3    H243175   5.292   1.253  13.894 -0.5309  0.9868 -0.6744
 7254TIP3   OH243176   2.731   6.453   4.823  0.3128 -0.2827  0.0632
 7254TIP3    H143177   2.766   6.520   4.765  0.7478 -0.0527  0.5823
 7254TIP3    H243178   2.809   6.415   4.865 -0.0646  0.5402  1.5692
 7255TIP3   OH243179   5.158   2.267  13.628  0.3931 -0.0509 -0.4424
 7255TIP3    H143180   5.158   2.205  13.701 -0.8814  0.6197  0.1822
 7255TIP3    H243181   5.128   2.216  13.553 -0.0197 -0.3584 -0.0789
 7256TIP3   OH243182   3.769   3.391  17.098 -0.4380 -0.4300  0.1176
 7256TIP3    H143183   3.733   3.335  17.029 -0.6274  0.8985 -0.8919
 7256TIP3    H243184   3.830   3.334  17.145 -1.8430 -1.9513  0.1777
 7257TIP3   OH243185   6.556   3.686   3.044 -0.1479  0.3538  0.5461
 7257TIP3    H143186   6.589   3.692   3.134 -0.2812  0.7377  0.5703
 7257TIP3    H243187   6.573   3.595   3.019 -1.3429 -0.1506  1.4383
 7258TIP3   OH243188   4.390   1.095   0.194  0.1697 -0.2025  0.5015
 7258TIP3    H143189   4.328   1.065   0.128 -0.7184  2.0441  0.2094
 7258TIP3    H243190   4.348   1.076   0.277  0.3147 -1.0873  0.3798
 7259TIP3   OH243191   5.451   0.146   5.313 -0.4018 -0.3652 -0.5429
 7259TIP3    H143192   5.545   0.132   5.303 -0.4285 -1.0992  0.2077
 7259TIP3    H243193   5.442   0.193   5.396 -0.5635  1.4489 -1.5359
 7260TIP3   OH243194   3.032   2.845  11.211 -0.0096 -0.1290  0.0837
 7260TIP3    H143195   3.063   2.758  11.235  0.2522  0.0517  0.4004
 7260TIP3    H243196   2.941   2.832  11.184 -0.0042 -0.4810  0.2396
 7261TIP3   OH243197   0.601   4.367   4.655 -0.1784 -0.5567 -0.1189
 7261TIP3    H143198   0.684   4.403   4.685 -0.9061  0.7233  0.4608
 7261TIP3    H243199   0.570   4.430   4.590 -1.0632 -0.5963  0.2511
 7262TIP3   OH243200   1.530   1.597  11.077  0.1235 -0.3913 -0.0867
 7262TIP3    H143201   1.494   1.671  11.029 -0.3303  0.3417  1.3302
 7262TIP3    H243202   1.454   1.547  11.106  0.2505  0.2873  1.5541
 7263TIP3   OH243203   6.574   0.170   3.620 -0.4203 -0.4981  0.4261
 7263TIP3    H143204   6.579   0.138   3.710  0.3807 -0.1146  0.5265
 7263TIP3    H243205   6.526   0.252   3.626  1.2080  0.4699  0.7870
 7264TIP3   OH243206   5.786   2.594   1.140 -0.4598  0.5092 -1.1483
 7264TIP3    H143207   5.717   2.552   1.090 -0.8586 -0.5163  0.2025
 7264TIP3    H243208   5.740   2.646   1.206  0.0418  0.8326 -1.0495
 7265TIP3   OH243209   3.752   2.191   2.960  0.4373 -0.6748 -0.4490
 7265TIP3    H143210   3.660   2.167   2.952  0.3382 -1.5528  2.2124
 7265TIP3    H243211   3.764   2.266   2.901 -1.2047 -2.3517 -3.0742
 7266TIP3   OH243212   2.352   0.382   3.857 -1.0515  0.2101 -0.0251
 7266TIP3    H143213   2.369   0.306   3.913 -0.2079  1.0154  0.8461
 7266TIP3    H243214   2.413   0.449   3.888 -1.1562  0.9632 -1.3631
 7267TIP3   OH243215   1.158   3.657  13.852  0.2604 -0.3291  0.6452
 7267TIP3    H143216   1.220   3.589  13.878  0.6150 -0.5240 -0.6475
 7267TIP3    H243217   1.131   3.698  13.934  2.8499  0.4393  1.1897
 7268TIP3   OH243218   5.530   4.816  16.539 -0.4051 -0.6367 -0.6861
 7268TIP3    H143219   5.528   4.823  16.443  0.5015  0.7527 -0.6353
 7268TIP3    H243220   5.510   4.905  16.569  2.0693 -0.3720  0.3452
 7269TIP3   OH243221   1.885   1.315  13.285  0.2837  0.5606 -0.7013
 7269TIP3    H143222   1.826   1.389  13.299 -0.3988 -0.1620  0.3097
 7269TIP3    H243223   1.866   1.286  13.196 -0.3346  0.8287 -0.6621
 7270TIP3   OH243224   1.645   4.763   5.334 -0.3332 -0.1993  0.2342
 7270TIP3    H143225   1.571   4.823   5.347 -0.0296  0.3174 -0.3769
 7270TIP3    H243226   1.720   4.821   5.319  0.2373 -0.7159  1.0355
 7271TIP3   OH243227   5.928   2.461  11.871  0.1023  0.0726  0.1185
 7271TIP3    H143228   6.005   2.420  11.911 -0.8042  0.1650  2.0349
 7271TIP3    H243229   5.901   2.399  11.803 -1.6871 -3.0745  3.3991
 7272TIP3   OH243230   5.983   5.773  16.306  0.4496  0.3019 -0.0934
 7272TIP3    H143231   5.987   5.679  16.293  0.0064 -0.0464  1.8695
 7272TIP3    H243232   6.073   5.803  16.300  0.3865  0.1615 -2.9654
 7273TIP3   OH243233   1.065   3.800   2.067 -0.4365  0.3078  0.6487
 7273TIP3    H143234   1.117   3.748   2.128  1.1964  0.0077 -0.9189
 7273TIP3    H243235   0.978   3.758   2.068  0.0201 -0.6527  1.5531
 7274TIP3   OH243236   6.175   6.367   3.663  0.3811 -0.0970 -0.4487
 7274TIP3    H143237   6.190   6.454   3.699  0.4446  0.0142 -0.7419
 7274TIP3    H243238   6.225   6.308   3.721  0.3952  0.0666 -0.2933
 7275TIP3   OH243239   1.160   2.030   2.902 -0.5685  0.3886  0.4346
 7275TIP3    H143240   1.157   1.940   2.936  1.9520 -1.2986 -3.0790
 7275TIP3    H243241   1.242   2.065   2.936  0.3875 -0.1705 -1.1572
 7276TIP3   OH243242   6.379   5.199  11.971 -0.3351 -0.1089  0.1885
 7276TIP3    H143243   6.293   5.166  11.947 -1.1016  1.5316  0.5884
 7276TIP3    H243244   6.364   5.288  12.002  1.4517  0.0792  0.6630
 7277TIP3   OH243245   2.214   2.556  14.986 -0.1174 -0.0227 -0.0304
 7277TIP3    H143246   2.273   2.631  14.979 -2.1546  1.6665 -0.2433
 7277TIP3    H243247   2.126   2.595  14.991 -1.1207 -2.2800  2.7871
 7278TIP3   OH243248   4.320   0.248  12.925  0.0420  0.5626 -0.5937
 7278TIP3    H143249   4.270   0.235  13.005  0.7672 -0.6017 -0.3010
 7278TIP3    H243250   4.254   0.264  12.858 -0.6819 -0.1880 -0.0794
 7279TIP3   OH243251   3.431   2.659  10.494 -0.4884  0.1982 -0.0265
 7279TIP3    H143252   3.423   2.613  10.410 -0.4997 -1.0407  0.6284
 7279TIP3    H243253   3.348   2.642  10.538  0.7380 -2.0733  1.6109
 7280TIP3   OH243254   1.832   6.447   5.652 -0.0744  0.0902 -0.3140
 7280TIP3    H143255   1.841   6.358   5.617 -0.6994 -0.7717  1.5787
 7280TIP3    H243256   1.845   6.437   5.746 -0.4534  1.9694 -0.0213
 7281TIP3   OH243257   3.102   0.374  16.978  0.0363  0.4202 -0.0656
 7281TIP3    H143258   3.195   0.351  16.985 -0.0371  0.6405  2.3883
 7281TIP3    H243259   3.102   0.466  16.952  0.6823  1.5385  3.4167
 7282TIP3   OH243260   3.557   1.817  11.404 -0.4489 -0.1740 -0.3476
 7282TIP3    H143261   3.469   1.779  11.403 -1.0844  1.1925 -1.6926
 7282TIP3    H243262   3.543   1.911  11.391  1.2043  0.1204 -0.2913
 7283TIP3   OH243263   1.744   4.482  13.895 -0.4356  0.4071  0.5126
 7283TIP3    H143264   1.713   4.463  13.984 -0.1802 -1.9550  0.1626
 7283TIP3    H243265   1.665   4.479  13.841 -0.2971 -0.5078  0.3471
 7284TIP3   OH243266   4.135   0.888  15.148 -0.1761 -0.1268 -0.0753
 7284TIP3    H143267   4.056   0.912  15.198 -1.2201 -1.0070 -1.2318
 7284TIP3    H243268   4.133   0.793  15.145  0.4627 -0.1231 -0.8603
 7285TIP3   OH243269   2.439   1.573  15.444  0.0978 -0.1813  0.5297
 7285TIP3    H143270   2.378   1.613  15.382  0.1972 -0.7009  0.0856
 7285TIP3    H243271   2.526   1.588  15.405  0.1911 -0.1318  0.7570
 7286TIP3   OH243272   5.534   3.373   4.421 -0.3991 -0.4466 -0.1737
 7286TIP3    H143273   5.516   3.294   4.473 -0.4379 -1.5041 -1.7199
 7286TIP3    H243274   5.615   3.408   4.458  0.2115 -1.8288 -0.1344
 7287TIP3   OH243275   2.169   1.056  10.766  0.0495 -0.0617 -0.0499
 7287TIP3    H143276   2.197   1.088  10.680 -2.2881  0.2684 -0.7562
 7287TIP3    H243277   2.205   0.967  10.771 -0.2473 -0.3136 -1.6519
 7288TIP3   OH243278   6.586   4.006   2.223 -0.2974  0.2995  0.5484
 7288TIP3    H143279   6.570   3.957   2.303  0.4601  0.8098  1.0224
 7288TIP3    H243280   6.678   4.030   2.227 -0.4109  0.9001 -0.1633
 7289TIP3   OH243281   1.984   0.768   2.217  0.5642  0.1588 -0.0323
 7289TIP3    H143282   2.072   0.731   2.217  0.7608  0.6118 -0.4044
 7289TIP3    H243283   1.926   0.693   2.229  1.0126 -0.1131  0.4641
 7290TIP3   OH243284   6.657   1.394  13.324  0.4906  1.0401  0.0991
 7290TIP3    H143285   6.607   1.391  13.405  0.7155 -1.1176  0.2052
 7290TIP3    H243286   6.687   1.304  13.310  2.3965  1.7989 -1.1781
 7291TIP3   OH243287   3.900   3.710   4.630  0.3092 -0.1043  0.1659
 7291TIP3    H143288   3.921   3.797   4.665  0.7729  0.6817 -1.9263
 7291TIP3    H243289   3.806   3.715   4.609  0.7312  0.6344 -1.7712
 7292TIP3   OH243290   6.180   2.123  15.949  0.3352  0.1091 -0.6417
 7292TIP3    H143291   6.175   2.168  16.033 -0.8440 -0.2727 -0.4812
 7292TIP3    H243292   6.147   2.035  15.968 -0.0859  0.0669 -1.5300
 7293TIP3   OH243293   3.995   5.529   5.434  0.5842  0.3700  0.1107
 7293TIP3    H143294   3.935   5.604   5.443 -1.2846 -0.9271 -0.8980
 7293TIP3    H243295   3.966   5.484   5.355  1.9187 -1.2237  0.4714
 7294TIP3   OH243296   0.421   0.348  15.000  0.0337  0.1333  0.2793
 7294TIP3    H143297   0.386   0.433  15.025 -2.2904 -0.9429  1.0434
 7294TIP3    H243298   0.418   0.296  15.081 -0.7714 -1.3071 -0.6275
 7295TIP3   OH243299   2.595   4.723   0.412 -0.1535  0.8008 -0.2958
 7295TIP3    H143300   2.673   4.692   0.366 -0.2427  0.7072 -0.3831
 7295TIP3    H243301   2.568   4.649   0.467 -0.7386  0.4974 -0.9799
 7296TIP3   OH243302   4.858   2.788   0.004 -0.5055 -0.5206  0.1040
 7296TIP3    H143303   4.835   2.744   0.086  0.1887 -1.1949 -0.0446
 7296TIP3    H243304   4.780   2.779  -0.051 -1.2240  0.5329  0.9124
 7297TIP3   OH243305   1.478   4.133  12.662  0.2996 -0.2032 -0.4749
 7297TIP3    H143306   1.513   4.214  12.701  0.4137 -0.4632 -0.0374
 7297TIP3    H243307   1.383   4.141  12.673  0.2920 -0.0169 -0.6554
 7298TIP3   OH243308   6.668   2.333   2.248 -0.0568  0.6611 -0.2462
 7298TIP3    H143309   6.585   2.307   2.209  0.1149  1.9156 -1.5195
 7298TIP3    H243310   6.647   2.348   2.340 -0.3245 -3.0456  0.4660
 7299TIP3   OH243311   0.686   1.751  16.769  0.1276  0.1303  0.0125
 7299TIP3    H143312   0.708   1.678  16.711  0.6369 -1.0650  1.6377
 7299TIP3    H243313   0.612   1.720  16.820  1.3913  0.0195  1.9089
 7300TIP3   OH243314   3.575   3.633  13.118  0.2199 -0.1844 -0.4760
 7300TIP3    H143315   3.582   3.540  13.094  0.3434  0.3370 -2.7553
 7300TIP3    H243316   3.664   3.667  13.106  0.5243 -0.0483  1.8502
 7301TIP3   OH243317   5.369   0.804  11.370  0.1760  0.2183  0.1080
 7301TIP3    H143318   5.452   0.835  11.406 -0.1105  0.3925  0.6297
 7301TIP3    H243319   5.305   0.820  11.440  0.0446 -1.7076  0.4835
 7302TIP3   OH243320   5.307   6.019   2.790  0.3539 -0.0492  0.4676
 7302TIP3    H143321   5.343   6.007   2.702  1.4082  0.1682  0.8455
 7302TIP3    H243322   5.260   6.103   2.786 -0.4981 -0.5454 -0.1515
 7303TIP3   OH243323   3.266   2.183  14.842 -0.3529  0.4975  0.7682
 7303TIP3    H143324   3.315   2.257  14.876  3.3082 -0.7559 -1.2293
 7303TIP3    H243325   3.307   2.106  14.882 -0.2763 -0.6589 -1.3615
 7304TIP3   OH243326   1.390   3.186   1.922  0.3861 -0.3214 -0.7504
 7304TIP3    H143327   1.362   3.260   1.869  0.3671 -0.0182 -0.3258
 7304TIP3    H243328   1.354   3.109   1.877 -3.7759  0.1807  1.2575
 7305TIP3   OH243329   0.219   4.005  13.113  0.0143 -0.2155 -0.2892
 7305TIP3    H143330   0.189   4.065  13.181  0.5103 -0.1201 -0.1532
 7305TIP3    H243331   0.293   4.050  13.072 -1.3054  0.4865 -2.0262
 7306TIP3   OH243332   3.452   2.358   2.972  0.5302  0.5261  0.3724
 7306TIP3    H143333   3.384   2.324   3.030  0.7970  0.6787  0.7730
 7306TIP3    H243334   3.459   2.291   2.903 -1.9448  1.7448 -1.2504
 7307TIP3   OH243335   4.790   2.290  17.111  0.2762  0.0921 -0.8441
 7307TIP3    H143336   4.834   2.362  17.067  0.6894  0.0444 -0.5171
 7307TIP3    H243337   4.731   2.332  17.173 -0.5205  0.1636 -1.6342
 7308TIP3   OH243338   0.609   1.666  17.144 -0.2028  0.3746 -0.9143
 7308TIP3    H143339   0.595   1.644  17.236 -0.0173  0.7033 -0.8053
 7308TIP3    H243340   0.607   1.582  17.098  1.1088  0.0623 -0.4280
 7309TIP3   OH243341   6.054   1.438  15.623 -0.2974 -0.4324 -0.4560
 7309TIP3    H143342   6.097   1.385  15.557  0.1126  0.5335 -0.9900
 7309TIP3    H243343   5.985   1.484  15.575 -0.0546  0.2047 -0.2013
 7310TIP3   OH243344   1.178   1.045  10.894 -0.1375 -0.4497  0.2874
 7310TIP3    H143345   1.159   1.121  10.948 -1.3620  1.4184 -2.5031
 7310TIP3    H243346   1.274   1.046  10.886 -0.1742  1.9294 -1.0020
 7311TIP3   OH243347   6.482   3.079   1.649 -0.5146  0.5655  0.1379
 7311TIP3    H143348   6.422   3.009   1.673  0.3317 -0.0717  0.4482
 7311TIP3    H243349   6.543   3.085   1.723 -0.3078  1.3227 -0.0837
 7312TIP3   OH243350   1.773   5.695  12.373 -0.3322 -0.0797 -0.5433
 7312TIP3    H143351   1.751   5.770  12.428 -0.4282  0.7353 -1.6546
 7312TIP3    H243352   1.698   5.636  12.382 -0.5724  0.2735 -0.1872
 7313TIP3   OH243353   2.251   5.113   0.900 -0.3706 -0.3011  0.4061
 7313TIP3    H143354   2.258   5.203   0.929 -2.0650 -0.2771  0.8263
 7313TIP3    H243355   2.185   5.115   0.831  1.0509 -0.9216 -1.0448
 7314TIP3   OH243356   0.608   4.968   5.102 -0.1789 -0.1193 -0.3163
 7314TIP3    H143357   0.559   4.926   5.031 -0.3447 -0.8342  0.2066
 7314TIP3    H243358   0.661   5.035   5.058  1.8564 -2.3608 -1.5428
 7315TIP3   OH243359   2.191   0.261  16.453  1.0148 -0.4547  0.1671
 7315TIP3    H143360   2.122   0.207  16.413  0.1880 -0.4098  1.4874
 7315TIP3    H243361   2.272   0.215  16.431  0.4713 -1.2177 -0.3067
 7316TIP3   OH243362   1.769   6.745  16.680 -0.1543 -0.1114  0.1311
 7316TIP3    H143363   1.735   6.694  16.606 -0.4729  0.4161 -0.0864
 7316TIP3    H243364   1.863   6.754  16.661 -0.0948 -0.6008  0.1658
 7317TIP3   OH243365   0.460   1.068   2.072  0.6778 -0.0477  0.1176
 7317TIP3    H143366   0.463   1.148   2.123  3.8777 -0.4304  0.7226
 7317TIP3    H243367   0.447   1.098   1.982  1.7022  1.1459  0.3460
 7318TIP3   OH243368   2.620   4.026  14.173  0.3795  0.0255 -0.2740
 7318TIP3    H143369   2.675   4.088  14.125  0.3180 -0.7768 -1.4209
 7318TIP3    H243370   2.590   3.964  14.106  0.8078 -1.5150  0.8947
 7319TIP3   OH243371   6.011   4.780  12.513  0.9299 -0.2807 -0.2816
 7319TIP3    H143372   6.068   4.815  12.581  2.5426 -2.7940 -0.2104
 7319TIP3    H243373   6.017   4.842  12.441  1.8842  0.6975  0.6110
 7320TIP3   OH243374   0.140   1.338  10.785 -0.4443 -0.0573 -0.1096
 7320TIP3    H143375   0.190   1.405  10.739 -1.1331  0.5479 -0.0060
 7320TIP3    H243376   0.087   1.386  10.848 -0.6499 -0.7406  0.2576
 7321TIP3   OH243377   6.624   2.093  16.356 -0.0511 -0.4239  0.1425
 7321TIP3    H143378   6.607   2.156  16.286 -1.3968 -1.3043 -0.3466
 7321TIP3    H243379   6.582   2.131  16.433  0.2501 -0.1167  0.1590
 7322TIP3   OH243380   5.736   3.440  12.598 -0.3335 -0.0326  0.1179
 7322TIP3    H143381   5.753   3.530  12.570 -0.4461  0.4595  1.5178
 7322TIP3    H243382   5.640   3.436  12.606 -0.4101 -0.6055 -0.9126
 7323TIP3   OH243383   4.236   1.370   4.339  0.2939 -0.0371 -1.0772
 7323TIP3    H143384   4.313   1.422   4.317  1.2495 -0.2890  1.3371
 7323TIP3    H243385   4.256   1.282   4.307  0.0707  0.3428 -2.3018
 7324TIP3   OH243386   3.508   3.937   5.678 -0.3311  0.0380 -0.2465
 7324TIP3    H143387   3.486   3.943   5.771 -1.2628  1.0436 -0.5067
 7324TIP3    H243388   3.429   3.967   5.633  1.2448  3.0820 -1.2646
 7325TIP3   OH243389   2.128   6.275   1.777  0.2207  0.5133  0.0975
 7325TIP3    H143390   2.041   6.236   1.780  0.6681 -0.6388 -0.8876
 7325TIP3    H243391   2.186   6.203   1.751  1.5648  1.0989  1.2898
 7326TIP3   OH243392   4.933   0.668   2.508  0.3404  0.0716 -0.3010
 7326TIP3    H143393   4.917   0.629   2.422 -1.4023  1.5479 -0.6948
 7326TIP3    H243394   4.849   0.664   2.553  1.2214 -0.6899  1.3952
 7327TIP3   OH243395   2.647   2.387   2.467  0.9811  0.2839  0.0076
 7327TIP3    H143396   2.559   2.360   2.495  0.1835  1.9283 -0.7615
 7327TIP3    H243397   2.685   2.428   2.545 -0.4482  2.9829 -0.5857
 7328TIP3   OH243398   3.711   5.636   3.733 -0.1726  0.0409 -0.8901
 7328TIP3    H143399   3.768   5.665   3.804  1.9892 -0.1021 -2.4559
 7328TIP3    H243400   3.754   5.669   3.653 -1.5322 -1.2977 -2.2392
 7329TIP3   OH243401   5.454   0.647   1.985 -0.2776 -0.0248 -0.2286
 7329TIP3    H143402   5.419   0.568   1.945 -2.2367 -0.3476  1.9230
 7329TIP3    H243403   5.527   0.616   2.039 -0.7813 -0.3488  0.2868
 7330TIP3   OH243404   1.918   1.965   3.794 -0.0738 -0.1638 -0.2360
 7330TIP3    H143405   1.994   1.967   3.852 -0.7355  2.6257  0.6472
 7330TIP3    H243406   1.938   2.029   3.726 -0.7845 -0.8918 -1.1562
 7331TIP3   OH243407   6.767   6.360  16.552  0.4479 -0.2236  0.2369
 7331TIP3    H143408   6.688   6.385  16.504  2.4296  0.1687 -3.1555
 7331TIP3    H243409   6.785   6.270  16.525  1.4577 -0.1102  0.4723
 7332TIP3   OH243410   1.026   1.007   4.788 -0.8574  0.2546 -0.7128
 7332TIP3    H143411   1.073   1.088   4.808 -0.3618 -0.1960 -0.0162
 7332TIP3    H243412   1.026   0.958   4.870 -0.8379 -0.6067 -1.2167
 7333TIP3   OH243413   2.828   5.463  13.375 -0.5201  0.3585  0.0618
 7333TIP3    H143414   2.836   5.387  13.317  0.3765  0.5940 -0.1426
 7333TIP3    H243415   2.859   5.432  13.460  0.5465  0.6708 -0.1940
 7334TIP3   OH243416   4.735   6.547   0.432 -0.0085 -0.1720 -0.5310
 7334TIP3    H143417   4.644   6.520   0.442  0.0699 -0.4330 -0.5059
 7334TIP3    H243418   4.737   6.637   0.465 -0.1283 -0.3842  0.0676
 7335TIP3   OH243419   3.203   0.894  13.053 -0.1077  0.4949 -0.4675
 7335TIP3    H143420   3.267   0.898  13.124 -1.2432  1.2452  0.5600
 7335TIP3    H243421   3.254   0.873  12.976  1.0346 -1.4841  0.7368
 7336TIP3   OH243422   6.726   5.940  15.606  0.6681  0.3478 -0.6754
 7336TIP3    H143423   6.788   5.868  15.620  0.4543  0.4250  0.8320
 7336TIP3    H243424   6.781   6.013  15.579  1.2186  0.3029  0.2627
 7337TIP3   OH243425   1.326   6.156   2.578  0.3282 -0.1525 -0.3794
 7337TIP3    H143426   1.349   6.249   2.569 -0.9555  0.3364  0.9180
 7337TIP3    H243427   1.388   6.122   2.643  1.7965 -0.6298 -1.9715
 7338TIP3   OH243428   6.742   3.106   3.788  0.3952 -0.7112 -0.2553
 7338TIP3    H143429   6.796   3.108   3.709  1.1381 -0.6365  0.2452
 7338TIP3    H243430   6.685   3.029   3.777 -0.8322  0.3585 -1.7094
 7339TIP3   OH243431   5.946   6.152  10.188 -0.1915 -0.0547  0.0143
 7339TIP3    H143432   5.890   6.100  10.246  0.0981 -0.8386 -0.3895
 7339TIP3    H243433   6.035   6.121  10.208  0.1642  1.4050  0.8926
 7340TIP3   OH243434   6.277   1.525  13.829  0.1875  0.1725  0.2155
 7340TIP3    H143435   6.304   1.435  13.811  1.8845  0.7675 -0.3987
 7340TIP3    H243436   6.189   1.531  13.790  1.6579 -0.0868 -3.6251
 7341TIP3   OH243437   2.547   4.808  11.900 -0.3506  0.1592  0.2615
 7341TIP3    H143438   2.615   4.864  11.861 -0.2444  0.6987  1.1978
 7341TIP3    H243439   2.545   4.730  11.843  0.7878  0.2996 -0.0044
 7342TIP3   OH243440   5.714   6.746  13.561  0.0928  0.3521 -0.0405
 7342TIP3    H143441   5.777   6.736  13.489  0.0248 -1.8329  0.1473
 7342TIP3    H243442   5.735   6.676  13.622 -1.9377  0.1150  0.4709
 7343TIP3   OH243443   0.534   2.481  15.080 -0.4586  1.3622 -0.0861
 7343TIP3    H143444   0.617   2.487  15.033 -1.1376 -0.1464 -1.6136
 7343TIP3    H243445   0.558   2.482  15.173  1.5211 -1.1196 -0.4621
 7344TIP3   OH243446   1.752   4.879  12.346 -0.3360  0.0129 -0.1081
 7344TIP3    H143447   1.766   4.933  12.269  3.4774 -2.5155 -1.4275
 7344TIP3    H243448   1.664   4.844  12.334  0.3160 -0.7491 -3.7027
 7345TIP3   OH243449   5.173   1.283   0.592 -0.2988  0.4475 -0.4309
 7345TIP3    H143450   5.135   1.326   0.668  0.3512  1.4325 -0.6420
 7345TIP3    H243451   5.258   1.326   0.580  1.0418 -1.8434  0.1833
 7346TIP3   OH243452   2.260   6.222   1.069  0.4774  0.1922 -0.1396
 7346TIP3    H143453   2.319   6.275   1.015 -1.1099  1.6424 -0.5482
 7346TIP3    H243454   2.179   6.273   1.073 -1.1541 -2.2176 -0.5152
 7347TIP3   OH243455   3.157   3.377  14.881 -0.2251 -0.3206 -0.2118
 7347TIP3    H143456   3.252   3.379  14.871 -0.3231  3.6449 -2.3379
 7347TIP3    H243457   3.123   3.362  14.793 -1.4641  2.3325 -0.2861
 7348TIP3   OH243458   5.375   2.336  14.960  0.2108 -0.1842  0.4232
 7348TIP3    H143459   5.391   2.408  14.899  3.5232 -1.0930 -0.0040
 7348TIP3    H243460   5.336   2.377  15.036 -2.0134  1.3191 -1.4113
 7349TIP3   OH243461   0.618   6.165   1.339 -0.4589 -0.1801 -0.4298
 7349TIP3    H143462   0.559   6.092   1.359  0.4809 -0.6319  0.8725
 7349TIP3    H243463   0.578   6.209   1.264 -0.9882 -2.0978 -1.3359
 7350TIP3   OH243464   2.560   6.167   2.769 -0.3771  0.1025 -0.1018
 7350TIP3    H143465   2.628   6.109   2.734 -1.6077 -2.0917  0.8864
 7350TIP3    H243466   2.536   6.223   2.696  2.3720  0.9219 -0.5105
 7351TIP3   OH243467   2.739   2.195   1.120  0.1179  0.4072 -0.3068
 7351TIP3    H143468   2.777   2.139   1.052  0.5122  1.5143 -1.0185
 7351TIP3    H243469   2.669   2.243   1.075  0.7969  1.6179 -0.1235
 7352TIP3   OH243470   5.424   6.237  11.793 -0.3944 -0.3985 -0.6656
 7352TIP3    H143471   5.514   6.240  11.763 -0.8043 -0.8740 -2.0074
 7352TIP3    H243472   5.391   6.326  11.778  0.1420  0.0910  0.8674
 7353TIP3   OH243473   3.541   1.088  11.597  0.6427  0.7080 -0.0910
 7353TIP3    H143474   3.515   1.138  11.520  0.1673 -0.1943 -0.5284
 7353TIP3    H243475   3.633   1.068  11.582  0.4790  0.2966 -0.5633
 7354TIP3   OH243476   2.914   6.186  11.403  0.0563 -0.1039  0.1831
 7354TIP3    H143477   2.986   6.240  11.372 -2.0428  2.8797  0.0667
 7354TIP3    H243478   2.881   6.143  11.324  0.8068 -0.4116  0.0241
 7355TIP3   OH243479   6.538   0.692   1.786 -0.2099  0.0193  0.3756
 7355TIP3    H143480   6.540   0.597   1.782 -0.9024  0.0396 -1.2669
 7355TIP3    H243481   6.615   0.716   1.837  0.6420 -1.3719 -0.2109
 7356TIP3   OH243482   5.665   1.462  17.142  0.4898 -0.1511  0.3650
 7356TIP3    H143483   5.722   1.448  17.067  0.9427  0.7922  0.5241
 7356TIP3    H243484   5.667   1.379  17.189  1.2336 -0.3289  0.0360
 7357TIP3   OH243485   0.025   4.990  16.116  0.3297 -0.4540 -0.5556
 7357TIP3    H143486   0.089   4.923  16.139  0.4093  0.0055  0.6745
 7357TIP3    H243487  -0.048   4.975  16.176 -0.3053 -0.3764 -1.2961
 7358TIP3   OH243488   2.526   1.010   5.931 -0.2691  0.4895 -0.0555
 7358TIP3    H143489   2.612   1.053   5.932 -0.1715  0.2991  0.7525
 7358TIP3    H243490   2.543   0.925   5.891  0.2477 -0.1528  1.4293
 7359TIP3   OH243491   2.203   2.223  16.851 -0.1033 -0.5099 -0.3215
 7359TIP3    H143492   2.242   2.189  16.770  0.7728 -1.7895  0.6096
 7359TIP3    H243493   2.267   2.286  16.884 -1.0208  0.9713 -1.2209
 7360TIP3   OH243494   5.342   2.697   3.111  0.1137  0.4200 -0.5070
 7360TIP3    H143495   5.298   2.668   3.191 -1.4449  1.5162 -0.9361
 7360TIP3    H243496   5.414   2.753   3.143  0.3929 -0.2956  0.1559
 7361TIP3   OH243497   4.207   6.209  11.042  0.0268 -0.8772  0.1124
 7361TIP3    H143498   4.302   6.213  11.057 -0.1829  0.2052  1.3502
 7361TIP3    H243499   4.195   6.245  10.954  0.6125  0.9966  0.7548
 7362TIP3   OH243500   4.119   4.741   0.243  0.4554 -0.0771 -0.1891
 7362TIP3    H143501   4.131   4.773   0.153  0.0120  0.4024 -0.0848
 7362TIP3    H243502   4.175   4.664   0.249  0.1609 -0.3647 -1.0126
 7363TIP3   OH243503   3.781   1.537   1.780 -0.2209 -0.1278  0.2640
 7363TIP3    H143504   3.786   1.441   1.771 -0.0074 -0.3143  2.0737
 7363TIP3    H243505   3.696   1.559   1.743 -0.4293 -1.0669  0.1400
 7364TIP3   OH243506   6.155   2.575  14.683  0.2523 -0.0049 -0.3259
 7364TIP3    H143507   6.118   2.496  14.724 -1.6001  0.6277 -0.6684
 7364TIP3    H243508   6.111   2.580  14.598 -0.3612  1.8621  0.0573
 7365TIP3   OH243509   5.398   0.493  12.962  0.3297 -0.2746 -0.1074
 7365TIP3    H143510   5.448   0.501  12.881 -0.5162  0.6099 -0.5568
 7365TIP3    H243511   5.403   0.580  13.003 -0.7404 -0.1976 -0.1124
 7366TIP3   OH243512   3.401   2.133  13.152 -0.3131 -0.1701  0.2568
 7366TIP3    H143513   3.418   2.077  13.077  0.9246 -1.2996  1.3303
 7366TIP3    H243514   3.463   2.206  13.142 -0.5066 -0.0475 -0.0724
 7367TIP3   OH243515   1.223   5.298   4.818 -0.1760  0.7195  0.4447
 7367TIP3    H143516   1.318   5.293   4.826 -0.1709 -1.6685 -0.2608
 7367TIP3    H243517   1.190   5.281   4.906  0.0680 -0.1429  0.3815
 7368TIP3   OH243518   3.915   5.005  16.195  0.1797  0.6715  0.1979
 7368TIP3    H143519   3.911   5.043  16.283  1.4846  0.6058  0.3108
 7368TIP3    H243520   3.960   5.072  16.143  1.3116 -0.1532  0.0888
 7369TIP3   OH243521   1.664   5.873   0.013  0.0303 -0.4485 -0.4687
 7369TIP3    H143522   1.713   5.953  -0.007 -1.2835 -0.2829 -3.4639
 7369TIP3    H243523   1.613   5.896   0.091  0.1479  1.4304 -0.8946
 7370TIP3   OH243524   2.328   5.575  14.025  0.1278 -0.0414 -0.2921
 7370TIP3    H143525   2.238   5.607  14.022 -0.2884 -0.7456  2.0135
 7370TIP3    H243526   2.327   5.509  14.095  2.7789  1.1672  1.0576
 7371TIP3   OH243527   5.344   6.364  13.506 -0.3957  0.5980  0.0019
 7371TIP3    H143528   5.325   6.270  13.513 -0.0263  0.5791  0.8347
 7371TIP3    H243529   5.349   6.380  13.412 -2.1323  0.1221 -0.2101
 7372TIP3   OH243530   2.225   1.015   5.206 -0.5659 -0.0269  0.3079
 7372TIP3    H143531   2.150   1.051   5.158  0.1343 -0.1162 -0.9070
 7372TIP3    H243532   2.186   0.966   5.278 -1.6226  1.0926  0.5388
 7373TIP3   OH243533   2.621   6.209  15.400 -0.3196 -0.0970  0.1918
 7373TIP3    H143534   2.581   6.164  15.327  0.2929 -2.1074  1.0393
 7373TIP3    H243535   2.663   6.140  15.452  0.5854  1.4270  1.6062
 7374TIP3   OH243536   3.382   5.119  13.121  0.2411  0.4146  0.0912
 7374TIP3    H143537   3.466   5.154  13.093 -0.0551  0.8002 -0.3404
 7374TIP3    H243538   3.403   5.045  13.179  0.8846  1.3331  1.0624
 7375TIP3   OH243539   5.105   1.097   0.404 -0.0301 -0.5724  0.0122
 7375TIP3    H143540   5.118   1.175   0.458 -0.0683 -1.4086  1.2670
 7375TIP3    H243541   5.040   1.045   0.451  0.8514 -1.9085 -0.1908
 7376TIP3   OH243542   1.177   4.823  16.057  0.1368  0.0884 -0.6794
 7376TIP3    H143543   1.166   4.760  15.985 -0.1125  0.7263 -1.2031
 7376TIP3    H243544   1.113   4.892  16.039  0.9359  0.8853 -0.5353
 7377TIP3   OH243545   4.125   0.493  13.399 -0.1716 -0.1912  0.2246
 7377TIP3    H143546   4.160   0.415  13.443 -1.0006 -0.5539  0.2465
 7377TIP3    H243547   4.172   0.566  13.441  1.1197 -0.6963 -0.2718
 7378TIP3   OH243548   4.061   2.305  11.329  0.3248  0.9413 -0.1268
 7378TIP3    H143549   4.013   2.333  11.407  0.1974  1.5819 -0.4250
 7378TIP3    H243550   3.992   2.287  11.264  0.4072 -0.0164  0.0347
 7379TIP3   OH243551   4.830   5.625  11.266 -0.3227 -0.1729  0.1135
 7379TIP3    H143552   4.755   5.649  11.320 -1.1472 -2.2917 -0.0169
 7379TIP3    H243553   4.906   5.658  11.315 -1.2534  1.2400  0.6699
 7380TIP3   OH243554   4.082   6.324  14.055 -0.4376 -0.2323 -0.2906
 7380TIP3    H143555   4.144   6.317  14.128 -1.5752 -2.1056  0.5775
 7380TIP3    H243556   4.034   6.242  14.057 -1.3580  0.1981 -2.4126
 7381TIP3   OH243557   5.171   5.284  14.797  0.1989  0.1844 -0.4886
 7381TIP3    H143558   5.119   5.351  14.842 -1.1222 -1.2708  0.2634
 7381TIP3    H243559   5.227   5.333  14.737 -1.6483  1.8841 -0.9285
 7382TIP3   OH243560   0.515   1.630  12.375 -0.6490 -0.2105  0.5160
 7382TIP3    H143561   0.502   1.589  12.460 -2.0337 -2.6335 -0.7579
 7382TIP3    H243562   0.436   1.683  12.361 -0.2155  0.5510  0.9066
 7383TIP3   OH243563   4.852   1.820   0.859 -0.5115 -0.5238 -0.0861
 7383TIP3    H143564   4.773   1.820   0.805  0.3071 -1.1000 -1.3299
 7383TIP3    H243565   4.846   1.900   0.910 -0.6745  0.7652 -2.0330
 7384TIP3   OH243566   2.449   6.562  11.648 -0.4706 -0.6113 -0.6003
 7384TIP3    H143567   2.376   6.517  11.605  1.6037 -2.2066 -2.6854
 7384TIP3    H243568   2.514   6.493  11.664  1.1806  0.9705 -0.1432
 7385TIP3   OH243569   1.309   4.977   5.127  0.7321 -0.0529  0.3020
 7385TIP3    H143570   1.383   4.935   5.083  1.1295  2.0022 -1.1628
 7385TIP3    H243571   1.342   5.063   5.153 -0.7759  0.4156  0.7669
 7386TIP3   OH243572   3.200   0.749  15.057 -0.1292  0.0547  0.9024
 7386TIP3    H143573   3.174   0.830  15.014 -2.1409 -0.3194  1.3115
 7386TIP3    H243574   3.178   0.680  14.995  2.0647 -0.2060  0.3358
 7387TIP3   OH243575   0.075   5.532  12.052 -0.0060  0.5252 -0.7001
 7387TIP3    H143576   0.017   5.497  12.120 -1.2586 -0.5278 -2.2324
 7387TIP3    H243577   0.015   5.569  11.987  1.1366  1.0785 -1.4598
 7388TIP3   OH243578   6.778   0.458  12.910  0.3528 -0.3294  0.8250
 7388TIP3    H143579   6.868   0.436  12.886  1.7129  3.2513  2.0377
 7388TIP3    H243580   6.734   0.472  12.826  1.4472 -0.3364  0.2301
 7389TIP3   OH243581   6.528   3.052  14.583 -0.2288  0.0320  0.1325
 7389TIP3    H143582   6.588   2.979  14.564 -0.3272  0.0084 -0.0896
 7389TIP3    H243583   6.543   3.071  14.675 -0.7492 -0.7690  0.3893
 7390TIP3   OH243584   4.533   3.635   3.356 -0.3882  0.0840  0.7923
 7390TIP3    H143585   4.550   3.724   3.387  0.6720 -0.9942  3.6274
 7390TIP3    H243586   4.513   3.646   3.263 -1.2198  3.3524  1.2284
 7391TIP3   OH243587   0.128   5.304   5.643 -0.1937  0.0181  0.0356
 7391TIP3    H143588   0.118   5.399   5.647  0.1450  0.1858 -2.1502
 7391TIP3    H243589   0.218   5.289   5.614 -0.5322 -0.9423 -0.5839
 7392TIP3   OH243590   0.708   1.374  15.338 -0.3259  0.0280 -0.1713
 7392TIP3    H143591   0.790   1.348  15.297 -0.9462  1.0196 -2.1833
 7392TIP3    H243592   0.680   1.451  15.288 -1.2362  1.2350  2.0832
 7393TIP3   OH243593   4.277   1.103   3.124  0.2796 -0.0466 -0.1432
 7393TIP3    H143594   4.371   1.120   3.118  0.3417  0.1189  1.0552
 7393TIP3    H243595   4.255   1.120   3.215 -0.2579 -3.2740  0.4779
 7394TIP3   OH243596   4.881   1.951  16.661  0.0176 -0.1987  1.2342
 7394TIP3    H143597   4.815   1.995  16.607  1.0401 -1.5358 -1.2994
 7394TIP3    H243598   4.830   1.894  16.719 -1.1323  0.3381  0.7834
 7395TIP3   OH243599   0.802   5.527  10.274 -0.1444  0.0013 -0.1046
 7395TIP3    H143600   0.820   5.584  10.349 -1.5847  0.8240 -0.3425
 7395TIP3    H243601   0.862   5.557  10.206 -0.0058  0.3830  0.1816
 7396TIP3   OH243602   1.199   5.737  14.468  0.2082 -0.1502 -0.0089
 7396TIP3    H143603   1.179   5.644  14.471 -0.2521 -0.0877 -0.8438
 7396TIP3    H243604   1.113   5.780  14.465  0.3643  0.4005  2.2441
 7397TIP3   OH243605   6.710   1.208  14.161 -0.3144 -0.4930 -0.1264
 7397TIP3    H143606   6.702   1.243  14.072  0.8346 -1.3561 -0.5933
 7397TIP3    H243607   6.796   1.239  14.191 -0.5111 -0.5640  0.5292
 7398TIP3   OH243608   5.300   5.100   0.097 -0.0466  0.3855  0.1320
 7398TIP3    H143609   5.290   5.145   0.182  0.2438  1.4057 -0.3548
 7398TIP3    H243610   5.314   5.171   0.034  0.6203 -0.4062 -0.6429
 7399TIP3   OH243611   1.439   6.061  12.451 -0.3265  0.4642  0.1625
 7399TIP3    H143612   1.533   6.078  12.454 -0.2421 -0.0828  0.7308
 7399TIP3    H243613   1.431   5.966  12.442 -0.8242  0.5824 -0.8930
 7400TIP3   OH243614   1.822   1.988  17.043  0.1191  0.7263  0.5171
 7400TIP3    H143615   1.851   2.079  17.052 -0.4376  1.3147 -2.4113
 7400TIP3    H243616   1.767   1.989  16.964  0.8924 -2.3223 -0.1849
 7401TIP3   OH243617   4.833   6.248   1.617 -0.2754  0.4906  0.1506
 7401TIP3    H143618   4.885   6.167   1.617 -0.9873  0.0156 -0.4002
 7401TIP3    H243619   4.817   6.266   1.710  0.1402  0.1620  0.2883
 7402TIP3   OH243620   2.760   0.714  16.147 -0.3950  0.5521  0.1217
 7402TIP3    H143621   2.813   0.643  16.183  0.1825  1.6034  1.4577
 7402TIP3    H243622   2.772   0.708  16.053  0.6480 -0.3408  0.2866
 7403TIP3   OH243623   4.261   4.963  10.767  0.3187 -0.2117 -0.6305
 7403TIP3    H143624   4.252   5.027  10.696  1.6774 -0.5643 -1.1538
 7403TIP3    H243625   4.346   4.983  10.806  1.8598 -2.9822 -2.1978
 7404TIP3   OH243626   5.060   4.478   4.382  0.0422 -0.5943  0.0767
 7404TIP3    H143627   5.089   4.412   4.444 -1.4680  0.0169  1.4978
 7404TIP3    H243628   5.091   4.561   4.419 -1.8464 -0.1095  0.6798
 7405TIP3   OH243629   2.187   5.035   4.502  0.0059 -0.3646  0.5029
 7405TIP3    H143630   2.212   5.120   4.466 -0.3017 -0.7964 -0.7828
 7405TIP3    H243631   2.192   5.046   4.597 -0.0533  1.0908  0.3503
 7406TIP3   OH243632   4.355   5.287   0.793  0.3527 -0.6707 -0.2074
 7406TIP3    H143633   4.385   5.311   0.706  1.3324 -0.3864  0.2019
 7406TIP3    H243634   4.383   5.359   0.850  2.5236 -2.2530  0.8772
 7407TIP3   OH243635   6.738   1.218   3.687 -0.4327  0.6028  0.3452
 7407TIP3    H143636   6.731   1.305   3.727 -1.1929 -0.5567  3.0102
 7407TIP3    H243637   6.830   1.193   3.699 -0.6660  0.2352  1.6251
 7408TIP3   OH243638   2.634   2.364   6.047  0.1301 -0.1261 -0.1313
 7408TIP3    H143639   2.690   2.437   6.075 -1.8197  1.2757  0.2860
 7408TIP3    H243640   2.654   2.294   6.110  0.1661  0.9466  1.1040
 7409TIP3   OH243641   1.728   3.598  15.296  0.0794  0.1104 -0.6454
 7409TIP3    H143642   1.794   3.636  15.354  1.1860 -1.8294 -0.5734
 7409TIP3    H243643   1.776   3.537  15.241 -1.8057 -2.6872  0.5442
 7410TIP3   OH243644   6.072   4.500  11.447 -0.0657 -0.3511  0.4025
 7410TIP3    H143645   6.152   4.550  11.464  1.1059 -2.1811  0.5215
 7410TIP3    H243646   6.042   4.473  11.534 -1.2264  0.8499  0.4179
 7411TIP3   OH243647   1.950   3.510  16.394  0.2068 -0.0420  0.0881
 7411TIP3    H143648   2.033   3.507  16.347 -0.5760 -1.6764 -1.3082
 7411TIP3    H243649   1.967   3.463  16.476  0.7037 -0.1843 -0.0954
 7412TIP3   OH243650   6.325   4.891   2.019 -0.1780 -0.1153 -0.1421
 7412TIP3    H143651   6.329   4.798   1.996 -0.5463  0.2307 -1.7110
 7412TIP3    H243652   6.278   4.893   2.102  1.1734 -1.4404  0.7030
 7413TIP3   OH243653   6.222   1.445  10.386 -0.7504 -0.2366  0.1857
 7413TIP3    H143654   6.216   1.450  10.290  1.0815 -0.5793  0.0179
 7413TIP3    H243655   6.296   1.387  10.402  1.2633  2.5208  1.7525
 7414TIP3   OH243656   4.899   3.978   2.933  0.2964 -0.0146 -0.1100
 7414TIP3    H143657   4.827   3.925   2.966 -0.5713  0.5642 -1.0079
 7414TIP3    H243658   4.951   3.999   3.011  0.0747 -1.2846  0.3982
 7415TIP3   OH243659   4.799   2.328   6.281 -0.5390 -0.0427  0.1469
 7415TIP3    H143660   4.770   2.245   6.241  0.3278 -0.3082  0.0418
 7415TIP3    H243661   4.879   2.305   6.328  0.2657  0.9246 -0.6987
 7416TIP3   OH243662   4.424   0.816  11.822  0.2982  0.2144  0.2502
 7416TIP3    H143663   4.467   0.754  11.763  1.4123  1.0849  0.1111
 7416TIP3    H243664   4.381   0.879  11.764  0.9202  0.7460  0.3511
 7417TIP3   OH243665   0.980   1.152  15.557 -0.0951  0.2169  0.3162
 7417TIP3    H143666   0.962   1.122  15.647 -1.8665  1.5326  0.4621
 7417TIP3    H243667   1.075   1.163  15.554  0.0742 -0.5772  1.7860
 7418TIP3   OH243668   4.881   0.184   4.387 -0.0663 -0.4155 -0.0413
 7418TIP3    H143669   4.966   0.161   4.352 -0.0873  0.0651 -0.4204
 7418TIP3    H243670   4.839   0.100   4.406  0.6520 -0.6547  0.5649
 7419TIP3   OH243671   4.036   4.087  12.692  0.0589  0.1966  0.1239
 7419TIP3    H143672   4.108   4.151  12.697 -0.3081  0.7866 -1.4542
 7419TIP3    H243673   4.016   4.081  12.599 -2.2458  0.3716  0.5592
 7420TIP3   OH243674   4.162   2.498   1.787  0.0852  0.1975 -0.2287
 7420TIP3    H143675   4.100   2.426   1.802  1.9712 -1.5856 -0.5256
 7420TIP3    H243676   4.214   2.501   1.867  1.1899 -0.0151 -0.9206
 7421TIP3   OH243677   4.629   1.021   4.274 -0.4164  0.2882  0.3469
 7421TIP3    H143678   4.575   1.098   4.260  0.0204  0.4504 -0.4937
 7421TIP3    H243679   4.599   0.957   4.210  1.9932  1.2508 -1.9366
 7422TIP3   OH243680   0.454   2.146   5.349  0.3349 -0.2104  0.0264
 7422TIP3    H143681   0.459   2.051   5.364 -0.9904 -0.4678 -0.9825
 7422TIP3    H243682   0.361   2.164   5.343  0.6008  1.0474 -0.5653
 7423TIP3   OH243683   1.390   4.168  14.016  0.1275 -0.1504 -0.1369
 7423TIP3    H143684   1.323   4.129  13.960 -0.6353 -0.0351  0.6907
 7423TIP3    H243685   1.390   4.261  13.993  0.4926 -0.2620 -0.6178
 7424TIP3   OH243686   6.074   0.417  14.848 -0.1624 -0.4344 -0.2602
 7424TIP3    H143687   6.019   0.408  14.771  1.5077 -1.0322 -1.4332
 7424TIP3    H243688   6.099   0.510  14.849  0.4162 -0.5803 -0.8784
 7425TIP3   OH243689   5.478   3.610  12.319 -0.6758  0.3034  0.4130
 7425TIP3    H143690   5.430   3.540  12.275  1.4264  0.7498 -2.9204
 7425TIP3    H243691   5.570   3.587  12.308  0.0294  2.5531  1.0361
 7426TIP3   OH243692   3.771   6.386  13.576 -0.1571 -0.2505  0.2200
 7426TIP3    H143693   3.725   6.306  13.551 -0.8420  0.2772 -0.2781
 7426TIP3    H243694   3.753   6.395  13.670  0.7619 -1.1965  0.5031
 7427TIP3   OH243695   6.653   4.693  16.415 -0.2132 -0.7390 -0.0227
 7427TIP3    H143696   6.717   4.758  16.443 -0.6124 -0.4423  0.1956
 7427TIP3    H243697   6.583   4.697  16.480 -1.2497  0.1119 -1.1413
 7428TIP3   OH243698   4.462   3.901   6.075 -0.3730 -0.2666 -0.0763
 7428TIP3    H143699   4.443   3.837   6.007 -0.5350  0.1100 -0.3903
 7428TIP3    H243700   4.412   3.871   6.151 -1.3699  0.1020 -0.5621
 7429TIP3   OH243701   0.662   3.862   1.315 -0.2433 -0.4851 -0.4317
 7429TIP3    H143702   0.732   3.799   1.331  0.2666 -0.3482 -1.9818
 7429TIP3    H243703   0.621   3.874   1.401  0.7154 -1.6412  0.2229
 7430TIP3   OH243704   2.083   5.123   0.697 -0.1319  0.2544  0.2863
 7430TIP3    H143705   1.993   5.113   0.728 -0.2941 -0.9034 -0.4841
 7430TIP3    H243706   2.082   5.083   0.610  0.8676  1.2650 -0.2050
 7431TIP3   OH243707   0.690   0.962   5.121  0.6087  0.7189  0.1890
 7431TIP3    H143708   0.761   1.024   5.138 -0.3668  1.7153  0.7497
 7431TIP3    H243709   0.727   0.876   5.143  2.1965  0.9806 -1.2225
 7432TIP3   OH243710   3.156   5.771  15.835  0.1102  0.3728  0.2369
 7432TIP3    H143711   3.183   5.758  15.925  0.0308  0.4302  0.2695
 7432TIP3    H243712   3.212   5.713  15.784 -1.8309 -1.9507  0.5724
 7433TIP3   OH243713   0.158   2.025   4.737  0.1552 -0.0379 -0.0503
 7433TIP3    H143714   0.124   1.936   4.752 -0.2657  0.3835  1.7511
 7433TIP3    H243715   0.211   2.043   4.815 -0.1239  1.4427 -0.1813
 7434TIP3   OH243716   4.094   1.036  13.995  0.1691  0.2889  0.1827
 7434TIP3    H143717   4.003   1.064  14.006  0.0711  0.0681 -0.0697
 7434TIP3    H243718   4.090   0.941  13.984  0.0684  0.5394 -3.3255
 7435TIP3   OH243719   3.572   1.594   5.532 -0.1715 -0.1397 -0.2577
 7435TIP3    H143720   3.636   1.617   5.464  0.0162  0.2838  0.0561
 7435TIP3    H243721   3.569   1.671   5.589  0.0731 -0.6940  0.5238
 7436TIP3   OH243722   0.796   6.145   3.440  0.3773 -0.3546  0.1183
 7436TIP3    H143723   0.766   6.149   3.349 -0.9844 -0.6033  0.5283
 7436TIP3    H243724   0.884   6.183   3.438  0.1424  0.1805 -1.2029
 7437TIP3   OH243725   1.416   0.052  13.237  0.0600  0.8327 -0.7234
 7437TIP3    H143726   1.441   0.098  13.156 -1.2819  0.7695 -1.1945
 7437TIP3    H243727   1.489  -0.007  13.254 -0.2467 -0.1920 -2.7064
 7438TIP3   OH243728   5.383   0.185   0.970 -0.2535  0.0846 -0.0576
 7438TIP3    H143729   5.359   0.100   1.008  0.3098  0.3151  0.8402
 7438TIP3    H243730   5.302   0.218   0.932 -0.8583 -0.1269  1.0109
 7439TIP3   OH243731   0.832   5.528  15.041 -0.3003 -0.5074  0.0311
 7439TIP3    H143732   0.874   5.614  15.050  1.6219 -1.3291 -0.5619
 7439TIP3    H243733   0.740   5.544  15.061 -0.0391  1.7411 -0.3162
 7440TIP3   OH243734   2.594   2.311   5.224  0.4508  0.4402  0.0666
 7440TIP3    H143735   2.677   2.322   5.270  0.7064  0.8729 -0.4877
 7440TIP3    H243736   2.592   2.383   5.161 -0.0719  0.0866 -0.3263
 7441TIP3   OH243737   0.433   6.287  11.399 -0.6475 -0.0903 -0.4353
 7441TIP3    H143738   0.393   6.374  11.396 -2.4527 -0.8146  1.1044
 7441TIP3    H243739   0.415   6.250  11.312 -1.6439  0.3341 -0.4257
 7442TIP3   OH243740   0.126   1.080  15.729  0.0921  0.2485  0.0732
 7442TIP3    H143741   0.124   1.151  15.793 -1.1671  0.7601 -0.5105
 7442TIP3    H243742   0.216   1.082  15.695  0.0587  1.6663 -0.0265
 7443TIP3   OH243743   3.928   2.429  12.667 -0.5921  0.5451  0.1048
 7443TIP3    H143744   3.889   2.350  12.704 -0.5992  1.4091  2.0299
 7443TIP3    H243745   3.898   2.429  12.576 -1.7330 -0.9407  0.4375
 7444TIP3   OH243746   2.757   5.933   1.801  0.6449 -0.4574 -0.0693
 7444TIP3    H143747   2.788   5.891   1.720 -0.0051 -1.5546  0.2312
 7444TIP3    H243748   2.662   5.939   1.789  0.7538  1.4398 -0.3161
 7445TIP3   OH243749   2.651   5.648  13.212 -0.1550 -0.1880  0.2953
 7445TIP3    H143750   2.692   5.585  13.272  0.3442 -2.1243 -1.9453
 7445TIP3    H243751   2.588   5.596  13.162 -1.2838  1.5820 -0.2307
 7446TIP3   OH243752   5.268   5.277  17.112 -0.7271  0.5616  0.3052
 7446TIP3    H143753   5.199   5.342  17.119 -0.4999  0.9011 -0.4941
 7446TIP3    H243754   5.250   5.231  17.030 -0.0521  0.6145  0.1156
 7447TIP3   OH243755   2.862   3.980  11.555  0.8025  0.0537  0.0437
 7447TIP3    H143756   2.821   4.047  11.499  1.4339 -0.0173 -0.5141
 7447TIP3    H243757   2.943   4.021  11.586  0.4168  0.1257  1.0001
 7448TIP3   OH243758   2.046   4.821   5.125 -0.2980  0.3348  0.6456
 7448TIP3    H143759   2.130   4.860   5.151  0.2268  1.1645 -2.0550
 7448TIP3    H243760   2.070   4.749   5.067 -1.4390  0.2908  0.1979
 7449TIP3   OH243761   2.293   4.162   6.300 -0.4508  0.8677  0.2000
 7449TIP3    H143762   2.266   4.254   6.304  0.0237  0.9582  1.4888
 7449TIP3    H243763   2.212   4.114   6.282 -1.1499  1.3288  1.9705
 7450TIP3   OH243764   0.555   1.058   4.688  0.2395 -0.2642  0.0083
 7450TIP3    H143765   0.601   1.127   4.640 -1.0740 -0.9323 -2.3765
 7450TIP3    H243766   0.624   0.995   4.710  0.7394 -0.8620 -2.8105
 7451TIP3   OH243767   3.520   5.636   5.356 -0.5240  0.2507  0.8728
 7451TIP3    H143768   3.499   5.704   5.292  0.7746  0.6470  0.8555
 7451TIP3    H243769   3.542   5.559   5.302  3.2702  1.3130  0.6188
 7452TIP3   OH243770   3.981   1.197  16.358 -0.3752  0.1800  0.9625
 7452TIP3    H143771   4.044   1.153  16.300  1.1497  1.6831  1.3770
 7452TIP3    H243772   3.977   1.141  16.436  2.2957  1.1335  1.9102
 7453TIP3   OH243773   0.344   4.347   3.416 -0.4466 -0.0366 -0.5744
 7453TIP3    H143774   0.420   4.302   3.379  0.0830 -0.4427  0.9181
 7453TIP3    H243775   0.369   4.439   3.418  0.3563 -0.2515  0.6060
 7454TIP3   OH243776   5.733   3.864   0.896  0.0733 -0.4519  0.1414
 7454TIP3    H143777   5.695   3.942   0.937 -0.3539 -0.3085 -0.5090
 7454TIP3    H243778   5.664   3.798   0.900  0.2735 -0.6556  0.2717
 7455TIP3   OH243779   2.500   0.258  15.179  0.0976  0.2324 -0.7982
 7455TIP3    H143780   2.449   0.195  15.230  0.3775  1.0323  0.5333
 7455TIP3    H243781   2.435   0.316  15.140 -0.1155 -0.3504 -1.3349
 7456TIP3   OH243782   2.720   1.114   0.949 -0.3473  0.3424  0.2914
 7456TIP3    H143783   2.672   1.047   0.998  0.3647 -1.1176 -0.9085
 7456TIP3    H243784   2.753   1.174   1.016 -1.2104 -0.3605  1.3905
 7457TIP3   OH243785   1.487   5.230   3.629 -0.1781  0.2014  0.4153
 7457TIP3    H143786   1.448   5.145   3.608 -0.4248  0.4861 -0.3051
 7457TIP3    H243787   1.480   5.280   3.548 -1.4990  1.4656  1.2618
 7458TIP3   OH243788   0.837   2.705  14.025 -0.4325 -0.8427  0.3059
 7458TIP3    H143789   0.855   2.747  13.941 -2.8295  0.4738  0.3400
 7458TIP3    H243790   0.802   2.619  14.002  0.2087 -1.0300  0.0261
 7459TIP3   OH243791   0.605   2.489   2.869  0.3266 -0.7414  0.2860
 7459TIP3    H143792   0.625   2.566   2.922 -0.7151 -1.1612  1.3384
 7459TIP3    H243793   0.682   2.433   2.877  0.4784 -0.4674  0.7581
 7460TIP3   OH243794   5.976   4.973  14.532  0.0099 -0.1591  0.4794
 7460TIP3    H143795   5.973   5.065  14.558 -0.0709  0.1792 -0.7104
 7460TIP3    H243796   6.034   4.933  14.596 -1.5992  0.2678  2.3233
 7461TIP3   OH243797   2.508   5.428  12.558 -0.0922  0.1946 -0.3156
 7461TIP3    H143798   2.533   5.395  12.644  0.0628  0.5792 -0.2096
 7461TIP3    H243799   2.445   5.364  12.525  1.9308 -1.4663 -1.1308
 7462TIP3   OH243800   1.099   5.277   3.430 -0.3957  0.9643  0.1619
 7462TIP3    H143801   1.147   5.251   3.351  0.4920  1.1159  0.6416
 7462TIP3    H243802   1.016   5.230   3.424 -0.4075  1.0936 -0.9432
 7463TIP3   OH243803   3.536   0.348  12.846  0.4206 -0.0934 -0.6301
 7463TIP3    H143804   3.575   0.432  12.870  0.3682  0.1763 -1.4291
 7463TIP3    H243805   3.608   0.299  12.805  1.4034 -1.8277  2.8034
 7464TIP3   OH243806   4.872   0.789  12.854 -0.1376 -0.3097 -0.4059
 7464TIP3    H143807   4.863   0.884  12.856 -0.3411 -0.3345  0.4240
 7464TIP3    H243808   4.947   0.773  12.798  0.7365  0.4132  0.5223
 7465TIP3   OH243809   1.127   5.782  13.132  0.0851  0.0695  0.0541
 7465TIP3    H143810   1.161   5.724  13.064  2.6846  1.2937  0.1809
 7465TIP3    H243811   1.187   5.772  13.205 -1.7092  0.0261  1.6104
 7466TIP3   OH243812   0.409   6.003  12.447 -0.1087 -0.2504 -0.4631
 7466TIP3    H143813   0.317   5.979  12.460  0.5094 -1.9683  1.0957
 7466TIP3    H243814   0.405   6.083  12.394 -2.4898 -0.2036 -0.3384
 7467TIP3   OH243815   3.473   6.044  11.774  0.6232  0.0371  0.0161
 7467TIP3    H143816   3.541   6.005  11.830  0.7136  1.5228  1.0272
 7467TIP3    H243817   3.522   6.096  11.710  0.5555  2.4614  1.7516
 7468TIP3   OH243818   5.611   3.565   4.180  0.0826  0.4882  0.2898
 7468TIP3    H143819   5.706   3.570   4.187  0.0390  1.0683  0.4804
 7468TIP3    H243820   5.582   3.533   4.265  0.1698 -0.6704 -0.0909
 7469TIP3   OH243821   3.709   0.200   2.505  0.3321  0.2626 -0.4090
 7469TIP3    H143822   3.638   0.136   2.506  0.5002  0.0180 -2.1733
 7469TIP3    H243823   3.685   0.263   2.574  0.0461 -1.5283  1.1946
 7470TIP3   OH243824   2.454   3.472  16.812 -0.3512  0.0767 -0.0136
 7470TIP3    H143825   2.515   3.450  16.882 -1.7698 -0.6286  1.0605
 7470TIP3    H243826   2.445   3.568  16.817 -0.3407  0.0458  0.6929
 7471TIP3   OH243827   4.534   5.432  13.696  0.0203 -0.4518  0.6426
 7471TIP3    H143828   4.488   5.513  13.672  1.1484  0.0460  0.1054
 7471TIP3    H243829   4.558   5.392  13.613  0.0188 -1.0305  0.9149
 7472TIP3   OH243830   4.939   5.250   0.069 -1.0393  0.2569  0.2580
 7472TIP3    H143831   4.991   5.172   0.089 -0.8409 -0.2973 -2.1736
 7472TIP3    H243832   4.984   5.321   0.114 -1.2429 -0.9564  2.5875
 7473TIP3   OH243833   5.976   2.765  15.726  0.1126  0.7023  0.3260
 7473TIP3    H143834   5.990   2.671  15.712  0.6442  0.6274  1.2882
 7473TIP3    H243835   5.885   2.779  15.700  0.3795  0.1675 -0.9885
 7474TIP3   OH243836   0.763   1.351  12.376  0.4395 -0.3737  0.3203
 7474TIP3    H143837   0.710   1.273  12.392 -2.6504  1.7768  1.5589
 7474TIP3    H243838   0.749   1.370  12.283  0.1356 -0.5507  0.3271
 7475TIP3   OH243839   0.236   4.891  15.004  0.1875 -0.5154 -0.0382
 7475TIP3    H143840   0.156   4.893  14.953  1.6497  1.1528 -2.4733
 7475TIP3    H243841   0.300   4.847  14.948  1.1657 -1.2683  1.5809
 7476TIP3   OH243842   1.279   1.156  13.069  0.4834  0.0081 -1.0087
 7476TIP3    H143843   1.288   1.239  13.116  2.8048 -1.5620  1.6378
 7476TIP3    H243844   1.202   1.115  13.108  0.8265 -0.1258 -0.4517
 7477TIP3   OH243845   0.192   6.215   0.075  0.6136  0.3191 -0.4366
 7477TIP3    H143846   0.174   6.301   0.113 -0.3875 -0.3569  0.6593
 7477TIP3    H243847   0.218   6.161   0.149 -1.0075 -0.9305 -0.7422
 7478TIP3   OH243848   4.402   5.227   1.168  0.5365 -0.2969 -0.4751
 7478TIP3    H143849   4.325   5.265   1.125  0.3924 -0.1195 -0.0716
 7478TIP3    H243850   4.366   5.178   1.242  0.9130  1.4708  0.9462
 7479TIP3   OH243851   0.449   2.677   4.436 -0.7705 -0.1336 -0.3177
 7479TIP3    H143852   0.417   2.766   4.422 -0.2879 -0.2676 -2.5136
 7479TIP3    H243853   0.545   2.685   4.432 -0.7221 -1.0793 -3.3077
 7480TIP3   OH243854   6.286   2.568  12.552  0.2097  0.4041 -0.1770
 7480TIP3    H143855   6.296   2.663  12.550 -0.0331  0.4327 -2.1608
 7480TIP3    H243856   6.230   2.548  12.478  0.6370 -1.3404 -0.0855
 7481TIP3   OH243857   6.281   4.879  12.304  0.5601 -0.5021 -0.0974
 7481TIP3    H143858   6.211   4.937  12.336  1.2743  0.9759 -1.0658
 7481TIP3    H243859   6.352   4.939  12.282  1.4744 -1.8195 -0.8087
 7482TIP3   OH243860   1.514   4.913   4.950 -0.3297 -0.2509 -0.5131
 7482TIP3    H143861   1.606   4.895   4.969 -0.7957 -1.3353  0.9430
 7482TIP3    H243862   1.488   4.844   4.890  0.1135  0.8369 -2.0120
 7483TIP3   OH243863   1.949   4.083  13.868  0.5515  0.4017  0.0269
 7483TIP3    H143864   1.926   4.052  13.955 -3.3773 -0.9548 -1.2551
 7483TIP3    H243865   1.898   4.164  13.857 -1.1303 -0.8095 -1.7861
 7484TIP3   OH243866   5.881   4.826   3.188  0.3963 -0.0084  0.2147
 7484TIP3    H143867   5.942   4.796   3.256  0.6327 -2.4890 -0.9840
 7484TIP3    H243868   5.800   4.780   3.207 -0.3594  1.3096  0.2988
 7485TIP3   OH243869   0.924   1.885   0.020 -0.1492  0.3824 -0.2167
 7485TIP3    H143870   0.871   1.914  -0.054  0.6044  0.3936 -0.7576
 7485TIP3    H243871   0.933   1.791   0.009 -1.3892  0.1130  0.7616
 7486TIP3   OH243872   5.369   5.131   5.460 -0.1452  0.1961 -0.1386
 7486TIP3    H143873   5.429   5.194   5.418  0.6420  0.1603  0.8878
 7486TIP3    H243874   5.286   5.179   5.468  0.6587  1.4531  1.3598
 7487TIP3   OH243875   2.222   2.805   3.248  0.4402 -0.1895  0.6659
 7487TIP3    H143876   2.220   2.763   3.333  1.8913 -2.3240 -0.2504
 7487TIP3    H243877   2.138   2.784   3.208  0.6171 -1.1195  0.7546
 7488TIP3   OH243878   0.751   5.850  15.330 -0.3844  0.0399 -0.4105
 7488TIP3    H143879   0.670   5.856  15.279 -1.6047 -0.3277  1.3725
 7488TIP3    H243880   0.724   5.811  15.413  1.7759 -0.7494 -0.0141
 7489TIP3   OH243881   5.766   6.759   6.189 -0.3459 -0.0289  0.6483
 7489TIP3    H143882   5.839   6.749   6.128 -1.5426 -3.2291 -0.4525
 7489TIP3    H243883   5.803   6.738   6.274  0.1801 -1.0152  0.1926
 7490TIP3   OH243884   5.588   1.023   2.405  0.4814 -0.0840  0.4591
 7490TIP3    H143885   5.626   0.960   2.344  1.6328  0.0006  1.0537
 7490TIP3    H243886   5.573   1.102   2.353  0.2131 -0.4384 -0.0004
 7491TIP3   OH243887   1.983   1.599  17.211 -0.0861  0.0533  0.0047
 7491TIP3    H143888   1.945   1.668  17.267 -0.3672 -1.1807  1.4067
 7491TIP3    H243889   1.967   1.629  17.122 -1.8504  0.9483  0.5734
 7492TIP3   OH243890   2.555   1.132  12.412  0.1056 -0.5358  0.0755
 7492TIP3    H143891   2.566   1.181  12.331  1.7787 -1.8910 -0.5831
 7492TIP3    H243892   2.510   1.193  12.471 -0.6898  0.6566 -1.6814
 7493TIP3   OH243893   1.726   6.042  12.439  0.9581  0.1533 -0.3666
 7493TIP3    H143894   1.748   6.042  12.532  0.1953  0.1935 -0.1744
 7493TIP3    H243895   1.756   6.127  12.407 -0.0036  0.7147  0.1680
 7494TIP3   OH243896   3.541   1.813   4.731 -0.6138  0.6351 -0.3704
 7494TIP3    H143897   3.498   1.766   4.802  1.4095  2.5440  2.2905
 7494TIP3    H243898   3.632   1.784   4.734 -0.1340  1.9701 -1.0972
 7495TIP3   OH243899   3.574   3.408   2.300 -0.9867  0.0544  0.1100
 7495TIP3    H143900   3.559   3.336   2.360  1.2966  0.0146  0.7078
 7495TIP3    H243901   3.596   3.482   2.356  0.8985  0.0893 -0.6014
 7496TIP3   OH243902   3.266   1.986  14.310  0.0071  0.5600 -0.2398
 7496TIP3    H143903   3.280   2.003  14.403 -1.2144  2.6533 -0.3925
 7496TIP3    H243904   3.273   1.891  14.302  2.8569  0.5024  1.4916
 7497TIP3   OH243905   6.718   5.203  12.639 -0.1743  0.0302  0.5675
 7497TIP3    H143906   6.634   5.249  12.641  0.0219  0.5677 -1.3641
 7497TIP3    H243907   6.699   5.120  12.595  0.1303 -0.3045  1.0508
 7498TIP3   OH243908   4.214   6.626  15.349 -0.0942 -0.0851  0.5499
 7498TIP3    H143909   4.298   6.625  15.303 -0.8798  2.3291 -1.1016
 7498TIP3    H243910   4.206   6.714  15.385 -2.3117  0.0795 -0.1667
 7499TIP3   OH243911   3.052   1.354   5.849 -0.1424  0.6902 -0.3923
 7499TIP3    H143912   3.059   1.277   5.793  0.2631  0.3156  0.1682
 7499TIP3    H243913   2.997   1.326   5.922  1.8966  0.1684  1.0386
 7500TIP3   OH243914   6.663   2.990   5.406  0.3664  0.0433  0.2055
 7500TIP3    H143915   6.731   2.935   5.367  1.1148  0.8351  0.3573
 7500TIP3    H243916   6.645   3.057   5.340 -0.5259 -0.3627  0.0267
 7501TIP3   OH243917   4.549   2.060   5.355  0.4273  0.1149 -0.1353
 7501TIP3    H143918   4.508   2.137   5.314 -0.7448  0.1905  1.1110
 7501TIP3    H243919   4.548   1.994   5.286 -0.4505  0.5888 -0.6020
 7502TIP3   OH243920   4.154   1.405  16.448  1.1150  0.8819 -0.0874
 7502TIP3    H143921   4.081   1.431  16.505  0.2363 -0.2314 -0.6570
 7502TIP3    H243922   4.184   1.322  16.484 -0.6408 -0.7832 -2.1941
 7503TIP3   OH243923   4.289   0.502   1.923 -0.4064  0.1860  0.1819
 7503TIP3    H143924   4.291   0.444   1.998 -0.5711  1.1907  0.9787
 7503TIP3    H243925   4.326   0.584   1.955  0.4616  0.3264 -1.1036
 7504TIP3   OH243926   1.579   3.787   2.059 -0.8204 -0.8077 -0.5178
 7504TIP3    H143927   1.590   3.712   2.000  1.0995 -1.6775  0.8202
 7504TIP3    H243928   1.550   3.748   2.142 -0.9604  0.0709 -0.1382
 7505TIP3   OH243929   5.610   1.139  12.973 -0.4373 -0.2492 -0.0442
 7505TIP3    H143930   5.667   1.208  13.006  0.4003 -1.1053  0.3710
 7505TIP3    H243931   5.529   1.183  12.948 -1.2622  0.4696  3.4010
 7506TIP3   OH243932   0.242   0.835  12.319 -0.3442  0.2787 -0.3668
 7506TIP3    H143933   0.179   0.869  12.256  0.1257 -0.7991 -1.4732
 7506TIP3    H243934   0.324   0.831  12.270 -0.1889 -1.5113 -0.0216
 7507TIP3   OH243935   6.619   3.976  12.244  0.1021 -0.0075 -0.1912
 7507TIP3    H143936   6.576   3.891  12.254 -2.3425  0.9965 -1.4553
 7507TIP3    H243937   6.596   4.004  12.155  2.4553  1.1843 -0.5094
 7508TIP3   OH243938   1.691   0.965  15.937 -0.2341  0.4164 -0.0839
 7508TIP3    H143939   1.770   1.014  15.959  1.0875 -1.8824  0.5228
 7508TIP3    H243940   1.630   0.983  16.009 -0.0305  1.5945 -0.1801
 7509TIP3   OH243941   5.098   4.286   4.589 -0.2033  0.2870  0.0268
 7509TIP3    H143942   5.065   4.210   4.541 -1.5122  1.2602 -0.6996
 7509TIP3    H243943   5.045   4.289   4.669 -0.6047  0.7751 -0.2482
 7510TIP3   OH243944   5.180   6.507   1.703 -0.1016  0.1026  0.2080
 7510TIP3    H143945   5.106   6.565   1.721 -0.4583 -0.8891  2.2541
 7510TIP3    H243946   5.255   6.566   1.694 -0.9149  1.0340 -0.7122
 7511TIP3   OH243947   2.394   2.280   2.505  0.0442  0.7472  0.5527
 7511TIP3    H143948   2.365   2.211   2.564  0.0898  1.1718  1.0792
 7511TIP3    H243949   2.437   2.234   2.433 -1.8454  0.0774 -0.2284
 7512TIP3   OH243950   4.278   1.399  12.704  0.2261  0.7175 -0.4050
 7512TIP3    H143951   4.231   1.352  12.773 -1.6099  0.5972 -1.6802
 7512TIP3    H243952   4.331   1.464  12.751 -1.5128  1.1166  1.1141
 7513TIP3   OH243953   0.346   2.313  10.921  0.4463  0.1771 -0.0680
 7513TIP3    H143954   0.299   2.290  10.841  1.0200 -1.2369 -0.0331
 7513TIP3    H243955   0.321   2.245  10.984 -2.4856  2.9566  2.0575
 7514TIP3   OH243956   5.214   0.628   5.185 -0.4012 -0.3048  0.0443
 7514TIP3    H143957   5.248   0.592   5.103  0.1865 -0.0918  0.1919
 7514TIP3    H243958   5.288   0.675   5.223 -1.1207  0.9919 -0.0969
 7515TIP3   OH243959   1.889   2.928  15.140 -0.8889  0.6878 -0.1410
 7515TIP3    H143960   1.885   2.902  15.048 -1.1860 -0.3295  0.1471
 7515TIP3    H243961   1.821   2.876  15.183  1.1110 -1.0825  1.1597
 7516TIP3   OH243962   0.658   5.954  13.171 -0.0432  0.1562  0.0619
 7516TIP3    H143963   0.585   6.003  13.209 -0.5062 -0.0278 -0.5644
 7516TIP3    H243964   0.629   5.933  13.082  0.4084 -0.7172  0.1115
 7517TIP3   OH243965   3.022   4.768  14.958  0.0419  0.3624  0.7258
 7517TIP3    H143966   3.115   4.744  14.965  1.2662  4.0979 -0.1695
 7517TIP3    H243967   2.975   4.687  14.976  3.4491 -1.6688  1.4706
 7518TIP3   OH243968   5.485   4.113   4.954  0.6683  0.2426 -0.5330
 7518TIP3    H143969   5.452   4.185   4.900  1.5049  3.0844  2.4019
 7518TIP3    H243970   5.419   4.044   4.946 -1.8737  2.5734 -1.0547
 7519TIP3   OH243971   1.638   3.808  13.831  0.3677  0.2882 -0.0830
 7519TIP3    H143972   1.594   3.774  13.909 -2.0016  0.8590 -1.0993
 7519TIP3    H243973   1.688   3.733  13.798 -0.2737 -0.5762  0.8262
 7520TIP3   OH243974   2.579   2.535  15.213  0.3211  0.0956 -0.0567
 7520TIP3    H143975   2.660   2.557  15.259  0.1289  1.8067 -0.4772
 7520TIP3    H243976   2.522   2.609  15.228 -0.8928 -0.7307 -0.4540
 7521TIP3   OH243977   2.446   1.129  11.986 -0.0084  0.0428 -0.2937
 7521TIP3    H143978   2.406   1.054  11.941  0.1540 -0.2902  0.1092
 7521TIP3    H243979   2.463   1.192  11.917  1.0779 -0.8252 -0.8389
 7522TIP3   OH243980   2.777   4.737   5.114  0.1921  0.6984  0.4601
 7522TIP3    H143981   2.798   4.797   5.186  0.1432  1.2593  0.0125
 7522TIP3    H243982   2.683   4.751   5.098 -0.0655 -0.2720  1.0549
 7523TIP3   OH243983   5.917   1.412   4.934  0.0548 -0.1189  0.1185
 7523TIP3    H143984   5.977   1.434   4.862  0.5999  0.5952  0.7759
 7523TIP3    H243985   5.904   1.495   4.980 -0.6163 -0.4884  0.6038
 7524TIP3   OH243986   5.822   6.370  16.643 -0.3291 -0.5418  0.2481
 7524TIP3    H143987   5.812   6.464  16.626 -1.4147 -0.3663  1.6075
 7524TIP3    H243988   5.732   6.338  16.655 -0.0379 -1.9629 -1.0797
 7525TIP3   OH243989   2.121   6.787   3.953 -0.1869 -0.5124  0.1889
 7525TIP3    H143990   2.130   6.856   4.018 -0.5890 -0.8722  0.6349
 7525TIP3    H243991   2.184   6.810   3.884  0.1024 -0.0272  0.6108
 7526TIP3   OH243992   2.676   2.552   3.702 -0.1765  0.1714 -0.2325
 7526TIP3    H143993   2.618   2.588   3.769 -0.2879  1.1741 -0.8410
 7526TIP3    H243994   2.758   2.535   3.747  0.2324  2.2114 -0.1217
 7527TIP3   OH243995   6.193   1.828  15.727 -0.5507  0.3336  0.1867
 7527TIP3    H143996   6.170   1.785  15.644  2.1369  2.1291 -1.6492
 7527TIP3    H243997   6.117   1.882  15.748 -0.9828  0.4859 -1.5919
 7528TIP3   OH243998   2.084   6.264   2.126 -0.2843 -0.0797  0.4789
 7528TIP3    H143999   1.999   6.275   2.170 -0.1598 -1.4550  1.1163
 7528TIP3    H244000   2.120   6.353   2.123 -1.1945  0.3489  1.3273
 7529TIP3   OH244001   0.105   2.392  14.364  0.1065  0.0966 -0.2444
 7529TIP3    H144002   0.180   2.361  14.416 -0.6275 -1.4551 -0.0679
 7529TIP3    H244003   0.035   2.330  14.382 -0.6306  0.3532 -1.9619
 7530TIP3   OH244004   1.851   6.581  15.901  0.6666 -0.2696 -0.3000
 7530TIP3    H144005   1.934   6.624  15.884  0.3678 -0.2112 -1.8048
 7530TIP3    H244006   1.859   6.496  15.856  0.0286 -0.3778 -0.2181
 7531TIP3   OH244007   5.985   2.511  14.134  0.4893  0.3323  0.1941
 7531TIP3    H144008   6.009   2.532  14.224  0.2109  2.5023 -0.1796
 7531TIP3    H244009   6.062   2.467  14.098  0.9927  0.3693  1.1936
 7532TIP3   OH244010   3.847   0.612  10.254  0.0758  0.2024 -0.1477
 7532TIP3    H144011   3.758   0.588  10.230  0.4951 -0.0709 -1.5604
 7532TIP3    H244012   3.852   0.599  10.348 -1.6459  1.1291  0.0921
 7533TIP3   OH244013   5.051   0.056   4.846 -0.6565 -0.2657 -0.4628
 7533TIP3    H144014   5.087  -0.009   4.785  0.4698  0.7558 -0.9225
 7533TIP3    H244015   4.969   0.017   4.877 -0.2915 -1.6512 -1.1572
 7534TIP3   OH244016   6.185   0.093   3.217 -0.3020 -0.6026  0.0531
 7534TIP3    H144017   6.238   0.139   3.151 -0.5876 -0.7808 -0.3083
 7534TIP3    H244018   6.124   0.040   3.165 -0.2233 -1.1033  0.4609
 7535TIP3   OH244019   6.212   2.671  11.892  0.0817 -0.1800  0.4273
 7535TIP3    H144020   6.222   2.576  11.898  2.6541  0.0980  1.9922
 7535TIP3    H244021   6.255   2.705  11.971 -0.0553  2.3222 -0.4789
 7536TIP3   OH244022   4.469   3.734   2.234 -0.1377 -0.3966 -0.4749
 7536TIP3    H144023   4.428   3.647   2.233  0.4981 -0.7073 -0.0510
 7536TIP3    H244024   4.500   3.747   2.145 -1.3479 -0.0550 -0.8720
 7537TIP3   OH244025   1.612   6.304   5.232 -0.3799  0.0512  0.4487
 7537TIP3    H144026   1.527   6.266   5.251 -1.1626  1.3325 -0.3666
 7537TIP3    H244027   1.661   6.234   5.189 -0.7592 -0.9117  1.5519
 7538TIP3   OH244028   3.115   3.395  12.162  0.0327 -0.9063 -0.1053
 7538TIP3    H144029   3.040   3.345  12.192 -1.4260  0.9665 -0.3919
 7538TIP3    H244030   3.112   3.388  12.066 -2.2241  2.2317 -0.4293
 7539TIP3   OH244031   3.803   0.314  13.895 -0.2650 -0.7688  0.2009
 7539TIP3    H144032   3.736   0.352  13.953 -0.7151 -0.8507 -0.2563
 7539TIP3    H244033   3.772   0.225  13.879  0.3668 -1.0686  0.6175
 7540TIP3   OH244034   0.258   2.763  16.113  0.3846 -0.3330  0.1436
 7540TIP3    H144035   0.280   2.773  16.205 -1.7451  0.4994  0.6106
 7540TIP3    H244036   0.227   2.850  16.086 -0.3094 -0.9015 -0.9688
 7541TIP3   OH244037   0.869   0.262   1.386 -0.2472 -0.2739 -0.4213
 7541TIP3    H144038   0.948   0.232   1.341 -1.2090 -0.7862 -1.8428
 7541TIP3    H244039   0.893   0.263   1.478  1.0661 -1.5545 -0.7098
 7542TIP3   OH244040   1.969   6.692   4.222  0.8289  0.2345  0.3322
 7542TIP3    H144041   1.968   6.782   4.190 -0.2981 -0.6584 -2.4424
 7542TIP3    H244042   2.062   6.673   4.239  1.2749  1.4136 -0.6510
 7543TIP3   OH244043   1.725   5.546   4.478 -0.0355 -0.6718  0.2542
 7543TIP3    H144044   1.739   5.453   4.461 -0.5356 -0.3294 -2.3891
 7543TIP3    H244045   1.797   5.571   4.535  1.0505 -2.3212 -0.3360
 7544TIP3   OH244046   3.286   2.727   1.689  0.5790 -0.8022  0.0781
 7544TIP3    H144047   3.243   2.758   1.769 -1.8630  1.1604 -1.8695
 7544TIP3    H244048   3.243   2.773   1.618  2.7833 -2.3209 -2.4468
 7545TIP3   OH244049   5.949   1.241   4.363  0.1325 -0.1827 -0.2933
 7545TIP3    H144050   6.028   1.292   4.348  0.0453  0.2944  0.7580
 7545TIP3    H244051   5.964   1.198   4.447 -1.9377  2.4748  1.6325
 7546TIP3   OH244052   4.175   6.055  14.721  0.4029  0.1377 -0.4211
 7546TIP3    H144053   4.210   5.980  14.673 -0.5655  0.1303 -1.1491
 7546TIP3    H244054   4.222   6.055  14.804  1.4105 -0.4428 -0.9764
 7547TIP3   OH244055   6.498   1.285   2.283 -0.1781 -0.1441 -0.2217
 7547TIP3    H144056   6.473   1.194   2.300  0.3191 -0.3288 -0.4776
 7547TIP3    H244057   6.485   1.297   2.189  1.5052 -0.5052 -0.5304
 7548TIP3   OH244058   0.500   0.559   1.564 -0.6545  0.2960 -0.0280
 7548TIP3    H144059   0.448   0.594   1.491  0.7419  0.2569 -1.0916
 7548TIP3    H244060   0.557   0.631   1.589  1.4214 -0.7539 -1.4501
 7549TIP3   OH244061   0.583   3.620   2.816 -0.3206 -0.3551 -0.1811
 7549TIP3    H144062   0.551   3.554   2.754 -3.8331 -1.2815  2.2707
 7549TIP3    H244063   0.529   3.697   2.799  0.5728  0.3158 -0.0372
 7550TIP3   OH244064   0.349   1.311  13.687  0.4003  0.1558 -0.5236
 7550TIP3    H144065   0.412   1.295  13.757  0.0168  1.7411  0.2176
 7550TIP3    H244066   0.332   1.224  13.650  0.4964 -0.7372  1.4312
 7551TIP3   OH244067   4.989   0.357  13.296  0.1864  0.2718 -0.3066
 7551TIP3    H144068   4.920   0.409  13.256  0.3610 -0.4614 -1.5984
 7551TIP3    H244069   5.034   0.316  13.223  3.2933  2.2652  0.3258
 7552TIP3   OH244070   1.333   6.755   0.637  0.2062  0.4532 -0.0549
 7552TIP3    H144071   1.250   6.748   0.590 -1.2643 -1.6320  2.5719
 7552TIP3    H244072   1.366   6.842   0.614 -2.1998  0.9855 -1.9536
 7553TIP3   OH244073   1.957   4.634   0.191  0.3517  0.3162 -0.1191
 7553TIP3    H144074   2.004   4.625   0.108  0.9578  1.3188  0.1017
 7553TIP3    H244075   1.865   4.638   0.167  0.0129 -4.0695 -0.4274
 7554TIP3   OH244076   1.566   1.132   3.084 -0.0618 -0.8134  0.6754
 7554TIP3    H144077   1.478   1.170   3.089  0.2310 -0.0904  0.4548
 7554TIP3    H244078   1.566   1.080   3.004 -0.3119 -0.8663  0.7112
 7555TIP3   OH244079   0.265   3.697   6.132 -0.2544 -0.1706 -0.0300
 7555TIP3    H144080   0.290   3.616   6.177 -0.7638 -0.8844 -0.9657
 7555TIP3    H244081   0.172   3.684   6.112 -0.1516  0.3303 -0.8523
 7556TIP3   OH244082   6.171   2.606   2.705  0.0118 -0.1896  0.1972
 7556TIP3    H144083   6.222   2.579   2.781 -0.3800  1.5078  1.1136
 7556TIP3    H244084   6.232   2.598   2.631  0.3923 -1.8594  0.6500
 7557TIP3   OH244085   0.213   4.491   0.275  0.0043  0.0850  0.0267
 7557TIP3    H144086   0.158   4.418   0.245  0.5202 -0.7685  1.1300
 7557TIP3    H244087   0.270   4.510   0.200 -0.3568 -0.4150 -0.3866
 7558TIP3   OH244088   1.506   5.010  10.644 -0.2285  0.0440 -0.0006
 7558TIP3    H144089   1.529   5.062  10.721  1.4895  1.3816 -1.3436
 7558TIP3    H244090   1.423   5.046  10.615  0.4668  1.4399 -0.3432
 7559TIP3   OH244091   4.476   2.231  12.731 -0.6072  0.1492  0.4000
 7559TIP3    H144092   4.529   2.299  12.689 -0.8363 -0.3191 -0.6958
 7559TIP3    H244093   4.537   2.159  12.747 -0.6227  0.1382  0.4085
 7560TIP3   OH244094   3.044   3.189  12.797 -0.1358  0.1975  0.4947
 7560TIP3    H144095   3.091   3.112  12.830  0.4276  0.7165  0.9348
 7560TIP3    H244096   2.998   3.223  12.874 -1.0135 -0.1388  0.1305
 7561TIP3   OH244097   0.152   5.644  13.284  0.2967  0.4646  0.4430
 7561TIP3    H144098   0.214   5.631  13.355  1.5073  3.4594  0.0675
 7561TIP3    H244099   0.204   5.678  13.212 -1.2934 -0.1196 -1.0658
 7562TIP3   OH244100   3.224   5.954   2.997 -1.0384  0.3250  0.2269
 7562TIP3    H144101   3.216   5.866   3.035 -1.6168 -0.2032 -1.0809
 7562TIP3    H244102   3.316   5.977   3.009 -0.7552 -0.6976  0.0752
 7563TIP3   OH244103   6.028   5.824  11.991  0.7499 -0.8528 -0.2290
 7563TIP3    H144104   5.954   5.763  11.985 -1.1850  1.4457 -1.3562
 7563TIP3    H244105   6.090   5.793  11.925  1.3270 -3.3343  1.3154
 7564TIP3   OH244106   2.090   2.733   3.855  0.1901  0.1333  0.2782
 7564TIP3    H144107   2.162   2.675   3.829  0.8327  0.6152  0.9230
 7564TIP3    H244108   2.027   2.726   3.784  2.4535  2.4086 -2.1847
 7565TIP3   OH244109   1.561   2.318  16.697 -0.0583 -0.0770  0.1109
 7565TIP3    H144110   1.589   2.309  16.788 -3.1193  0.8106  1.2738
 7565TIP3    H244111   1.640   2.341  16.649  2.1882 -3.0602  2.0216
 7566TIP3   OH244112   2.938   4.087  12.850  0.6788 -0.5324  0.5015
 7566TIP3    H144113   2.997   4.145  12.803  1.4235  0.3151  2.3864
 7566TIP3    H244114   2.995   4.025  12.896  0.0736 -0.3506  1.5359
 7567TIP3   OH244115   3.865   4.039  13.866  0.1449 -0.1839 -0.0028
 7567TIP3    H144116   3.958   4.018  13.860 -0.3017 -2.1448 -1.2012
 7567TIP3    H244117   3.833   3.986  13.939 -0.1258 -0.0084  0.0056
 7568TIP3   OH244118   2.365   4.175   6.006 -0.0368 -0.0423  0.1361
 7568TIP3    H144119   2.283   4.210   5.973  0.2315  0.9872  0.5171
 7568TIP3    H244120   2.345   4.148   6.095 -0.1759 -0.6021 -0.0653
 7569TIP3   OH244121   2.869   1.471  16.870  0.2933 -0.3776 -0.2422
 7569TIP3    H144122   2.823   1.481  16.953  0.3494 -2.9433  0.1875
 7569TIP3    H244123   2.962   1.474  16.893  0.3514  0.9948 -0.5596
 7570TIP3   OH244124   0.626   5.187  11.898 -0.6891 -0.1749 -0.3271
 7570TIP3    H144125   0.605   5.205  11.989  0.7243  2.2831 -0.3793
 7570TIP3    H244126   0.543   5.197  11.851 -0.8947  1.6506  0.3534
 7571TIP3   OH244127   6.712   6.041  13.383  0.0285  0.1009  0.2561
 7571TIP3    H144128   6.707   5.946  13.375  2.2634 -0.2280  1.8794
 7571TIP3    H244129   6.648   6.063  13.451 -1.2531 -0.0521 -0.8497
 7572TIP3   OH244130   5.780   3.968  13.092  0.0343  0.3326  0.0701
 7572TIP3    H144131   5.749   4.050  13.055 -1.0373 -0.2855 -0.4407
 7572TIP3    H244132   5.823   3.923  13.019  0.7912  0.5142  0.3953
 7573TIP3   OH244133   3.572   4.521   1.895  0.2136  0.2903  0.1701
 7573TIP3    H144134   3.629   4.554   1.964  2.2092 -0.0694 -1.2512
 7573TIP3    H244135   3.522   4.597   1.866  0.7588  0.8424  0.6806
 7574TIP3   OH244136   3.100   4.845   1.917 -0.1090  0.1336 -0.4989
 7574TIP3    H144137   3.041   4.899   1.866 -0.4626  0.3006  0.0753
 7574TIP3    H244138   3.185   4.854   1.874 -0.0869  1.4244 -0.2093
 7575TIP3   OH244139   2.780   1.707  16.318 -0.1286 -0.6282  0.3575
 7575TIP3    H144140   2.748   1.659  16.395 -2.3230 -0.2467 -0.2495
 7575TIP3    H244141   2.846   1.649  16.279  0.1758 -1.3412  1.8503
 7576TIP3   OH244142   0.159   4.276  13.590  0.8287 -0.3597  0.5767
 7576TIP3    H144143   0.092   4.207  13.601  1.4204 -1.0481 -0.0413
 7576TIP3    H244144   0.212   4.270  13.670 -0.0046  0.3797  1.2014
 7577TIP3   OH244145   1.583   6.656  12.946 -0.1136  0.1749  0.6072
 7577TIP3    H144146   1.593   6.665  13.041  0.5180  0.9456  0.4673
 7577TIP3    H244147   1.583   6.745  12.913 -3.5928  0.1554  0.1807
 7578TIP3   OH244148   2.973   3.644   1.203 -0.4796 -0.0251  0.3445
 7578TIP3    H144149   3.010   3.637   1.291 -0.2504 -1.3935  0.1575
 7578TIP3    H244150   3.036   3.697   1.155  0.0991 -0.4281  0.6415
 7579TIP3   OH244151   4.168   3.942   5.940 -1.1953  0.6135 -0.0685
 7579TIP3    H144152   4.175   4.038   5.941  1.5592  0.5655  2.6403
 7579TIP3    H244153   4.248   3.913   5.983 -2.2436 -2.9249 -0.2621
 7580TIP3   OH244154   4.898   3.426  14.527  0.0062  0.2325 -0.4089
 7580TIP3    H144155   4.825   3.475  14.565 -1.4154 -0.3219 -2.2620
 7580TIP3    H244156   4.973   3.486  14.532 -0.4101  0.6481  1.9641
 7581TIP3   OH244157   2.515   5.358  16.929  0.2363 -0.7938 -0.1746
 7581TIP3    H144158   2.532   5.452  16.930  2.4757 -1.1393 -0.4873
 7581TIP3    H244159   2.501   5.335  17.021  0.6223 -0.2977  0.0163
 7582TIP3   OH244160   5.445   4.968   5.240 -0.2126 -0.1790  0.3650
 7582TIP3    H144161   5.385   5.011   5.300  0.2500  1.5817 -0.3436
 7582TIP3    H244162   5.525   4.953   5.291  0.6163  2.4086 -0.0158
 7583TIP3   OH244163   3.565   3.498   3.568  0.1090  0.0054  0.2806
 7583TIP3    H144164   3.525   3.468   3.486  0.4183  2.5451 -0.9052
 7583TIP3    H244165   3.491   3.515   3.626 -0.2546  0.1908 -0.2325
 7584TIP3   OH244166   4.438   4.927  12.472  0.0310  0.3880 -0.2256
 7584TIP3    H144167   4.361   4.983  12.479  1.4231  2.3315  0.7225
 7584TIP3    H244168   4.511   4.989  12.457  1.4330 -1.3366 -0.8913
 7585TIP3   OH244169   6.593   6.770  13.998  0.1788 -0.6608 -0.1098
 7585TIP3    H144170   6.597   6.828  14.074 -1.7157 -0.4589 -0.1239
 7585TIP3    H244171   6.524   6.707  14.020 -0.9475 -0.1437 -1.9410
 7586TIP3   OH244172   0.018   4.700  13.652 -0.1370 -0.1672 -0.2123
 7586TIP3    H144173   0.049   4.693  13.562 -1.1537 -2.2227 -0.4488
 7586TIP3    H244174  -0.012   4.791  13.661 -0.7227 -0.1350 -2.1735
 7587TIP3   OH244175   3.616   5.454   5.822  0.1906 -0.1301 -0.2438
 7587TIP3    H144176   3.698   5.502   5.810  0.6403 -0.6331  0.6959
 7587TIP3    H244177   3.551   5.522   5.838  0.8118  0.1948  1.0282
 7588TIP3   OH244178   3.703   1.636  13.009 -0.1096  0.3344  0.2379
 7588TIP3    H144179   3.696   1.685  12.927 -1.4191  0.9378  0.6800
 7588TIP3    H244180   3.796   1.614  13.016  0.1863  1.1302 -0.9116
 7589TIP3   OH244181   5.266   4.246  11.350 -0.3782  0.1539  0.0297
 7589TIP3    H144182   5.238   4.283  11.266 -0.8018 -0.1066  0.0517
 7589TIP3    H244183   5.283   4.154  11.330  1.1340  0.4496 -0.1307
 7590TIP3   OH244184   2.903   2.355  13.638  0.6124  0.5074  0.0648
 7590TIP3    H144185   2.884   2.357  13.732  0.4263 -0.3351  0.0552
 7590TIP3    H244186   2.826   2.393  13.597 -0.8463 -2.2165  0.0660
 7591TIP3   OH244187   1.082   2.334  15.481 -0.2665 -0.1846  0.5459
 7591TIP3    H144188   1.012   2.354  15.420 -0.9707 -0.8790  1.0926
 7591TIP3    H244189   1.123   2.418  15.501 -0.4672  0.1293 -0.3413
 7592TIP3   OH244190   5.046   2.167   5.378  0.5440  0.0225 -0.6429
 7592TIP3    H144191   5.134   2.135   5.397  0.0765 -0.6916  0.4160
 7592TIP3    H244192   5.026   2.227   5.449  0.5407  0.9530 -1.4123
 7593TIP3   OH244193   2.431   1.763   4.902  0.0220  0.2968 -0.4474
 7593TIP3    H144194   2.349   1.724   4.930  0.0050  0.1811 -0.6548
 7593TIP3    H244195   2.412   1.799   4.815  0.5165 -0.8335 -1.0457
 7594TIP3   OH244196   3.018   0.358   2.049  0.1155  0.0838 -0.1682
 7594TIP3    H144197   3.035   0.444   2.011  1.1266 -0.8636 -1.9561
 7594TIP3    H244198   3.104   0.318   2.059 -0.3739 -0.9317  0.1356
 7595TIP3   OH244199   2.392   3.638  12.300  0.7416 -0.0128  0.2007
 7595TIP3    H144200   2.447   3.568  12.336 -0.4788 -1.0446  0.1222
 7595TIP3    H244201   2.373   3.694  12.375 -1.8361 -2.1772  1.3545
 7596TIP3   OH244202   3.768   4.844   5.235  0.8863 -0.0107  0.0104
 7596TIP3    H144203   3.700   4.791   5.276  0.9482  0.5831  0.9176
 7596TIP3    H244204   3.847   4.789   5.238  0.6340 -0.3950 -0.3242
 7597TIP3   OH244205   5.526   0.717   2.462  0.1117 -0.2128  0.0678
 7597TIP3    H144206   5.501   0.763   2.382 -2.5653 -1.8295 -0.1611
 7597TIP3    H244207   5.444   0.711   2.512  0.8652 -2.5891  1.1361
 7598TIP3   OH244208   2.432   2.464  12.369  0.3579  0.0107 -0.7190
 7598TIP3    H144209   2.524   2.481  12.354  0.5342 -0.5265 -0.2923
 7598TIP3    H244210   2.398   2.436  12.284 -0.3495  3.9906 -1.9571
 7599TIP3   OH244211   6.167   1.909  12.192 -0.1444 -0.5204  0.1255
 7599TIP3    H144212   6.189   1.933  12.282  2.1769  0.3005 -0.5966
 7599TIP3    H244213   6.097   1.844  12.201  0.1298 -0.5644  2.5265
 7600TIP3   OH244214   4.774   4.394  16.388  0.2532 -0.5245 -0.0382
 7600TIP3    H144215   4.854   4.446  16.385  0.2433 -0.4508  0.8215
 7600TIP3    H244216   4.795   4.319  16.443 -0.5406  0.0085  1.0296
 7601TIP3   OH244217   4.269   6.642   1.465  0.0030 -0.2336  0.3585
 7601TIP3    H144218   4.341   6.627   1.404  0.6230  0.5356  0.8728
 7601TIP3    H244219   4.308   6.627   1.551 -0.4042  0.3681  0.6488
 7602TIP3   OH244220   5.375   1.511   3.551  0.0787  0.0782 -0.9001
 7602TIP3    H144221   5.335   1.476   3.472 -0.0780  1.7288 -1.5863
 7602TIP3    H244222   5.467   1.526   3.527  0.1043  0.2907 -0.6777
 7603TIP3   OH244223   2.563   5.130   0.122  0.5313 -0.5639 -0.3264
 7603TIP3    H144224   2.576   5.112   0.215 -0.1651  0.4828 -0.0085
 7603TIP3    H244225   2.651   5.124   0.084  0.9590 -0.1114  0.5609
 7604TIP3   OH244226   1.976   4.186   4.936  0.2875 -0.2556 -0.0221
 7604TIP3    H144227   1.971   4.235   5.019  1.4278  0.5815 -0.4190
 7604TIP3    H244228   1.968   4.253   4.868  1.1170 -0.7024 -0.5792
 7605TIP3   OH244229   3.334   6.003   6.020 -0.0449  0.3175 -0.2499
 7605TIP3    H144230   3.266   5.937   6.031  1.6551 -1.5858 -0.4636
 7605TIP3    H244231   3.297   6.066   5.958 -0.8134 -1.9208 -2.2208
 7606TIP3   OH244232   6.499   1.562  16.334  0.8887 -0.4402  0.7246
 7606TIP3    H144233   6.486   1.498  16.265  1.3623 -0.7917  0.9566
 7606TIP3    H244234   6.594   1.564  16.348  0.9738  0.9655  0.1066
 7607TIP3   OH244235   5.261   1.142   3.927 -0.1215  0.3919 -0.1588
 7607TIP3    H144236   5.269   1.194   3.847  1.1505 -0.1901 -0.4413
 7607TIP3    H244237   5.313   1.063   3.909  0.1921  0.2635  1.2391
 7608TIP3   OH244238   4.075   5.611   4.873 -0.0197  0.7245 -0.5221
 7608TIP3    H144239   4.045   5.521   4.883 -4.2061  1.5913 -2.9123
 7608TIP3    H244240   4.003   5.664   4.908  1.8392  3.2211 -0.1703
 7609TIP3   OH244241   4.063   5.383   6.258  0.6833 -0.2058 -0.5814
 7609TIP3    H144242   4.007   5.431   6.318 -2.0041  0.3867 -3.2905
 7609TIP3    H244243   4.017   5.300   6.244  1.2175 -0.3175 -1.7890
 7610TIP3   OH244244   5.160   4.104  17.124 -0.2200  0.0681 -0.1030
 7610TIP3    H144245   5.131   4.013  17.115  0.6806 -0.1802 -0.6503
 7610TIP3    H244246   5.179   4.114  17.217 -1.1428 -0.0364  0.1077
 7611TIP3   OH244247   5.129   2.461   5.251  0.0858  0.9385  0.0749
 7611TIP3    H144248   5.203   2.517   5.271  0.1934  0.1754  1.9656
 7611TIP3    H244249   5.165   2.373   5.250 -0.5842  0.6612 -0.2290
 7612TIP3   OH244250   1.287   5.247   3.234 -0.3755 -0.2415  0.2525
 7612TIP3    H144251   1.349   5.298   3.286 -0.7966  0.4889  0.0465
 7612TIP3    H244252   1.326   5.159   3.230  1.4778  0.5806 -1.2228
 7613TIP3   OH244253   2.294   3.746  12.068  0.0931 -0.5084  0.0983
 7613TIP3    H144254   2.325   3.717  12.154 -2.4933  1.0790  1.6761
 7613TIP3    H244255   2.345   3.825  12.050 -1.0729  0.5911  1.4222
 7614TIP3   OH244256   2.553   1.785   4.040  0.4738  0.2647  0.4524
 7614TIP3    H144257   2.548   1.740   4.124 -1.2214  0.9227  0.7464
 7614TIP3    H244258   2.531   1.718   3.975 -1.1744  0.4160  0.8118
 7615TIP3   OH244259   0.366   5.711   1.027  0.0160 -0.4629  0.3826
 7615TIP3    H144260   0.314   5.785   1.057 -0.4553 -0.8247  0.4788
 7615TIP3    H244261   0.303   5.654   0.983  0.4831 -0.5245 -0.2177
 7616TIP3   OH244262   2.521   1.708   5.259 -1.5830 -0.4402 -0.3750
 7616TIP3    H144263   2.520   1.737   5.350  0.5142 -1.4962  0.0569
 7616TIP3    H244264   2.474   1.777   5.211  0.7743  2.3172  0.9595
 7617TIP3   OH244265   1.228   0.234  16.523  0.3698  0.1881  0.2961
 7617TIP3    H144266   1.261   0.145  16.514  1.5654  0.6107  0.3405
 7617TIP3    H244267   1.296   0.280  16.572 -1.2817  0.5416  2.3913
 7618TIP3   OH244268   4.839   5.670  12.834 -0.5832 -0.2157  0.1519
 7618TIP3    H144269   4.769   5.735  12.846 -1.4250 -0.9137 -0.7996
 7618TIP3    H244270   4.802   5.607  12.772  0.7047 -0.8953  0.0557
 7619TIP3   OH244271   0.573   5.475  14.305 -0.0572 -0.2962 -0.2170
 7619TIP3    H144272   0.666   5.462  14.288 -0.5997 -0.1949 -4.1809
 7619TIP3    H244273   0.550   5.406  14.367  2.3200 -1.4607 -0.5253
 7620TIP3   OH244274   0.085   3.975  15.638 -0.1553 -0.4597  0.0716
 7620TIP3    H144275   0.072   3.981  15.544  0.5773 -3.3412 -0.2949
 7620TIP3    H244276   0.004   3.938  15.672  0.8627 -2.9114  0.0043
 7621TIP3   OH244277   0.842   0.839   4.012  0.3919  0.2005 -0.7602
 7621TIP3    H144278   0.867   0.780   3.940  0.9556  0.4084 -0.7450
 7621TIP3    H244279   0.749   0.821   4.027  0.3959 -0.2137 -1.1955
 7622TIP3   OH244280   2.933   5.139   4.457  0.0871  0.5083 -0.7033
 7622TIP3    H144281   2.933   5.231   4.433  0.0587  0.8785  0.6414
 7622TIP3    H244282   3.023   5.109   4.439  0.7329  1.3821  0.9364
 7623TIP3   OH244283   2.083   6.564  14.970  0.4565 -0.1512 -0.0395
 7623TIP3    H144284   2.177   6.546  14.980  0.5390  0.4053  0.2625
 7623TIP3    H244285   2.046   6.545  15.056  0.4246  0.3805  0.0682
 7624TIP3   OH244286   4.989   2.022   1.666 -0.0665 -0.2186 -0.0605
 7624TIP3    H144287   4.966   1.975   1.746 -0.7847  0.6657  0.2733
 7624TIP3    H244288   4.905   2.047   1.628  0.2650 -0.6959 -1.1434
 7625TIP3   OH244289   1.296   6.183  17.200  0.2633  0.1138  0.2153
 7625TIP3    H144290   1.323   6.252  17.261 -1.4969  1.1083 -0.0313
 7625TIP3    H244291   1.276   6.108  17.255 -2.1761  1.2810  1.0692
 7626TIP3   OH244292   4.554   2.631  11.825 -0.2100  0.1922  0.6099
 7626TIP3    H144293   4.645   2.623  11.852 -0.5143  1.1127  2.0108
 7626TIP3    H244294   4.506   2.571  11.882 -0.5495  0.0744  0.2097
 7627TIP3   OH244295   2.914   2.149   1.371 -0.5433 -0.2178  0.6711
 7627TIP3    H144296   2.852   2.123   1.303  1.0829 -1.3961 -0.4398
 7627TIP3    H244297   2.950   2.232   1.339 -1.0520  0.1343  0.9954
 7628TIP3   OH244298   0.619   6.680   5.366  0.1902 -0.3475 -0.0407
 7628TIP3    H144299   0.617   6.776   5.367 -0.2025 -0.2804 -2.1852
 7628TIP3    H244300   0.545   6.654   5.420 -0.0811  0.5789  0.0526
 7629TIP3   OH244301   0.835   5.320   4.612 -0.5476  0.1694 -0.3516
 7629TIP3    H144302   0.830   5.336   4.518 -0.2374 -0.8044 -0.5406
 7629TIP3    H244303   0.894   5.245   4.621 -0.7304  0.1246  0.6077
 7630TIP3   OH244304   0.224   5.814  12.102  0.1165  0.0404 -0.1234
 7630TIP3    H144305   0.184   5.729  12.082  2.5001 -0.8575 -1.5016
 7630TIP3    H244306   0.174   5.877  12.050 -0.2466 -0.8730 -0.9191
 7631TIP3   OH244307   3.287   5.680   1.167  0.4199 -0.1592  0.6618
 7631TIP3    H144308   3.238   5.749   1.211 -0.7034  0.6180 -1.6297
 7631TIP3    H244309   3.285   5.704   1.074  0.8505 -2.7463 -0.1088
 7632TIP3   OH244310   5.127   1.575   5.819  0.2600  0.4402  0.6032
 7632TIP3    H144311   5.185   1.574   5.895  3.2914 -0.0762 -1.5460
 7632TIP3    H244312   5.141   1.490   5.777 -1.7973  0.4792 -0.2525
 7633TIP3   OH244313   3.441   6.317  14.984  0.4961 -0.3588 -0.4058
 7633TIP3    H144314   3.525   6.363  14.983  0.6797 -0.6983 -0.7942
 7633TIP3    H244315   3.391   6.360  15.053  0.5935  0.5628 -0.8904
 7634TIP3   OH244316   2.528   3.104   3.287  0.1337  0.4751 -0.2195
 7634TIP3    H144317   2.528   3.099   3.383 -1.6593  1.6126 -0.1071
 7634TIP3    H244318   2.509   3.015   3.258 -0.5105  0.3532  0.5387
 7635TIP3   OH244319   2.486   3.109  15.858 -0.8066 -0.3531  0.1525
 7635TIP3    H144320   2.406   3.059  15.840 -1.1558 -0.2649  1.4103
 7635TIP3    H244321   2.501   3.100  15.952  0.4175  0.0131  0.0185
 7636TIP3   OH244322   3.316   4.126   1.290 -0.2623  0.0458 -0.1443
 7636TIP3    H144323   3.223   4.104   1.291 -0.0996 -0.6360  0.7028
 7636TIP3    H244324   3.355   4.073   1.359  0.9580 -0.4956 -1.2040
 7637TIP3   OH244325   0.575   2.124  11.064 -0.1446  0.2472 -0.2835
 7637TIP3    H144326   0.591   2.032  11.045 -0.5836 -0.6707  3.0585
 7637TIP3    H244327   0.482   2.129  11.085  0.4370  0.6418  2.7170
 7638TIP3   OH244328   2.626   0.582   4.966 -0.5664  0.3596  0.3933
 7638TIP3    H144329   2.656   0.670   4.945  0.2317  0.5514  2.1370
 7638TIP3    H244330   2.705   0.536   4.995 -0.3852 -1.8482 -2.9579
 7639TIP3   OH244331   2.360   0.541   0.458  0.2816  0.6122  0.1610
 7639TIP3    H144332   2.382   0.454   0.493 -1.0449  0.2478  0.1410
 7639TIP3    H244333   2.443   0.588   0.458  1.3957 -1.2117 -1.4817
 7640TIP3   OH244334   1.388   1.170  12.478  0.3645 -0.1359 -0.3209
 7640TIP3    H144335   1.387   1.074  12.471 -3.6577 -0.1653 -1.5036
 7640TIP3    H244336   1.335   1.189  12.555  0.9660  1.1635 -0.2116
 7641TIP3   OH244337   4.212   4.954  13.830  0.1268  0.4492 -0.3373
 7641TIP3    H144338   4.146   4.996  13.884  0.4755  0.3028  0.2066
 7641TIP3    H244339   4.294   4.968  13.877  0.2361 -0.9321 -0.0844
 7642TIP3   OH244340   0.955   5.604  13.992 -0.3442 -0.1903 -0.4074
 7642TIP3    H144341   0.972   5.601  14.086 -1.9587  1.0418 -0.0305
 7642TIP3    H244342   0.875   5.553  13.980 -1.5100  1.6483 -0.7291
 7643TIP3   OH244343   6.488   6.509   4.733  0.5189  0.3562 -0.1394
 7643TIP3    H144344   6.570   6.464   4.755  0.3978  0.2723  0.1418
 7643TIP3    H244345   6.462   6.553   4.814 -1.9415 -3.0515  1.1302
 7644TIP3   OH244346   6.117   4.948  16.394 -0.0951 -0.4024  0.5382
 7644TIP3    H144347   6.057   5.019  16.370 -0.3805 -0.3698  1.3170
 7644TIP3    H244348   6.165   4.929  16.313 -0.1827  0.5106  0.2594
 7645TIP3   OH244349   0.831   2.737   0.299  0.4565  0.5257 -0.5889
 7645TIP3    H144350   0.898   2.798   0.267 -0.5615  1.4848 -0.9533
 7645TIP3    H244351   0.792   2.701   0.219 -0.1778  0.7739 -0.3909
 7646TIP3   OH244352   4.203   3.492  11.825  0.1760 -0.4272  0.7648
 7646TIP3    H144353   4.227   3.453  11.741  0.7905  0.4614  0.5122
 7646TIP3    H244354   4.212   3.586  11.811  0.7167 -0.2808  1.9524
 7647TIP3   OH244355   4.639   2.257   4.273  0.5677 -0.5622  0.1342
 7647TIP3    H144356   4.656   2.268   4.179 -0.4709  1.0359  0.0843
 7647TIP3    H244357   4.722   2.277   4.316  1.2699 -2.0847 -0.4504
 7648TIP3   OH244358   0.526   4.721   0.210  0.1743  0.6167  0.0662
 7648TIP3    H144359   0.548   4.695   0.299 -1.8151 -3.0220 -0.3022
 7648TIP3    H244360   0.458   4.788   0.220  0.2566  0.5315  1.2980
 7649TIP3   OH244361   5.254   2.948  17.146 -0.2816 -0.0493 -0.2022
 7649TIP3    H144362   5.350   2.949  17.148 -0.2481 -1.6869  0.4743
 7649TIP3    H244363   5.229   3.017  17.208  0.4486  0.2388 -0.2133
 7650TIP3   OH244364   6.304   5.135   2.167  0.4992 -0.1503  0.6871
 7650TIP3    H144365   6.252   5.055   2.163  0.0418 -0.1122  3.7494
 7650TIP3    H244366   6.256   5.192   2.227  1.8082  1.6957  0.0959
 7651TIP3   OH244367   1.652   1.684  13.617 -0.4125  0.4309 -0.0065
 7651TIP3    H144368   1.666   1.602  13.569  0.4547  0.6179 -0.1054
 7651TIP3    H244369   1.611   1.743  13.554  0.3768  0.5539 -0.4274
 7652TIP3   OH244370   0.594   4.735  12.086  0.3749 -0.1489  0.0140
 7652TIP3    H144371   0.555   4.648  12.080  0.3781 -0.0671 -1.4497
 7652TIP3    H244372   0.535   4.783  12.145 -0.4391 -0.7141 -0.3217
 7653TIP3   OH244373   0.578   1.214  15.718 -0.1910 -0.3650 -0.4590
 7653TIP3    H144374   0.545   1.252  15.799  1.4684 -0.3449  0.2425
 7653TIP3    H244375   0.638   1.280  15.683 -1.1029 -0.2535 -1.8668
 7654TIP3   OH244376   0.332   4.091  11.240 -0.5240 -0.1123  0.0264
 7654TIP3    H144377   0.329   4.185  11.257 -0.4384  0.5063 -2.7826
 7654TIP3    H244378   0.250   4.073  11.193 -0.0950 -1.2330 -0.3239
 7655TIP3   OH244379   5.364   4.079  12.802 -0.4845  0.0345  0.3848
 7655TIP3    H144380   5.378   4.170  12.826 -0.4687  0.1460 -0.0491
 7655TIP3    H244381   5.274   4.077  12.768  0.4212  0.4373 -2.2014
 7656TIP3   OH244382   1.328   4.500  11.182 -0.3146 -0.1567  0.3060
 7656TIP3    H144383   1.356   4.553  11.257  0.3543  0.8625 -0.6234
 7656TIP3    H244384   1.335   4.559  11.107  1.5729 -1.8538 -0.9675
 7657TIP3   OH244385   6.088   1.658   6.192 -0.4541 -0.4298  0.5309
 7657TIP3    H144386   6.139   1.714   6.251  0.1764  1.6303 -1.8032
 7657TIP3    H244387   6.136   1.661   6.109 -2.9426 -0.6325 -1.0108
 7658TIP3   OH244388   0.945   6.551  12.423  0.5354 -0.3161  0.0446
 7658TIP3    H144389   0.955   6.456  12.434  1.5678 -0.2089  0.1283
 7658TIP3    H244390   0.976   6.588  12.506  1.2803  0.1503 -0.4357
 7659TIP3   OH244391   4.825   5.330  13.551 -0.3518 -0.3963 -0.1250
 7659TIP3    H144392   4.903   5.355  13.501 -0.5442  0.3898 -0.0308
 7659TIP3    H244393   4.758   5.313  13.485 -0.4316  0.0465 -0.1555
 7660TIP3   OH244394   5.949   3.858   1.351 -0.2288  0.1552  0.2637
 7660TIP3    H144395   5.970   3.774   1.310 -0.1864  1.7524 -3.4315
 7660TIP3    H244396   6.033   3.892   1.381 -0.4604 -1.7737  3.5776
 7661TIP3   OH244397   4.760   3.362  14.282 -0.8516 -0.2235 -1.0602
 7661TIP3    H144398   4.812   3.366  14.202 -1.0049 -0.0893 -1.1522
 7661TIP3    H244399   4.822   3.383  14.352 -1.2623  2.2997 -1.3647
 7662TIP3   OH244400   1.905   1.571  13.026 -0.0173  0.5616 -0.2078
 7662TIP3    H144401   1.825   1.581  12.975  0.1952 -0.0132 -0.6726
 7662TIP3    H244402   1.945   1.491  12.991 -0.4759 -0.5589  1.6894
 7663TIP3   OH244403   4.811   5.583  17.106 -0.0006  0.0041  0.1668
 7663TIP3    H144404   4.784   5.611  17.018 -0.1662  0.1687  0.2709
 7663TIP3    H244405   4.840   5.664  17.149  0.8473 -0.1965 -0.0093
 7664TIP3   OH244406   4.556   0.218  14.902  0.2184 -0.8389 -0.3273
 7664TIP3    H144407   4.567   0.171  14.819 -0.8822  0.8359 -1.5007
 7664TIP3    H244408   4.643   0.215  14.943  1.1649 -0.5559 -2.1916
 7665TIP3   OH244409   1.688   0.143  14.724 -0.7628  0.1277  0.3940
 7665TIP3    H144410   1.770   0.136  14.675 -1.0186 -2.2537  0.1821
 7665TIP3    H244411   1.712   0.125  14.815 -1.1188 -1.4024  0.2136
 7666TIP3   OH244412   6.195   1.726   3.309 -0.2911  0.1751 -0.8628
 7666TIP3    H144413   6.189   1.664   3.381  0.9744  0.2439 -0.6794
 7666TIP3    H244414   6.104   1.749   3.290 -0.7389 -1.1734 -0.4613
 7667TIP3   OH244415   1.157   4.597  17.065  0.2939 -0.0835 -0.2417
 7667TIP3    H144416   1.162   4.682  17.021 -1.8157  0.4496  0.4225
 7667TIP3    H244417   1.117   4.540  17.000 -0.6435  0.1108  0.1423
 7668TIP3   OH244418   4.845   6.538   2.263  0.7049 -0.2237  0.1575
 7668TIP3    H144419   4.776   6.493   2.311 -1.5615  1.1152 -1.6858
 7668TIP3    H244420   4.887   6.594   2.328 -0.5338 -0.3768  1.1255
 7669TIP3   OH244421   4.683   4.432   3.174  0.4548 -0.3773  0.0346
 7669TIP3    H144422   4.644   4.519   3.176  1.7739  0.3097  3.3912
 7669TIP3    H244423   4.770   4.446   3.137  0.8718 -0.0997  1.0740
 7670TIP3   OH244424   5.631   2.202   4.828 -0.2868 -0.3361 -0.0507
 7670TIP3    H144425   5.670   2.201   4.741 -1.4735 -1.0696 -0.5953
 7670TIP3    H244426   5.563   2.269   4.823 -0.1789 -0.1866  0.4039
 7671TIP3   OH244427   6.638   4.163  17.143  0.2296  0.5886  0.0731
 7671TIP3    H144428   6.713   4.106  17.161 -0.2347 -0.8585 -2.2043
 7671TIP3    H244429   6.599   4.179  17.229  0.1591 -2.9141  0.8683
 7672TIP3   OH244430   5.175   3.862  14.704 -0.9190  0.3129 -0.5882
 7672TIP3    H144431   5.211   3.774  14.712 -2.5001 -0.2018  1.5684
 7672TIP3    H244432   5.251   3.919  14.710 -0.0274 -0.8490 -0.4730
 7673TIP3   OH244433   0.364   6.500  11.816 -0.3162 -0.0326 -0.8697
 7673TIP3    H144434   0.402   6.544  11.892  1.4903  0.4154 -1.9498
 7673TIP3    H244435   0.324   6.570  11.765 -4.2625 -0.6610  0.9872
 7674TIP3   OH244436   4.164   0.430  13.140  0.0090 -0.3218 -0.7226
 7674TIP3    H144437   4.135   0.454  13.228  0.0592  0.6235 -0.9519
 7674TIP3    H244438   4.209   0.346  13.151  0.6588  0.1409  0.2679
 7675TIP3   OH244439   4.905   2.771  12.839  0.1608 -0.0983 -0.1688
 7675TIP3    H144440   4.826   2.818  12.813  0.4190 -0.0925 -0.9541
 7675TIP3    H244441   4.892   2.682  12.806  0.6144 -0.0169 -0.5724
 7676TIP3   OH244442   2.980   5.157  11.073  0.4706 -0.6741  0.4841
 7676TIP3    H144443   2.912   5.224  11.077  0.3141 -0.4835 -2.8919
 7676TIP3    H244444   3.057   5.203  11.041  0.8466 -1.7915 -0.2598
 7677TIP3   OH244445   1.694   1.020   2.055 -0.2354 -0.5813 -1.0447
 7677TIP3    H144446   1.608   1.060   2.068  0.6512  0.8338  1.0954
 7677TIP3    H244447   1.680   0.957   1.985 -3.0952 -0.6628 -0.5566
 7678TIP3   OH244448   1.342   3.816  16.865  0.3523  0.1415  0.0913
 7678TIP3    H144449   1.356   3.799  16.958 -1.9836 -2.5069  0.0738
 7678TIP3    H244450   1.394   3.749  16.820  0.0771  0.2998 -0.4775
 7679TIP3   OH244451   3.577   0.904   0.212  0.4023 -0.1098 -0.3348
 7679TIP3    H144452   3.603   0.986   0.254 -0.6961  0.2936 -0.4170
 7679TIP3    H244453   3.540   0.851   0.283 -0.1055 -0.0089 -0.5232
 7680TIP3   OH244454   6.145   0.064  13.272 -0.1867 -0.0542 -1.0683
 7680TIP3    H144455   6.157   0.040  13.363 -2.8354 -1.8646 -1.0655
 7680TIP3    H244456   6.194  -0.001  13.223 -1.3055 -1.0218 -0.9395
 7681TIP3   OH244457   1.935   0.188   4.376 -0.0508  0.2018 -0.5263
 7681TIP3    H144458   1.881   0.109   4.371 -0.4557  0.4506 -0.1057
 7681TIP3    H244459   1.911   0.229   4.459  0.5840  0.4649 -0.4661
 7682TIP3   OH244460   0.606   2.473   1.506 -0.0114  0.5411 -0.4269
 7682TIP3    H144461   0.650   2.389   1.519  0.5121  1.1679  2.2673
 7682TIP3    H244462   0.512   2.451   1.510  0.0997 -0.0079 -0.6841
 7683TIP3   OH244463   2.124   4.891  11.185 -0.4396 -0.3096  0.0367
 7683TIP3    H144464   2.127   4.922  11.275 -1.2795  1.3086 -0.4417
 7683TIP3    H244465   2.054   4.826  11.184 -1.0431  0.3210  0.3942
 7684TIP3   OH244466   5.778   3.866  13.330  0.0985 -0.1440  0.0586
 7684TIP3    H144467   5.785   3.905  13.243  0.6681  1.6883  0.8834
 7684TIP3    H244468   5.732   3.783  13.316  0.9204 -0.2867 -2.0832
 7685TIP3   OH244469   0.401   5.975   4.475  0.2840 -0.2758 -0.4960
 7685TIP3    H144470   0.347   5.901   4.447  0.7248 -0.7828 -0.0522
 7685TIP3    H244471   0.384   5.983   4.568  0.9186 -0.4030 -0.3654
 7686TIP3   OH244472   2.337   3.246  12.361  0.3066  0.0748 -0.4512
 7686TIP3    H144473   2.249   3.281  12.355 -0.5583 -2.1106 -1.7928
 7686TIP3    H244474   2.325   3.152  12.373  2.4682  0.0404  2.4173
 7687TIP3   OH244475   1.822   5.949  16.995  0.1157  0.2233 -0.2874
 7687TIP3    H144476   1.727   5.952  16.992  0.1366  1.6379 -0.6135
 7687TIP3    H244477   1.844   5.857  17.006 -1.2946 -0.0645  0.2511
 7688TIP3   OH244478   2.341   3.646  10.814  0.0840 -0.4021  0.0680
 7688TIP3    H144479   2.273   3.702  10.853  0.5107  0.9751 -1.1011
 7688TIP3    H244480   2.301   3.612  10.734  0.8022  0.5617 -0.7211
 7689TIP3   OH244481   6.096   5.608  15.232  0.4663  0.1101  0.0290
 7689TIP3    H144482   6.095   5.516  15.260  2.2428 -0.7443 -2.3150
 7689TIP3    H244483   6.182   5.640  15.258 -0.4966  1.4970  1.7025
 7690TIP3   OH244484   0.548   0.983  14.366 -0.0023 -0.6129  0.4223
 7690TIP3    H144485   0.518   1.035  14.441 -0.8005 -0.2155 -0.1508
 7690TIP3    H244486   0.642   1.000  14.361 -0.4578  2.1752 -0.7380
 7691TIP3   OH244487   5.401   5.076  16.572  0.0399  0.2531  0.2423
 7691TIP3    H144488   5.437   5.110  16.491  1.7335  1.7243  1.5302
 7691TIP3    H244489   5.340   5.144  16.601 -0.1657 -0.0225  0.4582
 7692TIP3   OH244490   6.583   2.084  13.965  0.2247 -0.2914  0.3951
 7692TIP3    H144491   6.571   2.000  14.009  1.1724 -1.2531 -1.0600
 7692TIP3    H244492   6.552   2.069  13.875  1.8383  0.4027 -0.3313
 7693TIP3   OH244493   5.394   5.648   3.738 -0.0059  0.0490 -1.0048
 7693TIP3    H144494   5.461   5.580   3.736  1.1896  1.1022  0.8279
 7693TIP3    H244495   5.435   5.724   3.698 -0.2614  0.5716 -0.2890
 7694TIP3   OH244496   5.103   2.618  12.677 -0.0802 -0.2503  0.7965
 7694TIP3    H144497   5.054   2.696  12.651 -1.3503 -0.7299  1.6520
 7694TIP3    H244498   5.184   2.652  12.715  0.2444  0.5636 -0.5694
 7695TIP3   OH244499   0.038   1.620  12.400 -0.0504 -0.2644  0.1251
 7695TIP3    H144500  -0.025   1.661  12.459 -0.1504 -0.2562  0.0122
 7695TIP3    H244501  -0.015   1.580  12.331  0.1167  0.4803 -0.4410
 7696TIP3   OH244502   4.870   1.998  16.173 -0.3753 -0.5219  0.1149
 7696TIP3    H144503   4.809   1.943  16.222  1.4418 -3.5433 -0.7850
 7696TIP3    H244504   4.853   1.977  16.081 -0.4673  1.4573 -0.3705
 7697TIP3   OH244505   4.757   6.519   1.239 -0.6498  0.0567  0.2663
 7697TIP3    H144506   4.838   6.515   1.291 -0.8616  0.4205  0.6270
 7697TIP3    H244507   4.758   6.606   1.199 -0.4587 -0.2430 -0.3973
 7698TIP3   OH244508   1.856   3.180  14.072  0.0246 -0.2967 -0.2126
 7698TIP3    H144509   1.842   3.127  13.994 -1.3473 -0.1595 -0.0840
 7698TIP3    H244510   1.900   3.259  14.041  0.3511 -0.6673 -0.6962
 7699TIP3   OH244511   3.992   6.545  14.793  0.0189  0.6093 -0.4128
 7699TIP3    H144512   3.937   6.598  14.736 -0.5153 -0.1104 -0.5844
 7699TIP3    H244513   4.079   6.549  14.753  0.1957  2.0738  0.0781
 7700TIP3   OH244514   3.720   2.934   1.590  0.7276 -0.2590  0.6858
 7700TIP3    H144515   3.691   2.865   1.650  1.2392 -1.2903 -0.2090
 7700TIP3    H244516   3.651   3.000   1.593  0.6596 -0.3585  2.2578
 7701TIP3   OH244517   3.862   1.609  16.106 -0.2175  0.2121 -0.3020
 7701TIP3    H144518   3.797   1.546  16.074 -0.4320 -0.7684  1.8871
 7701TIP3    H244519   3.932   1.555  16.143 -0.2536  1.2177  1.3315
 7702TIP3   OH244520   5.948   0.282  16.808 -0.4268  0.8073  0.9665
 7702TIP3    H144521   5.903   0.316  16.731 -1.4968  1.9080  2.0253
 7702TIP3    H244522   6.037   0.262  16.778 -0.7055  1.5781 -0.4422
 7703TIP3   OH244523   4.958   5.481  13.318 -0.6245  0.5390 -0.7880
 7703TIP3    H144524   4.994   5.557  13.364  0.3861  0.1743 -0.9566
 7703TIP3    H244525   4.935   5.513  13.231  0.6218  0.4745 -1.1616
 7704TIP3   OH244526   1.180   1.209  12.660  0.0518  0.0252 -0.3956
 7704TIP3    H144527   1.136   1.268  12.599  0.6895  2.0159  0.9706
 7704TIP3    H244528   1.108   1.164  12.705 -0.6195  2.1815  0.8015
 7705TIP3   OH244529   4.728   3.044   2.692  0.0499 -0.0396  0.1773
 7705TIP3    H144530   4.788   3.013   2.624 -1.3334 -3.7913  0.4182
 7705TIP3    H244531   4.649   3.070   2.645 -0.2731 -0.9836  0.1602
 7706TIP3   OH244532   6.572   5.846  12.956 -0.3211  0.1011  0.7647
 7706TIP3    H144533   6.618   5.927  12.937 -1.8856  1.1086  1.0488
 7706TIP3    H244534   6.538   5.857  13.045 -0.6890 -0.7939  0.7506
 7707TIP3   OH244535   0.022   5.127   4.041  0.0617 -0.0947  0.1693
 7707TIP3    H144536  -0.013   5.077   3.967 -1.8154 -1.0434  1.5905
 7707TIP3    H244537   0.016   5.218   4.013  0.2968 -0.4763 -1.1923
 7708TIP3   OH244538   5.635   4.112   5.298  0.1026  0.4119  0.0432
 7708TIP3    H144539   5.696   4.184   5.287  0.3865  0.0286 -1.0528
 7708TIP3    H244540   5.631   4.097   5.392  1.8985  0.2729  0.1306
 7709TIP3   OH244541   5.598   1.674   4.302  0.0772  0.0594  0.9246
 7709TIP3    H144542   5.557   1.651   4.219  1.7080  2.1723 -0.5982
 7709TIP3    H244543   5.656   1.601   4.322  1.8687  0.6944 -1.4376
 7710TIP3   OH244544   5.339   2.108   4.045  0.5032 -0.5140 -0.1600
 7710TIP3    H144545   5.270   2.042   4.052  1.3599 -1.3830  0.2801
 7710TIP3    H244546   5.343   2.129   3.952 -0.7480  0.0014 -0.1195
 7711TIP3   OH244547   1.898   4.857   6.715  0.6642  0.2911 -0.7325
 7711TIP3    H144548   1.929   4.901   6.635  1.3877 -0.8140 -1.0891
 7711TIP3    H244549   1.968   4.873   6.779  1.1465 -0.6929 -0.9987
 7712TIP3   OH244550   5.147   2.918   4.239  0.2325 -0.1039  0.0934
 7712TIP3    H144551   5.081   2.987   4.243 -2.3199 -2.4213  0.2333
 7712TIP3    H244552   5.117   2.851   4.299  2.9648 -1.1573  0.4589
 7713TIP3   OH244553   1.139   2.334   1.578  0.3301 -0.1067  0.3747
 7713TIP3    H144554   1.181   2.371   1.655  1.0544  0.8379 -0.4563
 7713TIP3    H244555   1.069   2.396   1.556  0.0902 -0.3983  0.2933
 7714TIP3   OH244556   4.473   6.567   1.261  0.0903  0.6533 -0.3153
 7714TIP3    H144557   4.547   6.514   1.230 -1.1207 -0.6492 -1.1251
 7714TIP3    H244558   4.510   6.655   1.273  1.3698  0.5122 -2.5470
 7715TIP3   OH244559   6.606   5.258  15.480 -0.0449  0.6075  0.4750
 7715TIP3    H144560   6.601   5.353  15.474  1.3023  0.7026  0.4923
 7715TIP3    H244561   6.689   5.241  15.524  0.2333 -0.5950 -0.4521
 7716TIP3   OH244562   0.805   4.434  15.319 -0.3968 -0.1765  0.3702
 7716TIP3    H144563   0.883   4.423  15.264 -1.0658 -3.3232 -0.1300
 7716TIP3    H244564   0.838   4.472  15.401  1.8774 -2.2662  0.5268
 7717TIP3   OH244565   1.211   3.771  14.544  0.0267 -0.1592  0.2517
 7717TIP3    H144566   1.242   3.704  14.606 -3.1910 -0.2658  1.9467
 7717TIP3    H244567   1.201   3.850  14.597  2.1014  1.2992 -1.3605
 7718TIP3   OH244568   0.259   0.899   1.149  0.1065 -1.0751  0.0180
 7718TIP3    H144569   0.322   0.970   1.137 -0.3300 -0.9275 -1.5265
 7718TIP3    H244570   0.218   0.917   1.234  2.7381 -1.6764  1.5232
 7719TIP3   OH244571   2.531   5.433   1.237  0.2136 -0.2354 -0.5928
 7719TIP3    H144572   2.482   5.359   1.272  0.6055 -0.3931 -0.3740
 7719TIP3    H244573   2.622   5.403   1.236  0.4852  0.5201  0.2443
 7720TIP3   OH244574   6.402   6.594  15.965 -0.2988  0.5735  0.2718
 7720TIP3    H144575   6.431   6.667  15.910 -0.1348  0.1006 -0.2705
 7720TIP3    H244576   6.405   6.517  15.908 -1.2750  0.2703  0.5988
 7721TIP3   OH244577   2.239   0.808  15.364 -0.3416 -0.2084  0.2497
 7721TIP3    H144578   2.170   0.770  15.418  0.5395 -1.4654  0.5280
 7721TIP3    H244579   2.321   0.779  15.405  0.3631 -1.2406 -1.7470
 7722TIP3   OH244580   0.035   5.278   0.459  0.3357  0.2557 -0.2570
 7722TIP3    H144581  -0.056   5.294   0.483 -0.0416 -1.4531 -0.4134
 7722TIP3    H244582   0.066   5.363   0.426 -0.9054  1.1058  0.6476
 7723TIP3   OH244583   3.549   3.616   4.131 -0.6604  0.5394 -0.7915
 7723TIP3    H144584   3.484   3.607   4.201  0.1884  0.1179 -0.0250
 7723TIP3    H244585   3.633   3.597   4.174 -0.1090  0.3103 -1.9194
 7724TIP3   OH244586   5.097   5.537   4.183  1.0623 -0.2897 -0.3361
 7724TIP3    H144587   5.079   5.628   4.159  1.6141 -0.7298 -2.6008
 7724TIP3    H244588   5.188   5.523   4.157  0.1111 -2.3381 -3.0380
 7725TIP3   OH244589   2.933   3.930  14.516 -0.3119 -0.2215 -0.5539
 7725TIP3    H144590   2.916   4.022  14.498  1.3562  0.5457  1.3951
 7725TIP3    H244591   2.902   3.917  14.606  1.0283 -1.0972 -0.1934
 7726TIP3   OH244592   4.270   6.290   3.795  0.2826 -0.1887  0.0174
 7726TIP3    H144593   4.243   6.381   3.783  1.3679  0.1493  0.0020
 7726TIP3    H244594   4.225   6.261   3.874 -0.2512  0.2794 -0.1083
 7727TIP3   OH244595   1.447   2.189  12.504  0.4500 -0.1068 -0.1424
 7727TIP3    H144596   1.384   2.218  12.569  0.7298 -1.9733  1.0188
 7727TIP3    H244597   1.523   2.247  12.517  0.8021 -0.9053  1.7668
 7728TIP3   OH244598   4.511   3.643  10.711  0.0708  1.3341  0.4309
 7728TIP3    H144599   4.424   3.666  10.678 -1.5607 -1.4071  2.4440
 7728TIP3    H244600   4.568   3.654  10.635 -2.3380  1.4794 -1.4998
 7729TIP3   OH244601   3.139   2.262  11.849 -0.2500  0.2204 -0.3664
 7729TIP3    H144602   3.114   2.251  11.757  1.2666 -1.9494 -0.5888
 7729TIP3    H244603   3.059   2.242  11.897 -1.1700  1.7526 -1.1620
 7730TIP3   OH244604   4.175   1.570  13.628  0.9706 -0.2129 -0.9357
 7730TIP3    H144605   4.228   1.640  13.591  1.5308 -1.1977 -2.0491
 7730TIP3    H244606   4.100   1.562  13.568  1.7617 -1.6587 -1.7761
 7731TIP3   OH244607   0.056   2.460  16.991  0.0027 -0.1398 -0.1731
 7731TIP3    H144608   0.081   2.393  16.928 -0.8709 -0.4344 -0.2158
 7731TIP3    H244609  -0.023   2.426  17.032  0.3686  0.2079  0.8407
 7732TIP3   OH244610   5.672   0.433  13.700  0.2806  0.2335  0.4109
 7732TIP3    H144611   5.634   0.426  13.612  2.5677 -0.0629 -0.6040
 7732TIP3    H244612   5.661   0.525  13.724 -2.1126 -0.0531  0.7084
 7733TIP3   OH244613   0.077   3.561  14.528 -0.1292 -0.0892 -0.0693
 7733TIP3    H144614   0.071   3.467  14.541  1.2282 -0.2123 -0.1649
 7733TIP3    H244615   0.060   3.574  14.434 -1.4630 -0.0960  0.1532
 7734TIP3   OH244616   2.729   6.225   1.814 -0.0752  0.2537 -0.0425
 7734TIP3    H144617   2.811   6.273   1.803 -0.9378  2.4013  1.9575
 7734TIP3    H244618   2.756   6.136   1.837  1.6919  0.8703  0.4159
 7735TIP3   OH244619   1.249   3.170   4.447  0.2456 -0.3451 -0.1559
 7735TIP3    H144620   1.192   3.104   4.486  0.7271 -0.4021  0.4708
 7735TIP3    H244621   1.257   3.237   4.515  1.8065 -0.8617  0.2074
 7736TIP3   OH244622   4.272   0.807   6.094 -0.1716 -0.5148 -0.4355
 7736TIP3    H144623   4.341   0.859   6.135  0.1426 -0.5410 -0.9255
 7736TIP3    H244624   4.276   0.723   6.138  1.1224 -1.0333 -1.4739
 7737TIP3   OH244625   6.681   4.181  11.881  0.4062  0.6873 -0.3482
 7737TIP3    H144626   6.715   4.231  11.955 -0.3159 -1.4984  1.5755
 7737TIP3    H244627   6.724   4.219  11.805  3.5976  1.0490  1.4554
 7738TIP3   OH244628   5.612   4.171  12.994 -0.4731 -0.2766  0.8318
 7738TIP3    H144629   5.657   4.198  13.074 -1.9008  1.3767  1.1336
 7738TIP3    H244630   5.519   4.182  13.014 -0.8227  2.6944 -1.8400
 7739TIP3   OH244631   1.840   0.797  12.928  0.4076 -0.2506 -0.0896
 7739TIP3    H144632   1.808   0.852  13.000  0.6089  0.2384 -0.3746
 7739TIP3    H244633   1.925   0.833  12.906  1.5170 -1.9756  1.1235
 7740TIP3   OH244634   1.618   5.875   3.198  0.4634  0.4272 -0.1422
 7740TIP3    H144635   1.661   5.790   3.201  1.1653  0.7910  0.3015
 7740TIP3    H244636   1.600   5.896   3.290 -0.8193  0.2124 -0.3212
 7741TIP3   OH244637   5.528   4.903  12.395  0.1724 -0.4949 -0.1434
 7741TIP3    H144638   5.461   4.903  12.463 -1.4018  1.6928 -1.5440
 7741TIP3    H244639   5.539   4.811  12.371 -0.6105 -1.1070  1.7121
 7742TIP3   OH244640   2.222   1.963   1.148  0.0418 -0.0572 -0.2321
 7742TIP3    H144641   2.299   1.929   1.195 -0.3922 -0.2034  0.3863
 7742TIP3    H244642   2.153   1.964   1.214  0.2066  2.7586  0.0092
 7743TIP3   OH244643   5.067   2.897   2.691 -0.8449 -0.4481  0.3138
 7743TIP3    H144644   4.991   2.877   2.636 -1.2510 -1.5473  1.2261
 7743TIP3    H244645   5.073   2.993   2.691 -0.1218 -0.4038 -2.5410
 7744TIP3   OH244646   4.380   4.703   1.462  0.1681  0.3210 -0.4350
 7744TIP3    H144647   4.337   4.631   1.416  1.3885 -0.5190 -0.2732
 7744TIP3    H244648   4.407   4.666   1.546 -0.4673  1.3646  0.2577
 7745TIP3   OH244649   5.316   4.979  15.427  0.2407  0.0805  0.1249
 7745TIP3    H144650   5.355   4.949  15.345  1.1697  0.7833  0.2920
 7745TIP3    H244651   5.388   5.019  15.475 -0.3182 -0.1968  1.2345
 7746TIP3   OH244652   2.605   2.585  11.393  0.0541  0.2844 -0.1929
 7746TIP3    H144653   2.597   2.531  11.472 -2.4648 -1.4029 -1.4422
 7746TIP3    H244654   2.686   2.556  11.352  0.4996 -0.0601  0.8897
 7747TIP3   OH244655   2.418   2.060  13.195 -0.3462  0.3813  0.5453
 7747TIP3    H144656   2.492   2.047  13.136 -0.1242  2.4692  0.2988
 7747TIP3    H244657   2.432   1.997  13.266  0.3255 -0.9297 -0.6981
 7748TIP3   OH244658   4.554   0.321  11.454  0.2218  0.3070 -0.0783
 7748TIP3    H144659   4.554   0.354  11.364  0.5402  1.2588  0.2624
 7748TIP3    H244660   4.467   0.281  11.464  0.7368 -1.2087 -1.2885
 7749TIP3   OH244661   1.368   1.241   6.117  0.4499  0.2147 -0.6533
 7749TIP3    H144662   1.434   1.175   6.139  0.2550 -0.2350 -1.3712
 7749TIP3    H244663   1.318   1.202   6.045  0.3696  1.1676 -1.1344
 7750TIP3   OH244664   1.130   6.535  16.696 -0.0544  0.4938 -0.5912
 7750TIP3    H144665   1.086   6.538  16.781  0.2117  0.2112 -0.4432
 7750TIP3    H244666   1.201   6.598  16.704  0.2242  0.1609 -0.4644
 7751TIP3   OH244667   6.265   0.880   1.918  0.2120 -1.0618  0.6624
 7751TIP3    H144668   6.232   0.940   1.985  0.6370 -1.6799  1.4470
 7751TIP3    H244669   6.189   0.861   1.863  0.1944  0.6461  0.0254
 7752TIP3   OH244670   1.415   6.055   1.909 -0.1439 -1.1391  0.2566
 7752TIP3    H144671   1.381   6.009   1.986  0.7428  0.7430  1.8793
 7752TIP3    H244672   1.340   6.062   1.850 -1.1633 -1.7073  1.4300
 7753TIP3   OH244673   3.471   3.462   2.061  0.4172  0.1412  0.1684
 7753TIP3    H144674   3.522   3.433   2.136 -0.7495  0.2298  1.0330
 7753TIP3    H244675   3.477   3.390   1.998 -1.5035 -1.5677  1.8138
 7754TIP3   OH244676   5.276   6.139   3.218  0.3820  0.2648  0.0601
 7754TIP3    H144677   5.287   6.192   3.297  0.3367 -0.4402  0.5550
 7754TIP3    H244678   5.364   6.128   3.184  0.7118 -1.2338  1.2470
 7755TIP3   OH244679   1.022   5.396   6.410  0.4620 -0.1963 -0.1697
 7755TIP3    H144680   1.067   5.477   6.383 -0.1487  1.0121  2.1406
 7755TIP3    H244681   0.930   5.422   6.420 -0.1431 -1.7366 -1.3468
 7756TIP3   OH244682   0.192   2.726   3.788  0.3408 -0.0429  0.0402
 7756TIP3    H144683   0.192   2.758   3.879  1.2642 -1.1424  0.4542
 7756TIP3    H244684   0.261   2.660   3.786 -0.2157 -0.6173 -1.2719
 7757TIP3   OH244685   6.743   0.284  11.070 -0.3308 -0.2015  0.2424
 7757TIP3    H144686   6.716   0.263  10.980  0.6586  0.3925 -0.2101
 7757TIP3    H244687   6.820   0.339  11.059  1.6301 -2.5352  1.4716
 7758TIP3   OH244688   0.696   3.909   0.967  0.0932  0.0278 -0.3426
 7758TIP3    H144689   0.619   3.880   1.018  1.5744  1.0310  2.6807
 7758TIP3    H244690   0.703   4.002   0.986  1.3691  0.1984 -1.5610
 7759TIP3   OH244691   2.852   5.386  10.604  0.8460 -0.5631  0.2328
 7759TIP3    H144692   2.944   5.409  10.589  0.9117 -1.0096 -0.0815
 7759TIP3    H244693   2.851   5.290  10.599  0.0778 -0.4974 -1.5293
 7760TIP3   OH244694   0.477   2.798   2.376  0.5686  0.0554  0.3247
 7760TIP3    H144695   0.481   2.747   2.295 -0.8547  1.3694 -0.6383
 7760TIP3    H244696   0.540   2.756   2.434 -0.4530 -2.7645 -0.4011
 7761TIP3   OH244697   1.541   5.454   4.661 -0.3960 -0.2134 -0.2209
 7761TIP3    H144698   1.545   5.535   4.713 -0.8224  0.4062 -1.1215
 7761TIP3    H244699   1.603   5.469   4.589 -2.1957  0.3413 -1.7495
 7762TIP3   OH244700   1.483   2.947  16.539 -0.2860  0.3187  0.1053
 7762TIP3    H144701   1.392   2.964  16.518 -0.3772 -0.2310  0.0532
 7762TIP3    H244702   1.500   3.000  16.617 -0.5077  0.8030 -0.1717
 7763TIP3   OH244703   0.172   4.744   4.780 -0.3003 -0.1031  0.5691
 7763TIP3    H144704   0.170   4.733   4.875 -1.4620 -1.8012  0.3991
 7763TIP3    H244705   0.091   4.790   4.759 -0.4390 -0.4405  0.3501
 7764TIP3   OH244706   1.089   5.760   5.106 -0.5879 -0.0949 -0.1571
 7764TIP3    H144707   1.034   5.690   5.141 -0.8294  0.2817  0.2210
 7764TIP3    H244708   1.130   5.721   5.029  0.3963 -1.1226  0.8495
 7765TIP3   OH244709   4.887   6.006  11.959  0.2105  0.3391  0.1492
 7765TIP3    H144710   4.821   6.018  12.027  2.1654  0.7844  2.1225
 7765TIP3    H244711   4.865   6.070  11.892  0.1728  2.4583  2.0577
 7766TIP3   OH244712   3.346   3.076  11.939  0.2765  0.3024 -0.3000
 7766TIP3    H144713   3.349   3.146  11.873 -0.6063 -0.2425 -0.9315
 7766TIP3    H244714   3.255   3.046  11.938  1.0062 -2.1269 -1.3989
 7767TIP3   OH244715   2.235   2.222  13.074 -0.0118  0.4316 -0.2232
 7767TIP3    H144716   2.283   2.304  13.078  0.1391  0.4335 -1.6686
 7767TIP3    H244717   2.300   2.155  13.097 -0.0862  0.6803  0.7553
 7768TIP3   OH244718   3.228   2.100  17.084  0.0033  0.5367  0.9170
 7768TIP3    H144719   3.235   2.095  17.179 -0.9500  0.1703  0.9773
 7768TIP3    H244720   3.141   2.065  17.064 -0.0292  1.1270 -0.0438
 7769TIP3   OH244721   3.181   0.645  17.170 -0.3771 -0.6342  0.2249
 7769TIP3    H144722   3.114   0.704  17.205  0.0783 -0.1864  0.3461
 7769TIP3    H244723   3.264   0.686  17.193 -0.0653 -0.6683 -0.8155
 7770TIP3   OH244724   1.325   0.979   1.524 -0.5166 -0.0133  0.1958
 7770TIP3    H144725   1.323   1.014   1.435 -0.3341 -0.7512 -0.1059
 7770TIP3    H244726   1.397   1.025   1.567 -0.0970 -0.2199 -0.2823
 7771TIP3   OH244727   0.532   2.469   4.603 -0.0873 -0.1299  0.7476
 7771TIP3    H144728   0.525   2.563   4.620 -1.0593 -0.2370  0.9767
 7771TIP3    H244729   0.459   2.450   4.544  0.1289 -0.7412  0.6681
 7772TIP3   OH244730   4.525   1.396   4.198 -0.1735 -0.1803  0.3817
 7772TIP3    H144731   4.580   1.384   4.121  0.2353 -0.2492  0.6785
 7772TIP3    H244732   4.458   1.328   4.192 -0.6475  0.3310 -0.3369
 7773TIP3   OH244733   4.023   4.592  15.575 -0.1554  0.0380 -0.2932
 7773TIP3    H144734   3.948   4.604  15.632  0.7936  0.8557  0.8261
 7773TIP3    H244735   3.985   4.573  15.489 -1.6255  0.3891  0.2520
 7774TIP3   OH244736   5.539   0.512  13.438  0.2840  0.2096  0.4794
 7774TIP3    H144737   5.447   0.496  13.421  0.8283 -3.5394  0.0445
 7774TIP3    H244738   5.583   0.485  13.357  1.7839  2.6675  0.3825
 7775TIP3   OH244739   1.694   0.715   3.034  0.4630  0.6826 -0.0020
 7775TIP3    H144740   1.722   0.659   2.962  0.0554 -0.5264  0.7535
 7775TIP3    H244741   1.738   0.680   3.111 -2.9780 -1.3587  1.2620
 7776TIP3   OH244742   3.098   0.747  15.300 -0.1619 -0.7714 -0.1035
 7776TIP3    H144743   3.005   0.748  15.276 -0.2023  0.0485  0.0521
 7776TIP3    H244744   3.144   0.739  15.216 -0.3304  1.0415 -0.4141
 7777TIP3   OH244745   4.888   4.872   2.225  0.1791  0.4694  0.2400
 7777TIP3    H144746   4.877   4.861   2.131  1.1184  1.6571 -0.0320
 7777TIP3    H244747   4.977   4.904   2.235  0.6904 -1.2901  1.6868
 7778TIP3   OH244748   5.185   0.005   3.023 -0.0490 -0.2923  0.2993
 7778TIP3    H144749   5.106  -0.049   3.020  0.2155 -0.7022  0.4869
 7778TIP3    H244750   5.190   0.034   3.114  1.6253 -2.7800  1.1328
 7779TIP3   OH244751   2.256   4.746  14.570  0.1647  0.3606 -0.2515
 7779TIP3    H144752   2.314   4.753  14.647  0.3686  1.2980 -0.4692
 7779TIP3    H244753   2.168   4.748  14.607  0.2657 -0.0972  0.0217
 7780TIP3   OH244754   1.059   1.373   3.802  0.1179 -0.4273 -0.2143
 7780TIP3    H144755   0.968   1.346   3.813  0.5258 -2.1792 -0.8975
 7780TIP3    H244756   1.075   1.365   3.708  0.4914  1.6355 -0.3874
 7781TIP3   OH244757   0.163   1.543   5.396  0.5048 -0.4905  0.1691
 7781TIP3    H144758   0.221   1.530   5.471  2.0986  1.0770 -0.7095
 7781TIP3    H244759   0.150   1.637   5.392  1.7913 -0.3521 -2.4324
 7782TIP3   OH244760   4.324   3.151  16.293  0.0522 -0.0704 -0.4177
 7782TIP3    H144761   4.231   3.142  16.315  0.3415 -1.5859  0.3532
 7782TIP3    H244762   4.354   3.225  16.347 -0.8080  0.8157 -1.1143
 7783TIP3   OH244763   2.770   6.784   5.506 -0.2968 -0.1937  0.7788
 7783TIP3    H144764   2.716   6.768   5.583 -0.1248 -0.4593  0.8468
 7783TIP3    H244765   2.850   6.823   5.541 -0.3442 -0.0279  0.7032
 7784TIP3   OH244766   1.781   0.815   1.580 -0.5298  0.4125 -0.4041
 7784TIP3    H144767   1.752   0.861   1.501  0.0723  0.4422 -0.6139
 7784TIP3    H244768   1.736   0.731   1.576 -2.1518  1.1936  0.3171
 7785TIP3   OH244769   5.960   5.471  15.925 -0.4749  0.3644 -0.1180
 7785TIP3    H144770   5.903   5.548  15.926 -0.9850 -0.0066  1.2037
 7785TIP3    H244771   5.982   5.459  15.833 -1.2468  1.4552 -0.4691
 7786TIP3   OH244772   0.685   6.302  13.822  0.0013  0.4963 -0.0252
 7786TIP3    H144773   0.678   6.289  13.916  0.5015  1.0137  0.0842
 7786TIP3    H244774   0.770   6.342  13.809  0.2176 -0.1662 -0.7664
 7787TIP3   OH244775   0.592   5.857   2.753  0.1457 -0.0117  0.0769
 7787TIP3    H144776   0.605   5.838   2.845  0.3440 -0.4685 -0.0450
 7787TIP3    H244777   0.505   5.825   2.733  0.2759 -0.3200 -0.0011
 7788TIP3   OH244778   4.576   0.947   0.883 -0.4462 -0.0020 -0.5448
 7788TIP3    H144779   4.527   0.999   0.819 -0.9478  3.3043  2.2463
 7788TIP3    H244780   4.509   0.896   0.929 -0.9341  1.9288  0.9959
 7789TIP3   OH244781   3.637   4.706   6.573  0.4108 -0.2672  0.0356
 7789TIP3    H144782   3.674   4.743   6.653 -0.9796 -1.0193  1.0734
 7789TIP3    H244783   3.712   4.692   6.516  1.3164  1.3146  0.7698
 7790TIP3   OH244784   4.163   0.679  11.903  0.1672  0.5054 -0.7911
 7790TIP3    H144785   4.207   0.603  11.867  0.1913 -0.3305  0.9242
 7790TIP3    H244786   4.233   0.732  11.941 -0.0950 -0.0493  0.5336
 7791TIP3   OH244787   1.012   2.378  15.877 -0.4559  0.4556 -0.2969
 7791TIP3    H144788   1.099   2.415  15.892 -0.0120 -0.6277 -0.1332
 7791TIP3    H244789   1.006   2.304  15.936  0.1636 -2.0832 -3.1798
 7792TIP3   OH244790   5.365   6.761   4.468 -0.4758  0.5281 -0.3623
 7792TIP3    H144791   5.429   6.761   4.397 -0.6164 -1.6299 -0.5413
 7792TIP3    H244792   5.381   6.680   4.515 -1.8515  0.8565  0.7371
 7793TIP3   OH244793   4.533   0.483   2.619  0.2810 -0.2075 -0.0379
 7793TIP3    H144794   4.439   0.495   2.627  0.4811  2.1165 -0.5478
 7793TIP3    H244795   4.558   0.432   2.697 -1.2348  0.0412  0.6320
 7794TIP3   OH244796   2.739   0.213  16.499 -0.6615  0.3749 -0.4759
 7794TIP3    H144797   2.825   0.172  16.505 -0.6703  0.0698 -2.0183
 7794TIP3    H244798   2.723   0.222  16.405 -1.3455  2.5030 -0.1992
 7795TIP3   OH244799   5.432   0.895  13.493  0.0284  0.0362  0.4285
 7795TIP3    H144800   5.365   0.962  13.484  0.3666  0.4027  0.5984
 7795TIP3    H244801   5.485   0.903  13.413  0.0237 -0.0820  0.4133
 7796TIP3   OH244802   0.866   5.814  15.791 -0.1294 -0.5014  0.0558
 7796TIP3    H144803   0.848   5.895  15.838 -1.7463  0.2145 -1.6751
 7796TIP3    H244804   0.959   5.796  15.808 -0.7785 -0.7982  4.1370
 7797TIP3   OH244805   6.258   1.135   5.604  0.2381  0.7497  0.4246
 7797TIP3    H144806   6.210   1.217   5.619  1.4237  1.7511 -0.8754
 7797TIP3    H244807   6.309   1.122   5.684 -0.7135  0.7344  1.0332
 7798TIP3   OH244808   6.612   1.533   4.507 -0.3402  0.4721 -0.3287
 7798TIP3    H144809   6.565   1.476   4.567  0.7333  0.4013  0.4901
 7798TIP3    H244810   6.545   1.588   4.468 -1.2963 -0.7743 -0.5092
 7799TIP3   OH244811   6.289   3.783  16.111 -0.2390 -0.2829 -0.4719
 7799TIP3    H144812   6.306   3.876  16.124 -0.9062 -0.2279  0.0574
 7799TIP3    H244813   6.354   3.755  16.046  0.9244  0.2311  0.4266
 7800TIP3   OH244814   4.354   2.804   2.044  0.2406  0.3212 -0.1439
 7800TIP3    H144815   4.310   2.720   2.048  0.8453 -0.0585 -1.1652
 7800TIP3    H244816   4.299   2.858   1.987  0.0236  0.5277  0.2507
 7801TIP3   OH244817   4.226   0.238   5.935 -0.6906 -0.0599 -0.3970
 7801TIP3    H144818   4.225   0.294   5.858 -1.3094  1.0781  0.4032
 7801TIP3    H244819   4.296   0.175   5.919  0.2885  1.1928 -1.1637
 7802TIP3   OH244820   5.050   3.574   0.185 -0.1379  0.5669 -0.2529
 7802TIP3    H144821   5.058   3.582   0.090 -0.8303  2.5586 -0.1938
 7802TIP3    H244822   5.092   3.653   0.219 -0.3052  0.1016  1.0835
 7803TIP3   OH244823   0.959   0.373  15.013  0.1209 -0.4919  0.9523
 7803TIP3    H144824   0.890   0.345  14.953 -0.3137  3.6973 -0.8942
 7803TIP3    H244825   1.003   0.445  14.967  4.2444 -1.3275  3.0307
 7804TIP3   OH244826   5.708   6.479  14.370 -0.0676 -0.5099  0.5590
 7804TIP3    H144827   5.628   6.432  14.346  0.4323 -0.6308 -0.9797
 7804TIP3    H244828   5.717   6.548  14.304  1.6825 -1.2129 -0.0223
 7805TIP3   OH244829   6.014   0.939  16.045 -0.1434  0.0291 -0.3887
 7805TIP3    H144830   6.060   0.936  15.961 -0.0175  0.3832 -0.3344
 7805TIP3    H244831   5.928   0.974  16.025 -0.6565 -1.3079 -0.6059
 7806TIP3   OH244832   2.666   2.421   5.637 -0.2317  0.1523 -0.3610
 7806TIP3    H144833   2.700   2.389   5.721 -0.5937 -0.7196 -0.5370
 7806TIP3    H244834   2.686   2.515   5.638  1.7102 -0.2190 -0.2261
 7807TIP3   OH244835   3.551   1.608   1.439  0.8328  0.4558 -0.4540
 7807TIP3    H144836   3.537   1.577   1.350 -3.3832  0.2384  0.0804
 7807TIP3    H244837   3.519   1.698   1.439  0.3004  0.3033  0.9100
 7808TIP3   OH244838   5.767   2.019   0.334 -0.3697  0.0563  0.1172
 7808TIP3    H144839   5.783   1.942   0.388 -0.5358  0.8514  1.3319
 7808TIP3    H244840   5.681   2.050   0.362  0.0157  1.1095  0.1710
 7809TIP3   OH244841   6.038   0.542   4.613  0.1762 -0.2095 -0.1027
 7809TIP3    H144842   6.020   0.486   4.688  2.4661 -1.8339 -0.6282
 7809TIP3    H244843   5.958   0.539   4.561 -0.8554 -0.4122  1.4415
 7810TIP3   OH244844   5.950   1.828  16.818 -0.2383  0.4893  0.6517
 7810TIP3    H144845   5.874   1.861  16.770 -0.7287 -0.6373  0.6132
 7810TIP3    H244846   6.012   1.900  16.816 -1.2043  1.3513  0.4602
 7811TIP3   OH244847   5.216   4.580   4.709  0.4782  0.2884 -0.3956
 7811TIP3    H144848   5.311   4.587   4.701  0.4403 -0.2833 -1.6950
 7811TIP3    H244849   5.182   4.627   4.633 -0.3472  1.5685  0.7165
 7812TIP3   OH244850   0.480   2.763  12.464  0.3505  0.3075  0.6922
 7812TIP3    H144851   0.478   2.818  12.385  2.3778 -2.0028 -1.1376
 7812TIP3    H244852   0.565   2.781  12.503  2.3284 -3.2578 -1.4810
 7813TIP3   OH244853   0.802   5.250   1.704  0.3910  0.1123 -0.1647
 7813TIP3    H144854   0.722   5.298   1.680  0.3176  0.3982  0.6185
 7813TIP3    H244855   0.808   5.180   1.639 -0.5297  0.0557 -0.2006
 7814TIP3   OH244856   3.832   2.133  14.817  0.0923  0.5973 -0.2847
 7814TIP3    H144857   3.771   2.074  14.861  0.8409 -1.4572 -1.8257
 7814TIP3    H244858   3.864   2.191  14.886 -0.1958 -1.2211  1.4715
 7815TIP3   OH244859   1.910   0.526   0.662 -0.3949  0.0769  0.3596
 7815TIP3    H144860   1.986   0.580   0.683 -1.4064  1.0804  1.6139
 7815TIP3    H244861   1.874   0.566   0.582  0.3257 -0.3474 -0.1863
 7816TIP3   OH244862   3.222   0.257  15.698  0.1325 -0.5820 -0.0820
 7816TIP3    H144863   3.233   0.320  15.627  0.1995  0.1009  0.5216
 7816TIP3    H244864   3.233   0.171  15.657  2.4783 -0.1332 -0.5099
 7817TIP3   OH244865   5.273   2.489   2.278 -0.0246  0.1752  0.3678
 7817TIP3    H144866   5.304   2.399   2.272 -1.0249 -0.1070 -0.8012
 7817TIP3    H244867   5.178   2.482   2.280 -0.1296  1.2127 -0.1877
 7818TIP3   OH244868   5.569   4.138   2.367  0.2206  0.5471 -0.3630
 7818TIP3    H144869   5.517   4.149   2.287 -0.9543 -0.4817  0.2229
 7818TIP3    H244870   5.629   4.213   2.367 -0.4761  1.1421 -1.6557
 7819TIP3   OH244871   3.736   1.327   4.644 -0.0042 -0.1752  0.1647
 7819TIP3    H144872   3.739   1.285   4.559  1.2194  0.3471 -0.0748
 7819TIP3    H244873   3.662   1.287   4.689 -2.4121  1.4010 -2.1123
 7820TIP3   OH244874   4.222   1.304   1.213  0.6739 -0.1458  0.0626
 7820TIP3    H144875   4.186   1.217   1.199 -0.4253  0.5435 -1.7962
 7820TIP3    H244876   4.229   1.313   1.308 -0.8735 -1.5982  0.3510
 7821TIP3   OH244877   3.561   4.474   3.449  0.7387  0.0079 -0.0405
 7821TIP3    H144878   3.530   4.384   3.436 -0.3134  0.1641  1.1676
 7821TIP3    H244879   3.492   4.528   3.412  0.7882  0.3282  0.3327
 7822TIP3   OH244880   5.209   3.721  13.935 -0.0884  0.1778  0.5698
 7822TIP3    H144881   5.212   3.653  14.002  0.4068 -0.3373  0.0333
 7822TIP3    H244882   5.279   3.698  13.874 -0.4917  0.6716 -0.0955
 7823TIP3   OH244883   2.627   0.043  16.675 -0.4437  0.3726 -0.3755
 7823TIP3    H144884   2.670   0.079  16.597  0.7863 -0.6091 -0.1710
 7823TIP3    H244885   2.588  -0.038  16.645  0.7970 -0.4686  0.1947
 7824TIP3   OH244886   3.884   2.483  14.644  0.2923 -1.0848 -0.6179
 7824TIP3    H144887   3.876   2.578  14.637  0.4720 -1.0303 -0.1563
 7824TIP3    H244888   3.796   2.453  14.668 -0.1143 -1.1894 -2.1765
 7825TIP3   OH244889   6.417   3.852   6.013  0.1055  0.0984  0.3347
 7825TIP3    H144890   6.330   3.870   6.047  0.5944  1.2902  1.0448
 7825TIP3    H244891   6.465   3.817   6.088  0.1330 -0.9411 -0.1574
 7826TIP3   OH244892   1.471   3.670  15.033  0.2310 -0.1393 -0.5562
 7826TIP3    H144893   1.465   3.737  14.966 -0.8037  0.0251 -0.3230
 7826TIP3    H244894   1.389   3.620  15.025  1.5905 -2.3509 -1.7214
 7827TIP3   OH244895   4.076   3.647  10.382 -0.3119  0.0662 -0.0188
 7827TIP3    H144896   3.982   3.640  10.399 -0.2340  0.1281  0.4304
 7827TIP3    H244897   4.103   3.558  10.359 -0.4942  0.0633 -0.2256
 7828TIP3   OH244898   3.732   2.961  15.188  0.3969  0.7213  0.6245
 7828TIP3    H144899   3.722   2.917  15.104  1.9130  1.3132  0.1111
 7828TIP3    H244900   3.643   2.987  15.212 -0.3867 -1.5630  0.3994
 7829TIP3   OH244901   3.104   2.528   5.328 -0.0341 -0.1584  0.1824
 7829TIP3    H144902   3.042   2.522   5.256 -0.6970  1.3082  0.5958
 7829TIP3    H244903   3.190   2.518   5.287 -0.4399 -0.1093 -0.6974
 7830TIP3   OH244904   5.991   0.229  11.471  0.3790 -0.9648  0.1878
 7830TIP3    H144905   6.033   0.313  11.490 -0.5404 -0.3387 -0.4613
 7830TIP3    H244906   6.059   0.177  11.427  1.3747 -1.0803  1.7945
 7831TIP3   OH244907   2.100   3.582  12.781 -0.0145  0.3346  0.5581
 7831TIP3    H144908   2.072   3.672  12.799 -0.7744  0.2803 -0.2622
 7831TIP3    H244909   2.158   3.560  12.853  0.3030  1.5362  0.6939
 7832TIP3   OH244910   4.334   5.255   5.795 -0.1789 -0.6169 -0.3570
 7832TIP3    H144911   4.278   5.307   5.738  0.6893  1.4004  0.5359
 7832TIP3    H244912   4.299   5.269   5.882  1.3851  0.3454  0.1672
 7833TIP3   OH244913   3.773   2.074   0.733  0.1614 -0.0616 -0.4093
 7833TIP3    H144914   3.712   2.000   0.733  1.7781 -1.4731  0.1687
 7833TIP3    H244915   3.719   2.150   0.753 -1.4104 -1.2525  0.0532
 7834TIP3   OH244916   6.025   1.225  13.871 -0.3524  0.5365  0.3254
 7834TIP3    H144917   5.941   1.258  13.902 -0.0403  1.4083  0.2852
 7834TIP3    H244918   6.021   1.234  13.776 -0.3905  0.1268  0.2856
 7835TIP3   OH244919   3.126   5.157  14.573 -0.0410  0.4704 -0.0485
 7835TIP3    H144920   3.182   5.091  14.615 -1.4606 -1.0158 -0.3877
 7835TIP3    H244921   3.037   5.131  14.596 -0.6879  1.7467 -0.9916
 7836TIP3   OH244922   0.220   2.877  14.065  0.3262 -0.9325  0.1793
 7836TIP3    H144923   0.221   2.968  14.036  0.4830 -1.4441 -1.4711
 7836TIP3    H244924   0.194   2.827  13.988  0.2276 -2.2945  1.0694
 7837TIP3   OH244925   5.082   5.991   5.969  0.1676 -0.0433  0.2702
 7837TIP3    H144926   5.029   6.028   6.039  0.3053  0.7322 -0.0297
 7837TIP3    H244927   5.047   5.903   5.956  0.0776 -0.1573  1.2372
 7838TIP3   OH244928   5.429   4.483  13.527 -0.3928 -0.1844  0.4959
 7838TIP3    H144929   5.515   4.485  13.568  0.4259 -2.3711 -0.9273
 7838TIP3    H244930   5.406   4.575  13.514  1.7660  0.4517  0.8275
 7839TIP3   OH244931   6.233   6.101  16.173 -0.7452  0.2294 -0.0403
 7839TIP3    H144932   6.283   6.058  16.243  0.0775 -0.1513 -0.8381
 7839TIP3    H244933   6.227   6.192  16.201  0.5463  0.3169  0.0161
 7840TIP3   OH244934   4.627   1.366  13.504 -0.1865  0.2307 -0.1497
 7840TIP3    H144935   4.556   1.308  13.533 -0.3101  0.7192  0.5476
 7840TIP3    H244936   4.593   1.407  13.424 -1.5746  2.0485  1.2883
 7841TIP3   OH244937   0.638   3.664  11.087 -0.8925  0.3570  0.0306
 7841TIP3    H144938   0.594   3.646  11.170 -1.1145  0.7028 -0.0101
 7841TIP3    H244939   0.693   3.741  11.106  1.0431 -1.0803  0.5661
 7842TIP3   OH244940   4.808   2.475  15.028 -0.3000  0.2568  0.8237
 7842TIP3    H144941   4.730   2.528  15.012  1.0026  1.5989 -1.6399
 7842TIP3    H244942   4.874   2.511  14.969  2.0060 -1.2772  2.3016
 7843TIP3   OH244943   6.656   1.420  12.587 -0.0073  0.1564  0.2798
 7843TIP3    H144944   6.676   1.360  12.515  0.2502 -1.3585  1.5521
 7843TIP3    H244945   6.561   1.431  12.584  0.0079  0.1440 -0.3096
 7844TIP3   OH244946   4.074   4.387  16.822 -0.7584  0.5189 -0.2558
 7844TIP3    H144947   4.067   4.457  16.757 -0.3720  1.1203  0.3352
 7844TIP3    H244948   4.168   4.380  16.840 -0.5409 -1.5485 -1.7748
 7845TIP3   OH244949   4.042   2.923   4.487 -0.4115 -0.3998 -0.1098
 7845TIP3    H144950   4.012   3.000   4.438 -1.7222 -0.9516 -0.2075
 7845TIP3    H244951   4.037   2.851   4.425 -0.3920 -0.7921  0.3351
 7846TIP3   OH244952   2.734   3.911   5.555  0.0959  0.7901 -0.3133
 7846TIP3    H144953   2.823   3.882   5.540 -0.5852 -1.2074 -0.8021
 7846TIP3    H244954   2.730   3.930   5.649  0.7703 -0.0702 -0.1104
 7847TIP3   OH244955   5.203   2.888   2.252 -0.1507  0.0939 -0.1502
 7847TIP3    H144956   5.234   2.885   2.342  1.1162  1.2735 -0.5108
 7847TIP3    H244957   5.215   2.979   2.225 -0.9145 -0.1398 -1.3760
 7848TIP3   OH244958   4.636   4.782   2.748  0.0171 -0.5124  0.3695
 7848TIP3    H144959   4.690   4.833   2.809 -2.0647  0.1689  1.7568
 7848TIP3    H244960   4.669   4.805   2.661 -0.6693  3.1136  0.9188
 7849TIP3   OH244961   2.340   6.013  14.947 -0.2547 -0.2993  0.3654
 7849TIP3    H144962   2.298   6.089  14.907 -1.7703 -1.1511  0.2615
 7849TIP3    H244963   2.386   5.971  14.875  1.2385  0.8913  0.5710
 7850TIP3   OH244964   3.398   1.445  16.544 -0.1097  0.3300  0.0212
 7850TIP3    H144965   3.435   1.363  16.511 -2.4334 -0.9765  0.4128
 7850TIP3    H244966   3.414   1.509  16.475  1.0313 -0.6470 -0.6577
 7851TIP3   OH244967   5.804   6.417   4.513  0.7269 -0.5091 -0.3312
 7851TIP3    H144968   5.799   6.493   4.570 -2.4812 -0.7042 -0.1841
 7851TIP3    H244969   5.895   6.387   4.520  2.2581  3.4475 -0.6998
 7852TIP3   OH244970   3.936   2.317   1.764 -0.0407 -0.0732 -0.5920
 7852TIP3    H144971   3.940   2.233   1.810 -1.5348 -0.3607 -0.9292
 7852TIP3    H244972   3.898   2.295   1.679 -1.1589  1.0581 -0.3988
 7853TIP3   OH244973   6.535   0.180  15.656  0.0185 -0.1892  0.2877
 7853TIP3    H144974   6.481   0.102  15.643 -0.6113  0.5827 -2.3544
 7853TIP3    H244975   6.605   0.151  15.715  0.3129 -3.0457 -1.2769
 7854TIP3   OH244976   2.936   5.405   4.391  0.3444 -0.0052  0.5081
 7854TIP3    H144977   2.872   5.435   4.326 -1.4694 -2.6217  0.9390
 7854TIP3    H244978   2.915   5.455   4.470  0.3745  0.8082  0.0129
 7855TIP3   OH244979   5.159   0.781   5.505  0.2806 -0.2564  0.3784
 7855TIP3    H144980   5.198   0.694   5.509 -0.3836 -0.5710  0.0592
 7855TIP3    H244981   5.159   0.812   5.595  1.1260 -0.3087  0.4109
 7856TIP3   OH244982   1.489   5.308   4.882  0.1306  0.0608  0.1472
 7856TIP3    H144983   1.550   5.310   4.956 -0.3420  0.6565  0.5350
 7856TIP3    H244984   1.521   5.375   4.822 -0.8754  1.3444  0.9771
 7857TIP3   OH244985   1.728   0.916   0.002  0.4137  0.8242  0.2005
 7857TIP3    H144986   1.793   0.855   0.037  0.1430  0.8195  0.7117
 7857TIP3    H244987   1.679   0.865  -0.062  0.8736  0.8126 -0.1497
 7858TIP3   OH244988   3.713   3.405   5.852  0.3484 -0.2844  0.3088
 7858TIP3    H144989   3.659   3.411   5.930 -0.0947 -1.0355  0.0765
 7858TIP3    H244990   3.650   3.401   5.779  0.7650  1.2828 -0.1713
 7859TIP3   OH244991   1.941   0.865   2.889  0.5490 -0.5266 -0.1000
 7859TIP3    H144992   1.871   0.818   2.933  0.0403  1.2755  1.1226
 7859TIP3    H244993   2.010   0.800   2.877 -0.8223 -2.0310 -0.2288
 7860TIP3   OH244994   5.092   5.787  12.050 -0.1614  0.8796  0.4243
 7860TIP3    H144995   5.163   5.781  11.987  0.7138  1.4987  1.3074
 7860TIP3    H244996   5.032   5.852  12.014 -0.9620 -0.5598 -0.9384
 7861TIP3   OH244997   1.328   6.014   0.857 -0.1995  0.1636 -0.3467
 7861TIP3    H144998   1.416   6.035   0.889  0.0267  1.1667 -1.5665
 7861TIP3    H244999   1.292   5.955   0.924  1.7156 -0.9975 -0.2600
 7862TIP3   OH245000   2.184   4.867   1.041 -0.1884 -0.4800 -0.1779
 7862TIP3    H145001   2.258   4.807   1.046  0.2905  0.0402 -0.8123
 7862TIP3    H245002   2.203   4.922   0.965 -0.5183  0.5941  0.4988
 7863TIP3   OH245003   5.876   0.266  15.130 -0.5653 -0.5251 -0.0686
 7863TIP3    H145004   5.953   0.303  15.174 -1.5248  2.3030 -0.5577
 7863TIP3    H245005   5.846   0.196  15.188  1.9338 -1.2497  0.4645
 7864TIP3   OH245006   2.678   3.224   2.676 -0.2786 -0.1005  0.6692
 7864TIP3    H145007   2.642   3.194   2.759  0.7334  0.3222  1.2862
 7864TIP3    H245008   2.750   3.164   2.658 -1.0930 -0.7858 -0.4181
 7865TIP3   OH245009   5.291   5.171  14.511  0.5328  0.3025  0.3220
 7865TIP3    H145010   5.327   5.189  14.424 -1.7221 -0.8482 -0.9562
 7865TIP3    H245011   5.310   5.250  14.562  2.2331  0.8593 -1.0925
 7866TIP3   OH245012   0.181   1.225  11.101  0.2822 -0.0840  0.3371
 7866TIP3    H145013   0.185   1.141  11.055 -0.4885 -1.4690  2.6164
 7866TIP3    H245014   0.262   1.228  11.152 -0.8738 -0.8135  2.3442
 7867TIP3   OH245015   5.722   2.583  12.070 -0.5704 -0.2513 -0.3470
 7867TIP3    H145016   5.735   2.546  11.982  1.0063  0.1522 -0.3162
 7867TIP3    H245017   5.762   2.518  12.129 -1.8759 -0.6621  0.1246
 7868TIP3   OH245018   4.294   2.720   4.366  0.5885 -0.2163  0.1413
 7868TIP3    H145019   4.366   2.662   4.341  1.5891  1.1615 -0.3064
 7868TIP3    H245020   4.218   2.662   4.375  1.0684 -1.3570 -2.2561
 7869TIP3   OH245021   3.467   0.808   0.716 -0.1533 -0.1231  0.0992
 7869TIP3    H145022   3.392   0.751   0.697 -1.1158  0.8692  0.7824
 7869TIP3    H245023   3.519   0.759   0.779  1.5187 -2.1861 -2.6671
 7870TIP3   OH245024   3.611   2.270   0.885  0.3479 -0.2931  0.0214
 7870TIP3    H145025   3.583   2.238   0.971 -1.5406 -0.4020 -0.5833
 7870TIP3    H245026   3.667   2.345   0.904  1.2093 -1.2286  1.3633
 7871TIP3   OH245027   0.668   1.759  15.950 -0.0620  0.8313 -0.3231
 7871TIP3    H145028   0.686   1.853  15.945 -0.6416  0.9086 -1.2675
 7871TIP3    H245029   0.619   1.740  15.870  1.6622 -0.6375 -1.1064
 7872TIP3   OH245030   1.596   6.000   4.688 -0.1540  0.1463  0.6590
 7872TIP3    H145031   1.550   5.930   4.643  1.2572  0.2408 -1.0409
 7872TIP3    H245032   1.671   5.957   4.730  1.2103  0.6451 -1.1005
 7873TIP3   OH245033   4.339   6.078   4.605  0.0662  0.1562  0.1194
 7873TIP3    H145034   4.294   6.065   4.688  1.5168  0.6018  1.0174
 7873TIP3    H245035   4.301   6.013   4.546  0.3018 -1.4488  1.6774
 7874TIP3   OH245036   1.644   5.561   5.381  0.2145 -0.6286  0.2525
 7874TIP3    H145037   1.635   5.536   5.473 -0.8193 -2.8791 -0.4152
 7874TIP3    H245038   1.562   5.535   5.340  1.6876 -2.3135 -1.8516
 7875TIP3   OH245039   2.439   4.367   3.585 -0.1326  0.0426  0.1389
 7875TIP3    H145040   2.506   4.434   3.573 -1.7381  1.6878 -0.0216
 7875TIP3    H245041   2.461   4.327   3.669  0.7715  0.8854  0.3259
 7876TIP3   OH245042   6.118   3.083   5.643 -0.8421 -0.0118 -0.2942
 7876TIP3    H145043   6.181   3.018   5.611  0.5611  0.4107  1.4394
 7876TIP3    H245044   6.147   3.165   5.605 -1.2253 -0.0424 -0.6519
 7877TIP3   OH245045   3.067   1.305  12.489 -0.8548 -0.3063 -0.3103
 7877TIP3    H145046   2.990   1.332  12.439  1.1100  3.7784 -1.5838
 7877TIP3    H245047   3.141   1.321  12.430  1.1914 -1.9773  1.6008
 7878TIP3   OH245048   6.468   2.420  12.103 -0.1701  0.5893 -0.1126
 7878TIP3    H145049   6.561   2.425  12.084 -0.0723  2.1669  0.6172
 7878TIP3    H245050   6.462   2.370  12.184  0.1617  1.4106  0.4363
 7879TIP3   OH245051   0.670   1.364   4.854  0.1551  0.3928  0.0549
 7879TIP3    H145052   0.693   1.441   4.802 -0.0745  1.6686  1.7657
 7879TIP3    H245053   0.577   1.374   4.871  0.3876  0.4533  1.3912
 7880TIP3   OH245054   0.354   2.916  12.227 -0.5212  0.3453 -0.1703
 7880TIP3    H145055   0.400   2.954  12.152  2.9135 -2.0572  0.4861
 7880TIP3    H245056   0.303   2.844  12.189 -0.6652  0.5887 -0.4490
 7881TIP3   OH245057   6.724   3.373  14.853 -0.5868 -0.3174 -0.3844
 7881TIP3    H145058   6.698   3.462  14.830 -2.1346 -0.6612 -0.0456
 7881TIP3    H245059   6.739   3.376  14.948  1.6792  0.1053 -0.7020
 7882TIP3   OH245060   6.108   0.480  11.435  0.2317  0.2138  0.0425
 7882TIP3    H145061   6.188   0.475  11.488  0.0131  0.7294  0.4210
 7882TIP3    H245062   6.070   0.565  11.456 -0.0177  0.3002 -0.7182
 7883TIP3   OH245063   5.118   2.944   1.305  0.2922  0.0832 -0.2343
 7883TIP3    H145064   5.204   2.908   1.327  0.3829  0.1892 -0.4224
 7883TIP3    H245065   5.078   2.877   1.249 -0.8154 -1.2523  1.9680
 7884TIP3   OH245066   0.959   2.785   5.681  0.0570  0.2286 -0.0266
 7884TIP3    H145067   0.932   2.724   5.750 -0.1717  0.2440 -0.1008
 7884TIP3    H245068   0.995   2.860   5.728 -1.3442  0.8311  0.1262
 7885TIP3   OH245069   4.455   1.634  15.485  0.0504 -0.7240 -0.5794
 7885TIP3    H145070   4.511   1.670  15.416  1.2767 -0.2589  0.6098
 7885TIP3    H245071   4.420   1.553  15.448 -0.1593  0.0272 -2.1144
 7886TIP3   OH245072   0.836   3.767  16.905 -1.1360  0.0042 -0.0917
 7886TIP3    H145073   0.812   3.860  16.912  1.0929  0.7891 -1.6801
 7886TIP3    H245074   0.912   3.757  16.961 -0.3327 -0.4328 -1.2250
 7887TIP3   OH245075   3.211   6.164   5.831 -0.0457 -0.0184  0.0309
 7887TIP3    H145076   3.156   6.213   5.892 -0.0692  0.2616 -0.2118
 7887TIP3    H245077   3.254   6.231   5.779 -0.0505 -0.2558 -0.2820
 7888TIP3   OH245078   4.601   4.556  13.780 -0.0068  0.2892  0.1464
 7888TIP3    H145079   4.545   4.600  13.844  0.8810  0.4399  0.8333
 7888TIP3    H245080   4.641   4.484  13.829  0.9673  0.6297 -0.1275
 7889TIP3   OH245081   1.994   2.302   1.539 -0.3850  0.2725 -0.1483
 7889TIP3    H145082   1.918   2.265   1.494 -0.7472  0.4539  0.3039
 7889TIP3    H245083   2.048   2.226   1.560  0.2122  0.2517 -1.6287
 7890TIP3   OH245084   4.922   1.306   0.462 -0.2252 -0.3017  0.5320
 7890TIP3    H145085   4.913   1.339   0.373  1.1359 -1.8817 -0.2360
 7890TIP3    H245086   5.012   1.328   0.487 -0.2571 -0.7960  1.1201
 7891TIP3   OH245087   2.405   4.928  14.385 -0.5097  0.1438 -0.9527
 7891TIP3    H145088   2.386   5.021  14.374  0.0223  0.1762 -1.7217
 7891TIP3    H245089   2.322   4.888  14.410 -0.3542  1.1188  1.4541
 7892TIP3   OH245090   0.671   4.780  14.150 -0.2030  0.4862  0.1375
 7892TIP3    H145091   0.587   4.802  14.109 -0.4875 -0.5314  0.1488
 7892TIP3    H245092   0.724   4.747  14.078 -0.1038  0.3417  0.2766
 7893TIP3   OH245093   1.573   3.611  11.039 -0.2884  0.0428  0.0008
 7893TIP3    H145094   1.507   3.675  11.067 -1.1820 -0.1433 -1.5675
 7893TIP3    H245095   1.597   3.639  10.951  0.9593 -0.5273  0.1430
 7894TIP3   OH245096   5.017   0.981  13.358 -0.7037  0.0057 -0.1182
 7894TIP3    H145097   5.004   0.898  13.312  2.3963 -0.0154 -1.2382
 7894TIP3    H245098   5.018   1.047  13.288  2.2586  0.2071 -0.0231
 7895TIP3   OH245099   6.416   1.131   4.212 -0.2883  0.0203  0.2771
 7895TIP3    H145100   6.383   1.215   4.181  2.5715  0.7162 -1.2976
 7895TIP3    H245101   6.476   1.154   4.283  1.4171 -0.4710 -0.9285
 7896TIP3   OH245102   6.499   6.607   4.290 -0.1125  0.4584  0.0998
 7896TIP3    H145103   6.530   6.689   4.328 -0.5867 -0.0322  1.6180
 7896TIP3    H245104   6.414   6.592   4.331 -0.5227 -0.2590 -0.9636
 7897TIP3   OH245105   5.078   0.363   5.389  0.6578 -0.1192 -0.5239
 7897TIP3    H145106   5.049   0.434   5.332  1.3890 -1.3724 -2.5769
 7897TIP3    H245107   5.010   0.296   5.379  0.8272 -0.3833  0.0669
 7898TIP3   OH245108   6.495   3.658  11.336 -0.1574 -0.1514 -0.1846
 7898TIP3    H145109   6.579   3.697  11.360 -0.1197  1.3457 -2.5329
 7898TIP3    H245110   6.472   3.698  11.252 -1.0507 -3.7969 -1.8913
 7899TIP3   OH245111   1.603   1.951   0.951 -0.0403  0.3659 -0.7548
 7899TIP3    H145112   1.685   1.999   0.950 -0.1359  0.6639  1.0498
 7899TIP3    H245113   1.621   1.869   0.905  0.6621  1.3047 -2.1808
 7900TIP3   OH245114   1.060   4.600  15.919  0.3806  0.0345  0.2155
 7900TIP3    H145115   1.060   4.579  15.825  1.3560 -0.3218  0.2789
 7900TIP3    H245116   0.975   4.639  15.935  0.3915  0.5659 -0.9325
 7901TIP3   OH245117   2.071   5.325   5.992 -0.1893 -0.3695 -0.2039
 7901TIP3    H145118   2.056   5.346   5.900  1.8088  0.1647 -0.4430
 7901TIP3    H245119   1.999   5.267   6.015 -1.5543  0.6401 -1.6823
 7902TIP3   OH245120   4.624   4.071   2.395 -0.0192  0.3047 -0.0274
 7902TIP3    H145121   4.615   3.976   2.402  0.2761  0.2450 -0.4545
 7902TIP3    H245122   4.689   4.085   2.326 -2.3902  0.8623 -2.3144
 7903TIP3   OH245123   5.490   1.020  16.969  0.3655  0.4558  0.0442
 7903TIP3    H145124   5.491   0.979  16.882 -0.7770  1.7259 -0.5975
 7903TIP3    H245125   5.420   0.974  17.016  0.1157  0.6252 -0.1562
 7904TIP3   OH245126   1.748   4.753  13.820 -0.7279 -0.4938 -0.2678
 7904TIP3    H145127   1.782   4.826  13.873 -0.2659  0.3647 -1.6945
 7904TIP3    H245128   1.789   4.675  13.857  0.8795  0.2605 -0.3828
 7905TIP3   OH245129   2.793   0.296   2.183  0.0487 -0.1458 -0.7013
 7905TIP3    H145130   2.851   0.338   2.120  0.7384  0.8644  0.5714
 7905TIP3    H245131   2.840   0.299   2.266 -0.5186 -2.1095 -0.2495
 7906TIP3   OH245132   1.531   1.142   5.693  0.7428 -0.2980  0.5424
 7906TIP3    H145133   1.573   1.182   5.769 -0.1260  0.3508  0.6974
 7906TIP3    H245134   1.592   1.157   5.621  0.5869  1.0118  0.6686
 7907TIP3   OH245135   3.977   5.280  14.364  0.0237  0.2929  0.5415
 7907TIP3    H145136   4.070   5.303  14.372  0.3030 -0.9024  0.9873
 7907TIP3    H245137   3.960   5.280  14.270 -0.3006  3.2842  0.4891
 7908TIP3   OH245138   3.137   2.666   4.082 -0.2302  0.7023  0.3291
 7908TIP3    H145139   3.142   2.573   4.104  0.0103  0.5098 -0.5220
 7908TIP3    H245140   3.222   2.687   4.043 -1.7826  0.0651 -3.9722
 7909TIP3   OH245141   5.046   1.716  13.857  0.1697  0.4988  0.1134
 7909TIP3    H145142   5.041   1.787  13.792 -0.4702 -0.1368 -0.5568
 7909TIP3    H245143   5.057   1.637  13.805  0.7461  0.0830  0.8521
 7910TIP3   OH245144   0.757   4.386   3.995  0.1406  0.4399  0.2125
 7910TIP3    H145145   0.794   4.474   4.004 -0.0313  0.5329 -0.0004
 7910TIP3    H245146   0.814   4.342   3.932  0.2610  0.3794  0.3631
 7911TIP3   OH245147   2.046   0.208  15.709 -0.1725 -0.1582 -0.2340
 7911TIP3    H145148   1.999   0.288  15.733  0.0536 -0.5738  1.7626
 7911TIP3    H245149   2.120   0.205  15.770  1.0639 -0.8138 -1.6834
 7912TIP3   OH245150   1.374   0.566   5.046  0.3532 -0.2901  0.1756
 7912TIP3    H145151   1.359   0.472   5.056  0.7212 -0.2072  1.8263
 7912TIP3    H245152   1.292   0.599   5.010  0.1876 -1.2251 -0.3411
 7913TIP3   OH245153   6.278   5.755  16.292  0.1916 -0.0165  0.0884
 7913TIP3    H145154   6.317   5.781  16.208 -0.6213 -0.3103 -0.4000
 7913TIP3    H245155   6.346   5.771  16.356  1.1802 -0.6817 -0.7562
 7914TIP3   OH245156   6.529   3.278  11.567 -0.2565  0.6237 -0.2373
 7914TIP3    H145157   6.570   3.364  11.565 -0.4835  0.7421  0.1007
 7914TIP3    H245158   6.524   3.256  11.660  1.4909 -0.5633 -0.3673
 7915TIP3   OH245159   5.720   1.572  15.177 -0.0105 -0.1979 -0.1950
 7915TIP3    H145160   5.723   1.650  15.122  1.6307  0.1372  0.3115
 7915TIP3    H245161   5.789   1.515  15.143  0.0855 -0.5975  0.6334
 7916TIP3   OH245162   2.505   5.974  15.913  0.0994  0.6102 -0.0172
 7916TIP3    H145163   2.586   6.015  15.883 -0.6498  1.0947 -1.4858
 7916TIP3    H245164   2.460   6.043  15.962  0.3305  0.4972  0.3607
 7917TIP3   OH245165   5.357   2.103  13.047  0.2545 -0.7152  0.4594
 7917TIP3    H145166   5.305   2.093  12.968 -0.9953  0.4459  1.0810
 7917TIP3    H245167   5.314   2.174  13.095  1.4520 -0.8406  1.7948
 7918TIP3   OH245168   6.294   0.882  12.948  0.5245  0.9329 -0.3333
 7918TIP3    H145169   6.355   0.823  12.904 -0.0517 -1.1982  1.5333
 7918TIP3    H245170   6.218   0.885  12.890  1.3555  1.5382 -1.4281
 7919TIP3   OH245171   5.578   4.837   2.722 -0.3020  0.4752 -0.3788
 7919TIP3    H145172   5.489   4.824   2.755 -0.4390  1.6209 -0.2396
 7919TIP3    H245173   5.635   4.802   2.791 -0.6190  1.3516  0.3476
 7920TIP3   OH245174   0.944   5.562   0.800 -0.0353 -0.5421  0.0576
 7920TIP3    H145175   1.007   5.531   0.735 -0.2872  0.4279 -0.6701
 7920TIP3    H245176   0.997   5.593   0.873  0.2958 -0.5184 -0.1933
 7921TIP3   OH245177   4.030   1.110  16.762  0.7084  0.6894  0.1073
 7921TIP3    H145178   3.954   1.084  16.709 -0.4128  1.9445  1.0181
 7921TIP3    H245179   4.045   1.036  16.821 -0.8785  1.0441  1.0224
 7922TIP3   OH245180   4.159   3.252  15.068 -0.6097  0.3200 -0.3443
 7922TIP3    H145181   4.149   3.253  14.973 -1.3902  0.5774 -0.2698
 7922TIP3    H245182   4.253   3.255  15.082 -0.4488 -0.6496 -1.1108
 7923TIP3   OH245183   6.109   3.713   4.633 -0.0306 -0.1234 -0.4350
 7923TIP3    H145184   6.114   3.641   4.571 -0.6423 -0.0317 -0.5972
 7923TIP3    H245185   6.201   3.735   4.652  0.1592 -0.3622 -1.0556
 7924TIP3   OH245186   0.798   6.246  15.031 -0.1337  0.5522  0.4235
 7924TIP3    H145187   0.723   6.260  14.973 -0.9914  0.2436  1.4098
 7924TIP3    H245188   0.868   6.299  14.994 -0.7112  0.5019 -0.7739
 7925TIP3   OH245189   2.018   0.419   3.028  0.0933  0.0925 -0.1794
 7925TIP3    H145190   2.081   0.445   3.095  0.6957  0.9415 -1.0406
 7925TIP3    H245191   1.962   0.354   3.071  1.8763 -1.0917  0.4652
 7926TIP3   OH245192   2.135   2.845   5.664  0.0461 -0.1451  0.7952
 7926TIP3    H145193   2.116   2.821   5.573 -1.6323  0.2531  1.0111
 7926TIP3    H245194   2.217   2.895   5.659  0.7037 -1.2898 -0.3107
 7927TIP3   OH245195   5.144   3.969  12.559 -0.0195  0.4703  0.0029
 7927TIP3    H145196   5.197   3.981  12.480 -1.4990  2.5997 -0.7513
 7927TIP3    H245197   5.128   4.058  12.591 -1.2480 -0.2329  1.4762
 7928TIP3   OH245198   5.245   3.414  13.518  0.2734 -0.0362  0.4900
 7928TIP3    H145199   5.187   3.364  13.461  0.4151  1.2604 -0.8604
 7928TIP3    H245200   5.307   3.456  13.458  2.3432 -1.0209  1.8552
 7929TIP3   OH245201   1.740   1.313  11.258 -0.2418 -0.3836 -0.4945
 7929TIP3    H145202   1.751   1.350  11.170  1.2435 -1.8442 -0.9723
 7929TIP3    H245203   1.725   1.220  11.243 -0.9325 -0.5063  0.7885
 7930TIP3   OH245204   3.965   1.015  12.189 -0.1271 -0.1912 -0.1241
 7930TIP3    H145205   3.994   1.083  12.250 -0.9416 -0.1041  0.1778
 7930TIP3    H245206   4.022   0.941  12.208  0.4881  0.2646 -0.1620
 7931TIP3   OH245207   2.096   0.197  13.487  0.4609  0.2234  0.1868
 7931TIP3    H145208   2.187   0.168  13.480  0.4693  0.2003  0.3880
 7931TIP3    H245209   2.080   0.244  13.405  1.2308  1.8681  0.9322
 7932TIP3   OH245210   4.772   4.946   2.931  0.4216  0.4531  0.3395
 7932TIP3    H145211   4.807   4.893   3.003 -0.6785 -1.6436 -0.5683
 7932TIP3    H245212   4.737   5.024   2.974 -1.0979 -1.1721  2.2814
 7933TIP3   OH245213   1.463   6.782  13.950 -0.6368  0.0709 -0.1319
 7933TIP3    H145214   1.436   6.764  14.040 -1.5150 -0.8535 -0.5574
 7933TIP3    H245215   1.413   6.859  13.924 -0.4285  0.3010  0.1459
 7934TIP3   OH245216   2.721   6.134  15.903  0.3919 -0.1780  0.4058
 7934TIP3    H145217   2.786   6.138  15.833  1.1326  0.8554  1.1257
 7934TIP3    H245218   2.695   6.225  15.918 -0.4444 -0.4734  0.8558
 7935TIP3   OH245219   4.000   3.758   0.429  0.2366  0.1280 -0.2197
 7935TIP3    H145220   3.965   3.839   0.392  0.8195  0.1756 -0.6734
 7935TIP3    H245221   3.964   3.689   0.374 -1.7815 -0.1134  1.2640
 7936TIP3   OH245222   1.457   4.113   5.767  0.3911  0.1276 -0.3830
 7936TIP3    H145223   1.493   4.036   5.723  1.8073 -0.9773  2.4509
 7936TIP3    H245224   1.362   4.102   5.760  0.5343 -0.3172 -2.4497
 7937TIP3   OH245225   2.492   1.434  13.834 -0.2864 -0.0363 -0.2053
 7937TIP3    H145226   2.427   1.412  13.901  0.3561  0.6605  0.6782
 7937TIP3    H245227   2.571   1.456  13.884 -0.1342  1.6575 -1.1408
 7938TIP3   OH245228   1.089   3.795   1.482 -0.6056 -0.2162 -0.3980
 7938TIP3    H145229   1.156   3.839   1.534 -0.3255  0.7142 -1.5110
 7938TIP3    H245230   1.130   3.713   1.455 -0.2913 -0.1238 -0.2144
 7939TIP3   OH245231   4.683   1.925  16.353 -0.4573 -0.1810 -0.2921
 7939TIP3    H145232   4.610   1.916  16.292 -0.2716 -0.0077 -0.5413
 7939TIP3    H245233   4.665   1.860  16.421 -0.6715 -0.3661 -0.5235
 7940TIP3   OH245234   0.555   5.924  12.922 -0.5554  0.0031  0.6936
 7940TIP3    H145235   0.646   5.949  12.906 -0.8549  0.1412 -0.8849
 7940TIP3    H245236   0.521   5.898  12.837 -1.5378 -1.6489  1.5172
 7941TIP3   OH245237   2.217   0.938  16.273 -0.2769 -0.2819 -0.2326
 7941TIP3    H145238   2.273   0.976  16.341  1.7696 -2.2765 -0.6937
 7941TIP3    H245239   2.278   0.896  16.213 -2.2265 -1.4210 -1.5106
 7942TIP3   OH245240   3.244   1.133   0.288  0.6353  0.1115  0.4263
 7942TIP3    H145241   3.259   1.190   0.364  1.6419 -1.1887  1.2478
 7942TIP3    H245242   3.150   1.137   0.274  0.4648  0.6116  1.5656
 7943TIP3   OH245243   4.899   3.402  16.916 -0.1030  0.3566 -0.1323
 7943TIP3    H145244   4.990   3.386  16.892  0.1021  0.9246  0.2230
 7943TIP3    H245245   4.849   3.339  16.865  0.3119  1.4537 -1.9829
 7944TIP3   OH245246   6.661   4.039   6.368  0.5558  0.8500  0.2856
 7944TIP3    H145247   6.579   4.011   6.328  0.9578 -0.3410  0.2737
 7944TIP3    H245248   6.634   4.102   6.436 -0.3639  0.5027  0.2535
 7945TIP3   OH245249   3.457   6.270  10.818  0.1283 -0.1723 -0.0897
 7945TIP3    H145250   3.434   6.272  10.725  0.4510 -1.5922 -0.2259
 7945TIP3    H245251   3.553   6.260  10.819  0.3575  1.6906  0.4352
 7946TIP3   OH245252   3.338   4.351  11.559 -0.4560  0.5470  0.5773
 7946TIP3    H145253   3.378   4.267  11.537 -0.6739  0.7434 -0.5830
 7946TIP3    H245254   3.412   4.410  11.573 -0.3136  0.5941 -0.3328
 7947TIP3   OH245255   1.420   4.942   1.129  0.1199  0.3665 -0.1711
 7947TIP3    H145256   1.467   4.875   1.079 -0.0274 -0.2441  0.4923
 7947TIP3    H245257   1.490   4.993   1.172  0.2070 -0.8449  1.2051
 7948TIP3   OH245258   3.075   0.795   5.484  0.3401  0.3095  0.2300
 7948TIP3    H145259   2.991   0.763   5.450  0.6602  0.2879 -0.5550
 7948TIP3    H245260   3.100   0.865   5.425  0.2984  1.1381  1.1709
 7949TIP3   OH245261   6.652   2.533   0.140  0.3901 -0.0741  0.3550
 7949TIP3    H145262   6.665   2.625   0.119 -0.0230  0.0097  0.4702
 7949TIP3    H245263   6.733   2.507   0.186  0.5880  0.1761  0.1493
 7950TIP3   OH245264   2.802   3.967   5.867  0.0371 -0.2326  0.3664
 7950TIP3    H145265   2.885   3.978   5.820 -0.7383 -0.3324 -1.0913
 7950TIP3    H245266   2.787   4.052   5.909  0.9454 -0.2705  0.7978
 7951TIP3   OH245267   6.113   0.327  15.257  0.2047  0.3381 -0.5227
 7951TIP3    H145268   6.105   0.397  15.321  2.1696 -0.5012  0.7411
 7951TIP3    H245269   6.186   0.274  15.289 -0.1451 -1.3375 -2.3275
 7952TIP3   OH245270   2.848   5.221  11.380 -0.4358  0.5390 -0.0583
 7952TIP3    H145271   2.941   5.201  11.394 -0.3633  0.7377 -0.2691
 7952TIP3    H245272   2.806   5.135  11.370 -0.3429  0.4279  0.4640
 7953TIP3   OH245273   1.401   4.245  16.769 -0.2050  0.1880  0.2486
 7953TIP3    H145274   1.331   4.207  16.822 -0.6844  1.1543  0.3253
 7953TIP3    H245275   1.391   4.339  16.779 -2.1923  0.6235 -3.8438
 7954TIP3   OH245276   4.028   1.700   2.490  0.3575 -0.0832 -0.2152
 7954TIP3    H145277   3.968   1.661   2.554 -0.0789 -0.2710 -0.7285
 7954TIP3    H245278   4.057   1.626   2.437  0.7053  0.0748 -0.2488
 7955TIP3   OH245279   6.044   6.662   1.875 -0.4870  0.2000  0.6855
 7955TIP3    H145280   5.966   6.655   1.820 -0.2625  0.9537  0.2553
 7955TIP3    H245281   6.112   6.696   1.817  0.6058 -1.8783  0.6429
 7956TIP3   OH245282   5.942   1.610  10.108  0.4944 -0.5785 -0.2658
 7956TIP3    H145283   5.867   1.660  10.076  0.8568  0.6676  0.7558
 7956TIP3    H245284   5.936   1.614  10.203  0.9951 -1.8136 -0.1576
 7957TIP3   OH245285   4.073   5.192   4.162  0.0084  0.0054  0.0934
 7957TIP3    H145286   4.137   5.129   4.197  0.2020  0.4821  0.6187
 7957TIP3    H245287   4.058   5.163   4.073  0.3702 -0.5788  0.2108
 7958TIP3   OH245288   4.517   6.383  16.272  0.0592  0.0842 -0.1744
 7958TIP3    H145289   4.609   6.398  16.254  0.1865 -0.6878 -0.1928
 7958TIP3    H245290   4.471   6.453  16.224  0.5313 -0.5331 -1.5763
 7959TIP3   OH245291   5.078   6.490   4.095  0.2180 -0.6273 -0.2118
 7959TIP3    H145292   5.162   6.456   4.124 -0.3612 -1.9302 -0.0143
 7959TIP3    H245293   5.056   6.438   4.018  0.6478  1.2411 -1.6967
 7960TIP3   OH245294   6.642   2.805   0.160  0.2052 -0.1734  0.4690
 7960TIP3    H145295   6.605   2.876   0.213  0.6076  0.3250  0.0903
 7960TIP3    H245296   6.718   2.844   0.116 -0.6675 -0.2855 -1.2405
 7961TIP3   OH245297   1.720   0.603   3.288  0.2023  0.3336  0.5551
 7961TIP3    H145298   1.741   0.546   3.361  1.0360  2.5311  2.1481
 7961TIP3    H245299   1.656   0.664   3.322  1.5008  2.1699 -0.1088
 7962TIP3   OH245300   0.798   1.666   5.212  0.4222  0.0078 -0.1567
 7962TIP3    H145301   0.804   1.647   5.118 -1.4715  1.3766 -0.6228
 7962TIP3    H245302   0.870   1.727   5.229  0.8901 -0.3925 -0.6905
 7963TIP3   OH245303   4.945   3.241   3.342  0.3201  0.0981 -0.4979
 7963TIP3    H145304   4.856   3.276   3.342 -0.3561 -1.3787  1.8638
 7963TIP3    H245305   4.957   3.205   3.254 -1.2396  0.7401 -0.9981
 7964TIP3   OH245306   2.316   2.807  16.119  0.7039  0.0078  0.4299
 7964TIP3    H145307   2.320   2.713  16.104 -0.4607 -0.2368  1.5246
 7964TIP3    H245308   2.407   2.837  16.108  0.8351 -0.9420 -1.6150
 7965TIP3   OH245309   6.070   1.279   5.461  0.7920 -0.2324 -0.6912
 7965TIP3    H145310   6.079   1.344   5.531  2.4137 -0.3187 -0.7805
 7965TIP3    H245311   5.985   1.238   5.477  0.5687  0.6340  0.4713
 7966TIP3   OH245312   1.784   0.343   6.467  0.0673  0.4043  0.5703
 7966TIP3    H145313   1.704   0.395   6.475  0.1978  0.8920 -0.9837
 7966TIP3    H245314   1.843   0.399   6.416  0.0609 -1.4240 -1.5838
 7967TIP3   OH245315   2.093   0.778  13.109 -0.4964 -0.0688  0.2378
 7967TIP3    H145316   2.077   0.804  13.019  1.2088  0.8081  0.1521
 7967TIP3    H245317   2.136   0.693  13.103 -0.9173 -0.2895  0.2708
 7968TIP3   OH245318   0.281   3.440  13.675 -0.9419 -0.4675  0.4606
 7968TIP3    H145319   0.227   3.451  13.596 -0.0265 -0.4863 -0.1849
 7968TIP3    H245320   0.231   3.483  13.744 -0.7133  1.5677 -0.5811
 7969TIP3   OH245321   3.518   2.005   6.580 -0.2261 -0.2371  0.7721
 7969TIP3    H145322   3.553   1.918   6.600 -0.2791 -0.1036  1.4921
 7969TIP3    H245323   3.445   2.015   6.641 -0.8930 -0.1088 -0.0255
 7970TIP3   OH245324   1.545   2.798   0.754  0.2384  0.6597 -0.1154
 7970TIP3    H145325   1.587   2.788   0.840  0.6463  5.1671  0.4451
 7970TIP3    H245326   1.616   2.825   0.696 -0.0359 -2.2909 -2.0204
 7971TIP3   OH245327   5.684   3.402   2.463  0.0278  0.4319  0.0562
 7971TIP3    H145328   5.773   3.367   2.467  0.4497  1.5988  1.1936
 7971TIP3    H245329   5.690   3.474   2.400 -0.0684  0.6605  0.3117
 7972TIP3   OH245330   0.920   4.152  13.826 -0.3503 -0.1882  0.3717
 7972TIP3    H145331   0.898   4.097  13.751  0.9440  1.2311 -1.1266
 7972TIP3    H245332   1.009   4.126  13.851 -0.8861 -0.8740  1.6662
 7973TIP3   OH245333   2.178   6.203  16.724 -0.0530  1.1046 -0.4798
 7973TIP3    H145334   2.089   6.234  16.738 -0.1977  0.4315  0.2150
 7973TIP3    H245335   2.224   6.225  16.805 -0.3929 -1.1934  0.4169
 7974TIP3   OH245336   0.766   5.238  12.233  0.0926 -0.2809 -0.2640
 7974TIP3    H145337   0.688   5.256  12.286  0.8284  1.7612  0.2049
 7974TIP3    H245338   0.777   5.143  12.238 -2.3670 -0.6529 -0.3651
 7975TIP3   OH245339   2.831   1.554   0.651  0.2422 -0.1724 -0.4660
 7975TIP3    H145340   2.766   1.545   0.581 -1.5483 -1.7158  1.2876
 7975TIP3    H245341   2.908   1.507   0.618 -0.2548 -0.1652 -1.7221
 7976TIP3   OH245342   0.479   0.085  14.562  0.2593  0.0902 -0.2729
 7976TIP3    H145343   0.552   0.130  14.519  1.2059 -1.4737 -0.3352
 7976TIP3    H245344   0.437   0.154  14.614  2.4926  0.7965  0.7360
 7977TIP3   OH245345   4.740   3.930   5.722 -0.3824 -0.0656 -0.1287
 7977TIP3    H145346   4.703   3.870   5.658  1.3808  0.9345 -2.2093
 7977TIP3    H245347   4.779   3.873   5.788 -0.1125 -1.1928 -1.2221
 7978TIP3   OH245348   3.857   3.538  12.020  0.0867  0.0600 -0.4021
 7978TIP3    H145349   3.870   3.443  12.011 -2.6281 -0.5865  1.4638
 7978TIP3    H245350   3.769   3.547  12.055 -1.2436  3.5147 -4.0318
 7979TIP3   OH245351   5.770   4.281  15.973  0.2481  0.4635 -0.1203
 7979TIP3    H145352   5.784   4.274  16.068  0.5557 -2.3191 -0.2595
 7979TIP3    H245353   5.771   4.375  15.955  1.1241  1.0538  2.4927
 7980TIP3   OH245354   1.423   0.011  16.660 -0.1942  0.3302 -0.2975
 7980TIP3    H145355   1.429  -0.083  16.671  0.1508  0.5569  1.7786
 7980TIP3    H245356   1.514   0.041  16.660 -0.3376  0.8006  0.6429
 7981TIP3   OH245357   3.493   0.871   3.477 -0.6970 -0.5065 -0.6109
 7981TIP3    H145358   3.416   0.888   3.531  0.5067 -1.3812  1.4685
 7981TIP3    H245359   3.476   0.920   3.396 -2.3738  1.2473  0.7042
 7982TIP3   OH245360   6.709   3.140   4.272  0.4286 -0.2786  0.0299
 7982TIP3    H145361   6.742   3.122   4.183  1.7422 -1.0565  0.6297
 7982TIP3    H245362   6.632   3.084   4.281  1.6408 -2.0319  0.1447
 7983TIP3   OH245363   1.329   2.842   2.747  0.1557  0.4084 -0.1429
 7983TIP3    H145364   1.349   2.933   2.769  1.4652  0.3643 -1.0302
 7983TIP3    H245365   1.408   2.794   2.772  0.2268 -0.1884 -1.4337
 7984TIP3   OH245366   5.351   4.953   2.520  0.0156 -0.2060 -0.0086
 7984TIP3    H145367   5.411   4.929   2.591  0.3182 -1.8527 -0.7928
 7984TIP3    H245368   5.296   4.876   2.508 -0.4023  0.2625 -1.1904
 7985TIP3   OH245369   2.093   1.192  12.379 -0.4379 -0.2495 -0.2334
 7985TIP3    H145370   2.008   1.184  12.334  0.4404 -0.2372 -1.9695
 7985TIP3    H245371   2.157   1.193  12.308  0.8851  2.1045  0.9120
 7986TIP3   OH245372   3.107   5.769   0.795  0.5019 -0.5049  0.6171
 7986TIP3    H145373   3.085   5.716   0.718  1.2508 -1.1220  0.8139
 7986TIP3    H245374   3.028   5.768   0.848 -1.1698  2.5432 -1.5496
 7987TIP3   OH245375   2.769   0.683  15.873 -0.8624 -0.6713 -0.2204
 7987TIP3    H145376   2.694   0.637  15.834  0.3690 -2.6101 -0.4408
 7987TIP3    H245377   2.834   0.686  15.803  0.3926 -1.8214  0.8304
 7988TIP3   OH245378   2.974   2.822   5.549 -0.0884  0.3836 -0.7120
 7988TIP3    H145379   3.031   2.748   5.570 -0.0164  0.4713 -0.5994
 7988TIP3    H245380   2.930   2.842   5.632  0.6834  1.1584 -0.4708
 7989TIP3   OH245381   3.637   2.114   5.569 -0.6030 -0.2973 -0.2452
 7989TIP3    H145382   3.681   2.197   5.586 -0.3510 -0.1285 -1.5636
 7989TIP3    H245383   3.592   2.128   5.485 -0.9913 -1.3139 -0.2144
 7990TIP3   OH245384   4.327   4.047   5.538 -0.4164 -0.2760 -0.6704
 7990TIP3    H145385   4.358   3.974   5.591 -0.2637  1.1071  1.2427
 7990TIP3    H245386   4.406   4.087   5.502 -0.5331 -1.3791 -2.2690
 7991TIP3   OH245387   1.099   2.458  10.467 -0.4294  0.0147 -0.0159
 7991TIP3    H145388   1.073   2.550  10.464  1.4498  0.6423  1.0513
 7991TIP3    H245389   1.150   2.444  10.387 -0.4860 -0.0257 -0.0451
 7992TIP3   OH245390   5.776   0.255  13.426 -0.2155  0.2879  0.2493
 7992TIP3    H145391   5.869   0.273  13.419  0.0117 -0.0968  1.9288
 7992TIP3    H245392   5.747   0.302  13.504 -1.8399  1.8342 -1.1862
 7993TIP3   OH245393   3.163   4.467   2.816  0.1981  0.4976  0.6019
 7993TIP3    H145394   3.140   4.382   2.778 -0.0744  1.0024 -0.4122
 7993TIP3    H245395   3.185   4.448   2.907  0.6696 -0.7422  0.2523
 7994TIP3   OH245396   4.231   0.359  14.455  0.0234  0.0893  0.5388
 7994TIP3    H145397   4.280   0.297  14.400 -1.1902 -0.8671  0.4938
 7994TIP3    H245398   4.263   0.343  14.543  0.4856  0.1586  0.3872
 7995TIP3   OH245399   4.237   3.662  12.393  0.0280 -0.1892 -0.0701
 7995TIP3    H145400   4.304   3.709  12.344  1.2058 -1.2180  0.5082
 7995TIP3    H245401   4.165   3.651  12.331 -0.2643  2.2499 -0.2457
 7996TIP3   OH245402   1.049   2.011  16.757  0.7233 -0.4480 -0.2184
 7996TIP3    H145403   1.087   1.938  16.805 -1.0715 -2.0268 -1.0644
 7996TIP3    H245404   1.032   1.977  16.670  3.5522  2.2193 -2.0303
 7997TIP3   OH245405   2.327   4.271  16.253  0.0591  0.4553  0.4191
 7997TIP3    H145406   2.316   4.350  16.201 -0.9109  0.4277  0.5483
 7997TIP3    H245407   2.270   4.207  16.211  0.9911 -0.2398  0.1941
 7998TIP3   OH245408   2.800   2.526  14.903 -0.5146  0.6788 -0.1654
 7998TIP3    H145409   2.780   2.531  14.996 -0.3942  0.2728 -0.1174
 7998TIP3    H245410   2.882   2.478  14.898  0.0638  1.6612 -0.4113
 7999TIP3   OH245411   0.071   2.463  13.513 -0.2144 -0.1910 -0.0696
 7999TIP3    H145412  -0.017   2.425  13.524  0.7225 -3.3035 -1.9239
 7999TIP3    H245413   0.062   2.521  13.437 -0.9573  0.7060  0.6817
 8000TIP3   OH245414   1.606   2.116  11.447  0.1713  0.5341 -0.5757
 8000TIP3    H145415   1.533   2.112  11.386  0.5035 -0.2455 -0.9318
 8000TIP3    H245416   1.639   2.027  11.452 -0.1597  0.4722  1.1302
 8001TIP3   OH245417   4.499   1.406  16.942 -0.2639  0.4392  0.2440
 8001TIP3    H145418   4.572   1.448  16.897  0.9617 -0.3033  1.4655
 8001TIP3    H245419   4.539   1.358  17.015 -1.9235 -0.3320  0.7157
 8002TIP3   OH245420   3.798   2.585  16.581  0.2359  0.1635  0.4007
 8002TIP3    H145421   3.796   2.661  16.639 -0.4513  1.5145 -1.3056
 8002TIP3    H245422   3.855   2.611  16.509 -0.7065 -0.5878 -0.6544
 8003TIP3   OH245423   5.643   1.230   0.020 -0.7872  0.4587  0.5615
 8003TIP3    H145424   5.711   1.164   0.008 -1.0222  0.5690 -1.7782
 8003TIP3    H245425   5.567   1.181   0.052 -1.1350 -0.5713 -1.6991
 8004TIP3   OH245426   2.017   5.498   5.040  0.3991 -0.2733  0.3590
 8004TIP3    H145427   2.001   5.430   4.975  1.3818 -1.8123  1.6602
 8004TIP3    H245428   1.973   5.467   5.119  2.1802 -0.2438  1.4327
 8005TIP3   OH245429   0.978   3.643  17.133 -0.2042 -0.3669 -0.6306
 8005TIP3    H145430   1.028   3.724  17.126 -1.6881  0.4432 -3.0334
 8005TIP3    H245431   0.938   3.647  17.220 -0.0246  1.3443 -0.5886
 8006TIP3   OH245432   2.526   6.115   3.657 -0.2471  0.1571 -0.3073
 8006TIP3    H145433   2.521   6.121   3.753  2.4389 -0.9025  0.0053
 8006TIP3    H245434   2.546   6.205   3.629  1.0192  0.1113  0.3694
 8007TIP3   OH245435   2.121   2.586  13.723  0.0068  0.1449 -0.1834
 8007TIP3    H145436   2.117   2.521  13.653 -0.3995 -1.2322  1.0446
 8007TIP3    H245437   2.116   2.670  13.679  0.4113 -0.6572 -1.8360
 8008TIP3   OH245438   6.167   5.516  12.537  0.6401 -0.3614  0.2022
 8008TIP3    H145439   6.077   5.513  12.568 -0.0966  0.5176 -1.7540
 8008TIP3    H245440   6.209   5.582  12.593  0.1716 -0.9626  1.2933
 8009TIP3   OH245441   3.977   3.613  14.910 -0.4618  0.1728 -0.6082
 8009TIP3    H145442   3.999   3.565  14.990  0.5213 -0.6426 -1.3444
 8009TIP3    H245443   3.894   3.577  14.882  0.7460 -1.9352 -1.7282
 8010TIP3   OH245444   5.343   1.174  16.587  0.1338  0.3321 -0.5722
 8010TIP3    H145445   5.297   1.256  16.603  0.9199  0.8847 -1.0813
 8010TIP3    H245446   5.430   1.188  16.625  1.2104  0.7729 -3.0474
 8011TIP3   OH245447   4.879   0.782   3.266 -0.0978  0.2379  0.3369
 8011TIP3    H145448   4.899   0.874   3.252  0.8858 -0.1191 -0.6675
 8011TIP3    H245449   4.798   0.767   3.218 -1.2200  0.9516  1.9004
 8012TIP3   OH245450   0.450   1.204   4.267  0.0917 -0.0041  0.1522
 8012TIP3    H145451   0.432   1.298   4.263  1.7178  0.2848 -1.1517
 8012TIP3    H245452   0.473   1.180   4.178  2.2451 -1.0726  0.9221
 8013TIP3   OH245453   0.777   5.004  10.731 -0.9709 -0.5398  0.1630
 8013TIP3    H145454   0.852   4.944  10.729 -1.5253 -1.2799  1.0254
 8013TIP3    H245455   0.747   5.008  10.640 -0.2590 -0.6964 -0.0894
 8014TIP3   OH245456   5.346   2.506  13.589  0.2088 -0.2450 -0.0926
 8014TIP3    H145457   5.407   2.437  13.562 -2.2185 -2.1688 -1.0296
 8014TIP3    H245458   5.278   2.460  13.639 -0.4627  1.8085  0.9961
 8015TIP3   OH245459   5.969   2.341  11.351 -0.8586  0.2007 -0.2185
 8015TIP3    H145460   6.048   2.323  11.402  0.5327  0.5300 -2.1587
 8015TIP3    H245461   5.929   2.255  11.338 -0.3563 -0.0775  0.0447
 8016TIP3   OH245462   4.931   4.812   4.317  0.2131  0.4285 -1.2326
 8016TIP3    H145463   4.973   4.876   4.259 -0.1145 -0.9719 -3.1063
 8016TIP3    H245464   4.943   4.728   4.273  0.8150 -0.9092  1.2411
 8017TIP3   OH245465   5.098   0.694   0.393 -0.3635  0.4301 -0.2678
 8017TIP3    H145466   5.167   0.664   0.451 -1.9432 -2.3351  0.3604
 8017TIP3    H245467   5.143   0.725   0.315  1.5908 -0.6291  0.3844
 8018TIP3   OH245468   1.806   5.100  14.233  0.3383  0.3178  0.0234
 8018TIP3    H145469   1.870   5.136  14.172  0.6524  0.7407  0.5955
 8018TIP3    H245470   1.855   5.081  14.313 -0.7916  4.0053  1.8184
 8019TIP3   OH245471   2.044   2.560  12.150 -0.0197 -0.6575  0.0509
 8019TIP3    H145472   2.092   2.477  12.151 -0.6620 -1.0816 -1.3358
 8019TIP3    H245473   1.952   2.534  12.151 -0.2261  0.0504 -0.0887
 8020TIP3   OH245474   1.098   2.744  14.667  0.0202  0.1898 -0.1049
 8020TIP3    H145475   1.041   2.755  14.591 -0.7722 -0.1424  0.4262
 8020TIP3    H245476   1.185   2.771  14.636  0.1114 -1.7047 -1.6760
 8021TIP3   OH245477   0.464   1.298   3.441 -0.3340  0.2147  0.8561
 8021TIP3    H145478   0.478   1.285   3.347  0.8600  0.9545  0.9281
 8021TIP3    H245479   0.434   1.388   3.449  0.5274  0.4706  1.2769
 8022TIP3   OH245480   1.679   1.364   0.623  0.0513 -0.5462  0.7915
 8022TIP3    H145481   1.586   1.385   0.617 -0.1884 -1.7487  0.0794
 8022TIP3    H245482   1.685   1.307   0.700  0.4659  0.7970  1.7960
 8023TIP3   OH245483   6.154   0.888  16.806  0.1951  0.2075  0.0596
 8023TIP3    H145484   6.107   0.922  16.730  1.2144  0.2642 -0.5604
 8023TIP3    H245485   6.145   0.793  16.800  0.5999  0.1934 -0.3502
 8024TIP3   OH245486   3.861   0.377   0.844 -0.6828  0.0007  0.2719
 8024TIP3    H145487   3.931   0.360   0.781 -1.0714  0.3427 -0.2618
 8024TIP3    H245488   3.780   0.369   0.794 -0.9491  1.9162  0.3040
 8025TIP3   OH245489   0.140   1.448  12.990  0.2154 -0.5570 -0.1238
 8025TIP3    H145490   0.123   1.502  13.068 -1.2892 -2.2435  0.8021
 8025TIP3    H245491   0.086   1.489  12.921  1.4031  0.8286 -0.2773
 8026TIP3   OH245492   3.075   0.877  14.375 -0.1774  0.0902 -0.2134
 8026TIP3    H145493   3.049   0.888  14.467 -0.8539 -0.9379 -0.2699
 8026TIP3    H245494   3.123   0.958  14.354 -0.1516  0.4055  0.9901
 8027TIP3   OH245495   0.263   1.533   5.916  0.6546 -0.9424 -0.6393
 8027TIP3    H145496   0.246   1.555   6.008  0.8261  0.1671 -0.8654
 8027TIP3    H245497   0.339   1.587   5.892 -0.4874  0.1408 -1.9537
 8028TIP3   OH245498   5.239   5.868  13.696 -0.2982  0.2946 -0.3335
 8028TIP3    H145499   5.274   5.883  13.785 -0.1698  2.6255 -0.7024
 8028TIP3    H245500   5.301   5.807  13.657 -0.2922 -0.7001  1.1254
 8029TIP3   OH245501   1.178   5.730  13.678 -0.2116  0.1108  0.1795
 8029TIP3    H145502   1.183   5.799  13.743  0.0381  0.3019 -0.0414
 8029TIP3    H245503   1.085   5.713  13.668 -0.2704  0.3673  0.2881
 8030TIP3   OH245504   4.887   3.098   1.760  0.1998  0.4033 -0.0647
 8030TIP3    H145505   4.832   3.024   1.735 -0.0522  1.4675 -3.0898
 8030TIP3    H245506   4.920   3.076   1.848 -1.2672 -2.4085 -0.1244
 8031TIP3   OH245507   6.339   5.475  16.278  0.1899 -0.0239  0.8432
 8031TIP3    H145508   6.286   5.552  16.300  2.5646  1.7807  0.6500
 8031TIP3    H245509   6.376   5.494  16.192 -0.4959 -2.1975  0.0008
 8032TIP3   OH245510   0.380   2.102   1.260 -0.0888 -0.2739 -0.1401
 8032TIP3    H145511   0.330   2.063   1.188 -0.6288  0.4495 -0.1644
 8032TIP3    H245512   0.321   2.166   1.299  0.5006 -0.0547  0.4140
 8033TIP3   OH245513   2.998   2.831  11.501 -0.4777  0.1480 -0.1996
 8033TIP3    H145514   3.035   2.776  11.432 -1.4991 -0.9046  0.0779
 8033TIP3    H245515   2.905   2.835  11.481 -0.1883  3.7727 -1.6058
 8034TIP3   OH245516   0.722   4.119   0.059  0.4808  0.5014  0.0328
 8034TIP3    H145517   0.654   4.177   0.026  0.9498  1.6823  1.0507
 8034TIP3    H245518   0.687   4.085   0.142  0.2937 -0.5357 -0.4548
 8035TIP3   OH245519   4.642   2.902   4.854  0.2034 -0.2197 -0.3583
 8035TIP3    H145520   4.730   2.939   4.869 -0.0668  0.2291  0.1372
 8035TIP3    H245521   4.656   2.836   4.785  1.0181 -0.5062  0.0610
 8036TIP3   OH245522   0.793   0.593  15.153 -0.4234  0.4827  0.3759
 8036TIP3    H145523   0.799   0.677  15.108 -0.5428  1.0431  1.3766
 8036TIP3    H245524   0.808   0.528  15.085 -0.7516  1.2996 -0.4917
 8037TIP3   OH245525   6.718   4.343  14.990  0.4576  0.0487 -0.2440
 8037TIP3    H145526   6.759   4.368  14.907  1.6162  0.4903  0.4423
 8037TIP3    H245527   6.737   4.415  15.049  0.9484 -0.9208  0.8283
 8038TIP3   OH245528   0.128   5.634   1.976  0.3076  0.5761 -0.0572
 8038TIP3    H145529   0.138   5.716   2.024  0.1487  0.1840  0.6679
 8038TIP3    H245530   0.103   5.570   2.043 -1.4020  0.3245 -0.8885
 8039TIP3   OH245531   3.024   5.581   0.616 -0.3961 -0.4727 -0.2459
 8039TIP3    H145532   2.950   5.537   0.657 -1.1747 -1.3429 -2.4112
 8039TIP3    H245533   3.089   5.511   0.605 -0.2950 -0.3123 -0.6710
 8040TIP3   OH245534   6.783   1.775   4.501  0.4209  0.6071 -0.8863
 8040TIP3    H145535   6.864   1.724   4.505 -0.4006 -1.1913 -3.9880
 8040TIP3    H245536   6.716   1.716   4.537  0.0652  1.0329 -0.8445
 8041TIP3   OH245537   3.201   1.970   2.860 -0.0281  0.4398 -0.4017
 8041TIP3    H145538   3.252   1.897   2.825  2.5179  1.7384  0.3322
 8041TIP3    H245539   3.118   1.930   2.887  2.0815 -2.7932  2.2075
 8042TIP3   OH245540   0.262   5.491   1.768 -0.5583  0.5573  0.2378
 8042TIP3    H145541   0.195   5.514   1.703  0.1878  0.5974 -0.5344
 8042TIP3    H245542   0.257   5.561   1.833 -0.5331  1.1509 -0.3861
 8043TIP3   OH245543   2.629   3.377  12.988 -0.6168 -0.0829  0.1695
 8043TIP3    H145544   2.563   3.326  12.940  0.6775 -0.7633 -0.9695
 8043TIP3    H245545   2.679   3.312  13.036  0.7576  0.1182 -0.9260
 8044TIP3   OH245546   1.988   3.192   0.031 -0.0536 -0.3270  0.3440
 8044TIP3    H145547   1.934   3.248   0.087  0.7517  1.1861 -0.3215
 8044TIP3    H245548   2.014   3.249  -0.041 -1.5621 -2.3637 -1.9715
 8045TIP3   OH245549   0.249   6.088   4.244 -0.0083 -0.2763 -0.4326
 8045TIP3    H145550   0.179   6.125   4.298  0.1474 -1.3651  0.5516
 8045TIP3    H245551   0.296   6.029   4.303 -1.2367 -3.3480 -2.2602
 8046TIP3   OH245552   2.249   6.381  10.812 -0.0332 -0.2604 -0.0528
 8046TIP3    H145553   2.244   6.371  10.907  2.0920 -0.1780  0.1160
 8046TIP3    H245554   2.330   6.429  10.798 -0.2413 -0.4048 -1.9360
 8047TIP3   OH245555   1.560   4.042  15.052 -0.5157  0.1637 -0.1832
 8047TIP3    H145556   1.505   3.998  14.987 -0.1054  0.1538 -0.5291
 8047TIP3    H245557   1.625   3.976  15.077 -0.0343  0.5006 -0.5368
 8048TIP3   OH245558   1.648   3.632   1.764 -0.2177 -0.1793 -0.5854
 8048TIP3    H145559   1.714   3.601   1.703  1.1575  0.3498  0.5699
 8048TIP3    H245560   1.637   3.561   1.827  0.8064  0.5036  0.4030
 8049TIP3   OH245561   2.588   0.095   2.341  0.1404  0.2382 -0.4474
 8049TIP3    H145562   2.664   0.143   2.374  0.0057 -0.3256  0.7353
 8049TIP3    H245563   2.513   0.136   2.385 -0.3364  1.2532 -2.1344
 8050TIP3   OH245564   2.320   3.487   4.846  0.6194 -0.2612  0.2157
 8050TIP3    H145565   2.250   3.544   4.879 -0.1167 -2.1124  2.0997
 8050TIP3    H245566   2.397   3.511   4.898  0.1217 -1.3677  1.5603
 8051TIP3   OH245567   0.344   6.592   5.219  0.5151  0.6065  0.1970
 8051TIP3    H145568   0.422   6.605   5.165 -0.4999  4.0800 -0.6511
 8051TIP3    H245569   0.271   6.607   5.160 -0.8454 -1.3396  1.2744
 8052TIP3   OH245570   5.156   0.260  16.836 -0.2436 -0.1395  0.1497
 8052TIP3    H145571   5.208   0.260  16.916 -2.6577  1.4761  1.8684
 8052TIP3    H245572   5.219   0.241  16.766  2.3501  0.3790  2.1877
 8053TIP3   OH245573   1.494   0.758   0.525  0.1151  0.0733 -0.4368
 8053TIP3    H145574   1.514   0.839   0.573 -1.7489  0.0118  0.5534
 8053TIP3    H245575   1.502   0.781   0.433 -0.2354  1.3654 -0.1599
 8054TIP3   OH245576   3.667   4.235   5.801 -0.0299 -0.1430 -0.0991
 8054TIP3    H145577   3.724   4.159   5.798  1.0813  0.6569 -0.0290
 8054TIP3    H245578   3.644   4.244   5.894 -0.6493 -0.7329 -0.1922
 8055TIP3   OH245579   3.122   1.168  12.030 -0.3392  0.2579 -0.2985
 8055TIP3    H145580   3.164   1.085  12.006 -0.4495  0.3713 -0.9054
 8055TIP3    H245581   3.089   1.153  12.119  2.5926  0.7805  0.9938
 8056TIP3   OH245582   2.445   1.012  14.773 -0.2202  0.4986  0.1310
 8056TIP3    H145583   2.383   0.961  14.720 -1.3988  1.6630  0.3181
 8056TIP3    H245584   2.531   0.982  14.746 -0.8530 -1.7990  0.4529
 8057TIP3   OH245585   5.435   1.798  15.990  0.1878 -0.2098 -0.1618
 8057TIP3    H145586   5.515   1.782  16.040 -0.2437  0.2255  0.6752
 8057TIP3    H245587   5.375   1.839  16.052 -0.8794 -1.0101 -0.6341
 8058TIP3   OH245588   3.934   5.786  16.339 -0.2341  0.0899  0.7399
 8058TIP3    H145589   3.963   5.725  16.271 -0.5905  0.2496  0.4429
 8058TIP3    H245590   3.957   5.872  16.305  0.0401  0.1365  1.0468
 8059TIP3   OH245591   1.940   6.173   3.210  0.3933  0.2305  0.3632
 8059TIP3    H145592   1.849   6.199   3.219  0.1018  0.5945 -2.6597
 8059TIP3    H245593   1.946   6.090   3.258 -1.3562  0.4783  1.0912
 8060TIP3   OH245594   0.149   1.137   0.005  0.5245 -0.6867  0.7645
 8060TIP3    H145595   0.110   1.199  -0.056 -0.2097 -2.1584 -0.3331
 8060TIP3    H245596   0.148   1.182   0.090 -2.5481 -0.1969  0.5828
 8061TIP3   OH245597   3.716   4.465   3.105 -0.2218  0.2778  0.2366
 8061TIP3    H145598   3.668   4.387   3.077 -0.7642  0.7653 -0.1960
 8061TIP3    H245599   3.802   4.431   3.131  0.0603 -0.2806 -1.3237
 8062TIP3   OH245600   0.800   2.554  15.009  0.3993  0.5526  0.0022
 8062TIP3    H145601   0.799   2.647  14.986  1.6937  0.3640 -0.9132
 8062TIP3    H245602   0.892   2.533  15.022  0.0401 -0.3495  1.3648
 8063TIP3   OH245603   1.410   0.759  15.230  0.6625 -0.0702  0.7136
 8063TIP3    H145604   1.440   0.686  15.175 -1.0333  1.4290 -2.4980
 8063TIP3    H245605   1.482   0.823  15.225  0.5756  0.0010  0.3162
 8064TIP3   OH245606   4.527   4.263   1.647 -0.1049 -0.1976 -0.1226
 8064TIP3    H145607   4.447   4.263   1.699 -0.8085  1.2736 -1.1361
 8064TIP3    H245608   4.532   4.352   1.610  1.4298 -0.5802 -0.9296
 8065TIP3   OH245609   0.971   1.078  12.136  0.1241 -0.1888 -0.1058
 8065TIP3    H145610   0.972   1.089  12.232 -0.6884  0.9309 -0.2086
 8065TIP3    H245611   1.002   1.161  12.102 -0.3477 -0.3065 -0.8352
 8066TIP3   OH245612   1.006   2.715  14.925  0.3524  0.6829  0.2677
 8066TIP3    H145613   1.043   2.631  14.953 -0.4927  0.5433  1.0113
 8066TIP3    H245614   1.032   2.723  14.833  0.7541 -0.2169  0.2893
 8067TIP3   OH245615   5.911   1.111   5.120 -0.0467 -0.9058  0.0155
 8067TIP3    H145616   5.991   1.154   5.151 -0.1283 -1.0020  0.3609
 8067TIP3    H245617   5.848   1.122   5.192 -0.8073  0.4244 -0.7955
 8068TIP3   OH245618   1.862   0.025  17.148 -0.1615  0.1262  0.2143
 8068TIP3    H145619   1.802  -0.019  17.088 -1.7051  0.1225  1.6687
 8068TIP3    H245620   1.863   0.116  17.120 -0.4900  0.0310 -0.1029
 8069TIP3   OH245621   6.319   4.362   5.736 -0.2833  0.0736 -0.3817
 8069TIP3    H145622   6.337   4.313   5.656  1.6736 -1.3084  0.8178
 8069TIP3    H245623   6.370   4.442   5.727 -0.6170  0.2479 -0.7808
 8070TIP3   OH245624   6.562   2.848  11.595 -0.2622 -0.6930 -0.0426
 8070TIP3    H145625   6.468   2.832  11.582 -0.5555  0.1367  0.8935
 8070TIP3    H245626   6.582   2.806  11.679 -0.0093 -0.0855  0.2063
 8071TIP3   OH245627   2.478   5.939   1.785  0.4833 -0.2084 -0.9253
 8071TIP3    H145628   2.393   5.957   1.744 -0.2716 -2.7173 -0.5974
 8071TIP3    H245629   2.457   5.902   1.870  1.8501 -2.0786 -1.3441
 8072TIP3   OH245630   4.557   0.134   3.154 -0.1434  0.1588  0.6270
 8072TIP3    H145631   4.523   0.216   3.189 -0.7830 -0.0276  0.4552
 8072TIP3    H245632   4.488   0.102   3.097 -0.6814 -1.4072  2.0679
 8073TIP3   OH245633   2.478   4.212  14.294 -0.2029 -0.1606  0.0101
 8073TIP3    H145634   2.536   4.147  14.253 -0.4456 -0.3223 -0.0777
 8073TIP3    H245635   2.537   4.271  14.341  0.0526 -0.1834 -0.2778
 8074TIP3   OH245636   4.693   1.847  15.651  0.1536 -0.0426 -0.3285
 8074TIP3    H145637   4.627   1.908  15.620  0.4152  0.7240  0.5985
 8074TIP3    H245638   4.644   1.782  15.701  0.0679  0.3885  0.1531
 8075TIP3   OH245639   5.420   1.601   4.510  0.0813  0.6884  0.0659
 8075TIP3    H145640   5.484   1.546   4.556 -0.4098 -0.0598 -0.1230
 8075TIP3    H245641   5.462   1.621   4.426 -1.2722 -2.9210 -1.7299
 8076TIP3   OH245642   2.479   4.101  14.916 -0.6641  0.2172  0.2705
 8076TIP3    H145643   2.390   4.083  14.888 -0.6810  0.3734  0.2245
 8076TIP3    H245644   2.505   4.179  14.867 -0.4009  0.0047  0.0696
 8077TIP3   OH245645   5.568   5.770  12.698  0.3442  0.3556 -0.5028
 8077TIP3    H145646   5.630   5.842  12.708 -0.3461  1.1259 -1.6772
 8077TIP3    H245647   5.622   5.695  12.674  0.8375  1.0420 -1.6015
 8078TIP3   OH245648   5.678   1.651  13.018  0.1529 -0.6643 -0.5123
 8078TIP3    H145649   5.679   1.640  12.923 -0.2552 -0.3105 -0.5599
 8078TIP3    H245650   5.586   1.666  13.039  0.4089  0.5662 -0.2120
 8079TIP3   OH245651   4.439   0.032  13.608 -0.6830  0.1290  0.1425
 8079TIP3    H145652   4.499   0.088  13.558 -0.9509 -0.4593 -0.8768
 8079TIP3    H245653   4.486   0.013  13.689 -0.2026  1.0526  0.0966
 8080TIP3   OH245654   5.340   3.253   2.866  0.0007  1.1240 -0.2301
 8080TIP3    H145655   5.411   3.256   2.802 -0.7640 -0.7832 -1.2556
 8080TIP3    H245656   5.264   3.290   2.820 -0.8809 -1.4004 -1.0040
 8081TIP3   OH245657   0.491   2.471   3.144 -0.4174 -0.6793 -0.1774
 8081TIP3    H145658   0.568   2.418   3.162 -0.6137 -1.9760 -2.7571
 8081TIP3    H245659   0.429   2.411   3.104 -2.0103  0.7841 -0.0308
 8082TIP3   OH245660   2.006   3.248   3.647  0.2078  0.0214  0.0759
 8082TIP3    H145661   1.911   3.261   3.654 -0.1979 -2.2048 -0.5207
 8082TIP3    H245662   2.028   3.186   3.716  1.1191  0.0386 -0.1803
 8083TIP3   OH245663   4.619   5.180   2.403  0.3611  0.4415  0.1004
 8083TIP3    H145664   4.690   5.207   2.346  0.3718 -0.0578 -0.1352
 8083TIP3    H245665   4.610   5.250   2.467  0.7070  0.7544 -0.1938
 8084TIP3   OH245666   2.609   6.788   0.316  0.5618 -0.5158 -0.2751
 8084TIP3    H145667   2.530   6.830   0.350 -0.9554 -2.0780 -1.6485
 8084TIP3    H245668   2.633   6.841   0.240  0.3855 -0.4468 -0.2834
 8085TIP3   OH245669   0.868   5.158   1.966 -0.2137  0.6144  0.3765
 8085TIP3    H145670   0.840   5.067   1.955 -0.5753  0.4327  2.4051
 8085TIP3    H245671   0.827   5.205   1.893 -0.9021 -0.6729 -0.0919
 8086TIP3   OH245672   2.982   2.098   0.957 -0.3263 -0.1845  0.1939
 8086TIP3    H145673   2.975   2.182   1.003  1.6048 -0.4496  1.1003
 8086TIP3    H245674   3.076   2.082   0.952 -0.6599 -2.7414  0.9024
 8087TIP3   OH245675   0.171   0.349  15.528 -0.5553  0.0962  0.3405
 8087TIP3    H145676   0.254   0.397  15.525 -0.5077  0.0265  0.4887
 8087TIP3    H245677   0.114   0.404  15.581 -1.0195  0.7676 -0.8256
 8088TIP3   OH245678   3.664   4.734   0.389  0.3058  0.9833  0.3629
 8088TIP3    H145679   3.578   4.712   0.353  0.1654  0.5495  0.9510
 8088TIP3    H245680   3.670   4.829   0.382 -0.8146  1.1677  1.6159
 8089TIP3   OH245681   3.695   6.713  12.103  0.0180 -0.6762 -0.3008
 8089TIP3    H145682   3.741   6.782  12.151 -1.9247  1.8569 -1.8674
 8089TIP3    H245683   3.763   6.669  12.053  1.3036  0.1365  0.6761
 8090TIP3   OH245684   1.523   6.563  16.245  0.1060 -0.2175  0.2100
 8090TIP3    H145685   1.514   6.598  16.156  1.1026 -0.0770  0.1530
 8090TIP3    H245686   1.433   6.548  16.274 -0.3470  1.7357 -0.0267
 8091TIP3   OH245687   0.760   1.436  14.668 -0.8861  0.0400  0.4282
 8091TIP3    H145688   0.746   1.437  14.573 -0.0010 -1.6202  0.2426
 8091TIP3    H245689   0.673   1.425  14.705 -1.1377 -0.2961 -0.2419
 8092TIP3   OH245690   4.675   3.248  16.469  0.0507 -0.2810  0.1282
 8092TIP3    H145691   4.627   3.218  16.392 -0.0939  0.2496  0.0079
 8092TIP3    H245692   4.705   3.336  16.447  1.0548 -0.5850  0.2226
 8093TIP3   OH245693   6.283   2.196  14.186  0.5372  0.1582 -0.5853
 8093TIP3    H145694   6.271   2.242  14.269 -0.9349 -0.3809 -0.4554
 8093TIP3    H245695   6.365   2.149  14.196  0.6051  0.4606  0.3953
 8094TIP3   OH245696   2.107   3.861   1.150  0.4242  0.0291  0.0261
 8094TIP3    H145697   2.153   3.814   1.220  1.4676  1.5637  0.4097
 8094TIP3    H245698   2.024   3.814   1.141 -0.0356  0.1658  2.7533
 8095TIP3   OH245699   2.352   1.558   5.671  0.5037  0.3714  0.3186
 8095TIP3    H145700   2.398   1.516   5.598 -0.4862  0.3306 -0.3116
 8095TIP3    H245701   2.402   1.535   5.748  1.2188 -0.1241 -0.2791
 8096TIP3   OH245702   1.168   5.132  11.476  0.3991  0.0477  0.4943
 8096TIP3    H145703   1.136   5.154  11.563 -1.7823 -0.5410 -0.0949
 8096TIP3    H245704   1.096   5.082  11.436  1.8875 -0.9015 -1.1406
 8097TIP3   OH245705   4.035   0.061  11.914  0.4140  0.3187 -0.9204
 8097TIP3    H145706   4.108   0.043  11.973  0.4614  0.4469 -0.9405
 8097TIP3    H245707   3.999   0.144  11.944  0.2769  0.2562 -0.9115
 8098TIP3   OH245708   1.124   5.186   2.897  0.0234  0.0536 -0.0855
 8098TIP3    H145709   1.195   5.220   2.952  0.7394  0.6174 -1.3207
 8098TIP3    H245710   1.127   5.240   2.819 -2.0444  0.3388 -0.0036
 8099TIP3   OH245711   0.813   1.922  13.515 -0.2564 -0.1108  0.3750
 8099TIP3    H145712   0.884   1.974  13.477 -1.6788  1.5609 -0.0911
 8099TIP3    H245713   0.816   1.940  13.608 -0.6370  0.6927  0.2359
 8100TIP3   OH245714   3.465   4.208  14.267 -0.0657  0.3365  0.2755
 8100TIP3    H145715   3.424   4.261  14.199 -0.3963  0.5399  0.6241
 8100TIP3    H245716   3.399   4.143  14.290 -0.1076  0.5159  0.6762
 8101TIP3   OH245717   2.382   3.530   2.999  0.3344  0.2141 -0.1506
 8101TIP3    H145718   2.389   3.588   3.074 -0.1919  0.7837 -0.5319
 8101TIP3    H245719   2.442   3.458   3.018  1.2460  1.0445  0.1737
 8102TIP3   OH245720   6.138   3.574   5.478  0.4403  0.2040 -0.4059
 8102TIP3    H145721   6.072   3.514   5.513 -0.1139  0.2761 -1.3070
 8102TIP3    H245722   6.162   3.629   5.553  0.3775 -0.6165  0.2291
 8103TIP3   OH245723   3.771   6.745  13.372  0.6608 -0.0837  0.2079
 8103TIP3    H145724   3.733   6.781  13.453 -1.1904  0.5631 -0.8958
 8103TIP3    H245725   3.832   6.813  13.343  0.1311  0.4107  0.2262
 8104TIP3   OH245726   2.989   3.220  11.667  0.2812 -0.8324  0.8215
 8104TIP3    H145727   3.058   3.245  11.607 -1.3873  0.8352 -0.5355
 8104TIP3    H245728   2.912   3.208  11.611 -1.0286 -0.5039  2.4672
 8105TIP3   OH245729   4.086   3.320   1.679 -0.3399 -0.3450  0.5717
 8105TIP3    H145730   4.145   3.246   1.662  0.0450  0.0007  0.3863
 8105TIP3    H245731   4.036   3.294   1.756 -0.0439 -0.7028  0.6450
 8106TIP3   OH245732   5.853   4.382  11.901 -0.2228  0.0116 -0.1104
 8106TIP3    H145733   5.827   4.352  11.989 -1.3154 -0.7143 -0.6578
 8106TIP3    H245734   5.844   4.478  11.906 -1.2817 -0.0845  0.2880
 8107TIP3   OH245735   0.109   6.443   2.595 -0.0362  0.1175 -0.0323
 8107TIP3    H145736   0.161   6.518   2.624 -0.2887  0.7493 -1.1542
 8107TIP3    H245737   0.174   6.380   2.563  0.1248  0.2329  0.0622
 8108TIP3   OH245738   4.533   0.488   1.420 -0.4746  0.6770 -0.2961
 8108TIP3    H145739   4.449   0.530   1.402  0.0702  1.3280 -1.4979
 8108TIP3    H245740   4.592   0.560   1.439  0.1809  0.3673 -1.1041
 8109TIP3   OH245741   3.811   0.590  12.839  0.1656  0.0233  0.3569
 8109TIP3    H145742   3.885   0.554  12.791  0.2953 -0.1182  0.6608
 8109TIP3    H245743   3.848   0.659  12.894 -0.1382  0.8762 -0.4884
 8110TIP3   OH245744   5.266   4.775  11.675 -0.5155 -0.2094 -0.4310
 8110TIP3    H145745   5.230   4.696  11.716 -0.5121 -0.7720 -1.4823
 8110TIP3    H245746   5.208   4.792  11.600  0.4961 -0.2433 -1.2495
 8111TIP3   OH245747   0.260   4.505   0.705 -0.1982 -0.6907  0.2928
 8111TIP3    H145748   0.193   4.461   0.756 -0.0781 -1.6886 -0.3764
 8111TIP3    H245749   0.279   4.445   0.633 -0.4828  0.7295 -1.0361
 8112TIP3   OH245750   2.105   5.116  15.980  0.4916 -0.1892  0.1516
 8112TIP3    H145751   2.048   5.171  16.034  2.9704  0.9475  1.8202
 8112TIP3    H245752   2.186   5.167  15.971  1.8159 -2.3050 -0.8610
 8113TIP3   OH245753   2.173   2.820  11.002  0.2219  0.1787  0.7689
 8113TIP3    H145754   2.153   2.905  11.041  0.1309  0.3947  0.2643
 8113TIP3    H245755   2.088   2.782  10.980  0.3152  0.7354 -0.6176
 8114TIP3   OH245756   0.913   3.956  15.009 -0.2913  0.4769 -0.2798
 8114TIP3    H145757   0.946   4.017  15.073  0.4727 -2.0659  1.9274
 8114TIP3    H245758   0.846   3.906  15.055  1.8953 -3.0392 -0.5244
 8115TIP3   OH245759   2.988   5.416  14.047  0.5174 -0.3602 -0.4145
 8115TIP3    H145760   2.902   5.436  14.012  1.8055  1.7858 -2.6715
 8115TIP3    H245761   3.005   5.485  14.111  0.9331 -0.1938 -0.7009
 8116TIP3   OH245762   5.484   5.932   2.970 -0.5034 -0.0009  0.7538
 8116TIP3    H145763   5.518   6.014   3.005 -0.1935 -0.1435  0.7902
 8116TIP3    H245764   5.413   5.959   2.911  0.4241  0.3794 -0.2164
 8117TIP3   OH245765   4.744   2.995  11.107 -0.0618 -0.1151 -0.0928
 8117TIP3    H145766   4.749   3.077  11.156  0.0929  0.9280 -1.7815
 8117TIP3    H245767   4.666   2.952  11.140  0.5722  0.0706  1.7454
 8118TIP3   OH245768   4.715   0.476  15.661 -0.3049 -0.0485 -0.1667
 8118TIP3    H145769   4.708   0.550  15.721  1.5859 -0.6265  0.8500
 8118TIP3    H245770   4.695   0.400  15.715 -0.0288 -0.4563 -0.6385
 8119TIP3   OH245771   1.054   1.688  16.211 -0.5644  0.2429 -0.4710
 8119TIP3    H145772   1.081   1.760  16.268  0.7902 -0.6376  0.0305
 8119TIP3    H245773   0.959   1.681  16.225 -0.2457 -0.0254  1.7617
 8120TIP3   OH245774   1.882   4.950  16.946 -0.2649  0.0004 -0.1487
 8120TIP3    H145775   1.922   4.868  16.972  2.2362  1.1001 -0.2488
 8120TIP3    H245776   1.859   4.994  17.028 -0.3401 -0.2188 -0.0539
 8121TIP3   OH245777   2.236   1.182  16.131 -0.0023 -0.3589  0.7646
 8121TIP3    H145778   2.253   1.104  16.185  0.2475 -1.2421 -0.5495
 8121TIP3    H245779   2.151   1.214  16.162 -0.5579 -1.7183  0.7111
 8122TIP3   OH245780   3.014   2.422   6.104 -0.0798 -0.4569 -0.3369
 8122TIP3    H145781   3.035   2.507   6.064  1.9566 -0.4115  0.7167
 8122TIP3    H245782   2.936   2.439   6.157  1.1830  1.2053  1.1152
 8123TIP3   OH245783   3.990   2.326  11.805 -0.0482 -0.5692 -0.0558
 8123TIP3    H145784   4.007   2.401  11.863  2.3381 -2.1603  1.5070
 8123TIP3    H245785   3.918   2.279  11.847 -1.8589  0.9650 -1.2764
 8124TIP3   OH245786   3.947   5.056   4.771 -0.0218  0.2182 -0.5029
 8124TIP3    H145787   3.877   5.059   4.836 -0.5122 -0.1543 -1.0083
 8124TIP3    H245788   3.994   4.975   4.789  0.0966  0.3184 -0.3566
 8125TIP3   OH245789   0.615   2.580  15.317 -0.1036 -0.0180 -0.3156
 8125TIP3    H145790   0.678   2.649  15.336 -0.4608  0.2058  0.0878
 8125TIP3    H245791   0.539   2.602  15.372 -0.0875 -0.9218  0.0773
 8126TIP3   OH245792   5.598   6.212  17.166 -0.6693 -0.3925  0.2628
 8126TIP3    H145793   5.664   6.183  17.229 -1.8077 -1.1929  1.1344
 8126TIP3    H245794   5.574   6.133  17.118 -1.7323 -0.3367  0.6760
 8127TIP3   OH245795   6.701   6.151   2.063  0.0530  0.2831 -0.1164
 8127TIP3    H145796   6.634   6.212   2.035 -0.2641 -1.5248 -3.9425
 8127TIP3    H245797   6.777   6.172   2.009  0.4935 -1.5368 -0.2720
 8128TIP3   OH245798   2.596   0.040  17.119  0.3497  0.3847  0.0236
 8128TIP3    H145799   2.597   0.089  17.037 -0.9183  1.1214  0.4059
 8128TIP3    H245800   2.623  -0.048  17.096 -0.0740  0.5617 -1.2000
 8129TIP3   OH245801   6.238   3.420  16.730 -0.3478  0.2727  0.0351
 8129TIP3    H145802   6.246   3.456  16.818  0.0027  0.0710  0.0861
 8129TIP3    H245803   6.291   3.478  16.675 -2.9907  2.2803 -0.6136
 8130TIP3   OH245804   6.183   2.395   4.861  0.1299  0.1669 -0.2767
 8130TIP3    H145805   6.161   2.485   4.837  1.1288  0.3512 -0.5473
 8130TIP3    H245806   6.253   2.371   4.801  0.9210 -0.2626  0.7927
 8131TIP3   OH245807   2.548   3.984  16.690 -0.2300  0.1292  0.6553
 8131TIP3    H145808   2.468   4.026  16.723 -0.1214 -0.1057  1.2267
 8131TIP3    H245809   2.601   4.057  16.657 -0.2712  0.3838  1.1468
 8132TIP3   OH245810   0.139   1.266   2.438  0.2157  0.0822  0.6894
 8132TIP3    H145811   0.190   1.186   2.424 -1.2935 -0.8647  0.2881
 8132TIP3    H245812   0.145   1.314   2.355  1.0909  0.3742  0.9168
 8133TIP3   OH245813   2.457   6.157   0.406 -0.2423 -0.1913  0.0709
 8133TIP3    H145814   2.548   6.134   0.388 -0.2982  0.3726 -1.0207
 8133TIP3    H245815   2.409   6.129   0.328 -0.6384  1.6044 -0.3892
 8134TIP3   OH245816   3.638   4.728  13.998  0.0823  0.2636 -0.4148
 8134TIP3    H145817   3.576   4.763  13.935  0.1081 -0.5778 -0.9211
 8134TIP3    H245818   3.624   4.780  14.077 -2.0992 -0.6524 -0.1309
 8135TIP3   OH245819   0.753   5.886   1.719  0.2086 -0.3000  0.3660
 8135TIP3    H145820   0.665   5.919   1.735 -0.7219 -2.3310 -0.2828
 8135TIP3    H245821   0.743   5.821   1.651  1.5600 -3.3579  2.8284
 8136TIP3   OH245822   4.697   3.222   1.534 -0.0583  0.5773 -0.5488
 8136TIP3    H145823   4.788   3.200   1.552  0.1520  1.5191 -0.4174
 8136TIP3    H245824   4.691   3.316   1.551 -1.2583  0.3738  0.3297
 8137TIP3   OH245825   4.169   2.689  13.836 -0.0955 -0.3827  0.5057
 8137TIP3    H145826   4.230   2.758  13.861 -0.5230 -0.1438  0.8942
 8137TIP3    H245827   4.225   2.620  13.800  0.4531 -0.3889  1.3433
 8138TIP3   OH245828   4.415   5.975  16.470 -0.4225  0.6703 -0.0051
 8138TIP3    H145829   4.407   6.010  16.381 -0.1156  0.1836 -0.2280
 8138TIP3    H245830   4.497   5.925  16.469 -0.4384  0.6276  0.5416
 8139TIP3   OH245831   1.182   2.130  15.318 -0.4293 -0.0725  0.3687
 8139TIP3    H145832   1.174   2.060  15.382 -0.7398 -0.1460  0.2507
 8139TIP3    H245833   1.153   2.209  15.365 -0.0188 -0.0098  0.5200
 8140TIP3   OH245834   5.145   4.210   3.566  0.1418  0.5768 -0.0361
 8140TIP3    H145835   5.123   4.132   3.617 -0.7068  0.7096 -0.1938
 8140TIP3    H245836   5.203   4.260   3.623 -1.3591  1.0756  1.0981
 8141TIP3   OH245837   4.122   5.112   1.685  0.1876  0.3009 -0.5668
 8141TIP3    H145838   4.165   5.034   1.718  0.3741  0.6377 -0.0027
 8141TIP3    H245839   4.029   5.097   1.703  0.4169  1.2296  1.7948
 8142TIP3   OH245840   6.083   4.734   6.281  0.3862  0.6055 -0.0860
 8142TIP3    H145841   6.095   4.640   6.266 -0.7894  0.7732 -2.5664
 8142TIP3    H245842   5.993   4.742   6.310  0.1851  1.0359 -0.8094
 8143TIP3   OH245843   2.487   3.556  13.443  0.3196  0.0391  0.3627
 8143TIP3    H145844   2.444   3.566  13.528 -0.9575  1.6669 -0.4077
 8143TIP3    H245845   2.423   3.512  13.388  0.0287  1.4215 -0.4726
 8144TIP3   OH245846   5.322   6.416   4.174 -0.2309  0.8730  0.0046
 8144TIP3    H145847   5.416   6.429   4.159 -0.1198  0.8859  0.6768
 8144TIP3    H245848   5.316   6.384   4.264 -0.8362  0.3886 -0.2029
 8145TIP3   OH245849   4.221   3.589   2.464 -0.0164 -0.6192  0.5727
 8145TIP3    H145850   4.160   3.629   2.402 -1.7642 -1.8489  1.3826
 8145TIP3    H245851   4.229   3.653   2.535  1.6831  0.6231 -0.6760
 8146TIP3   OH245852   0.010   0.605   3.974  0.0473  0.2384  0.0764
 8146TIP3    H145853   0.045   0.563   3.895 -1.5392  1.0543 -1.1025
 8146TIP3    H245854   0.004   0.698   3.951 -0.8521  0.4182  1.0109
 8147TIP3   OH245855   4.816   2.260  11.855  0.0492  0.2976 -0.5522
 8147TIP3    H145856   4.786   2.351  11.854  1.8157  0.9248 -1.6169
 8147TIP3    H245857   4.889   2.260  11.918  1.6891  0.2474 -2.3697
 8148TIP3   OH245858   4.752   0.663  13.448 -0.2858  0.0580 -0.6086
 8148TIP3    H145859   4.799   0.660  13.531  2.0874  0.2864 -1.8258
 8148TIP3    H245860   4.751   0.755  13.424 -0.4278 -0.0661 -1.0951
 8149TIP3   OH245861   0.961   5.696   6.074  0.1236  0.1279  0.7819
 8149TIP3    H145862   1.030   5.740   6.124  0.7774  0.9945 -0.8069
 8149TIP3    H245863   0.992   5.698   5.983 -0.7935 -1.8092  0.3589
 8150TIP3   OH245864   4.536   5.205   1.567  0.2980 -0.0976 -0.2205
 8150TIP3    H145865   4.445   5.177   1.558 -0.2297  1.1592  0.8065
 8150TIP3    H245866   4.570   5.205   1.477 -0.0459 -2.5793 -0.4233
 8151TIP3   OH245867   5.447   2.685   3.709  0.1595  0.1043  0.4072
 8151TIP3    H145868   5.400   2.733   3.640  1.1988  0.5494 -0.0205
 8151TIP3    H245869   5.384   2.677   3.780 -1.0238 -0.5711 -0.6758
 8152TIP3   OH245870   6.153   1.953  10.926  0.3049 -0.2542  0.5709
 8152TIP3    H145871   6.182   2.026  10.870 -2.8256  1.3039  0.7234
 8152TIP3    H245872   6.216   1.883  10.909  1.8616  1.5427 -1.7499
 8153TIP3   OH245873   4.326   4.427   4.140 -0.2153 -0.1289 -0.2522
 8153TIP3    H145874   4.281   4.439   4.057 -1.6637 -1.3052  0.3064
 8153TIP3    H245875   4.293   4.497   4.196  0.9028  0.7801 -0.6747
 8154TIP3   OH245876   0.322   1.966   2.817  0.4902 -0.4599  0.5384
 8154TIP3    H145877   0.303   1.872   2.818 -1.0157 -0.1833  0.4733
 8154TIP3    H245878   0.270   2.000   2.744 -1.8107  0.9484  2.6953
 8155TIP3   OH245879   0.723   5.070   6.542  0.2946 -0.4023  0.1192
 8155TIP3    H145880   0.628   5.080   6.540  0.3009  0.0641 -2.7921
 8155TIP3    H245881   0.756   5.157   6.564  0.0293 -0.0012 -0.9952
 8156TIP3   OH245882   0.501   5.291   5.229  0.3298 -0.1565 -0.2183
 8156TIP3    H145883   0.557   5.314   5.303  0.1554  0.8065 -0.3785
 8156TIP3    H245884   0.542   5.334   5.154  0.6102 -1.2749 -0.7294
 8157TIP3   OH245885   6.198   2.392  12.364 -0.5582  0.0103 -0.3528
 8157TIP3    H145886   6.169   2.439  12.285  0.1620 -0.5737 -0.9719
 8157TIP3    H245887   6.275   2.344  12.336 -1.2097 -1.4616  0.3108
 8158TIP3   OH245888   1.921   0.722   0.138 -0.0630 -0.2517 -0.2711
 8158TIP3    H145889   1.975   0.645   0.122 -0.3991 -0.8544  1.3039
 8158TIP3    H245890   1.831   0.691   0.128 -0.1836  0.1593 -0.4999
 8159TIP3   OH245891   5.508   2.452  11.143  0.0112 -0.0363 -0.0382
 8159TIP3    H145892   5.517   2.469  11.237  1.6421  1.4061 -0.3918
 8159TIP3    H245893   5.414   2.440  11.130 -0.4489  1.3929  1.5361
 8160TIP3   OH245894   4.126   3.124  14.380  0.3079 -0.0551 -0.4257
 8160TIP3    H145895   4.043   3.115  14.426  1.1426  0.0768  1.1855
 8160TIP3    H245896   4.136   3.041  14.332 -0.4818 -0.2967 -0.1809
 8161TIP3   OH245897   4.177   5.586   4.215 -0.5315  0.0410 -0.2686
 8161TIP3    H145898   4.232   5.598   4.137 -0.4307  1.5056 -0.0067
 8161TIP3    H245899   4.091   5.562   4.180  0.2679 -2.4997 -0.6709
 8162TIP3   OH245900   2.009   1.442   1.446  0.0884  0.5245  0.2963
 8162TIP3    H145901   1.969   1.517   1.401  2.3910  1.8342  0.3061
 8162TIP3    H245902   2.046   1.390   1.375  0.2562  0.4667  0.4275
 8163TIP3   OH245903   3.845   2.020  13.040  0.0373 -0.4606 -0.3382
 8163TIP3    H145904   3.916   1.964  13.072  1.7417  0.4865 -2.1697
 8163TIP3    H245905   3.799   1.967  12.976  0.8916 -0.2430 -1.1749
 8164TIP3   OH245906   4.283   1.700   2.236  0.0962 -0.6318  0.5227
 8164TIP3    H145907   4.372   1.685   2.268  0.2933 -0.4844  0.0435
 8164TIP3    H245908   4.287   1.682   2.142 -0.4328 -0.8533  0.5334
 8165TIP3   OH245909   3.212   3.651   2.584  0.0417 -0.4162 -0.6818
 8165TIP3    H145910   3.267   3.703   2.525  0.4738 -0.2992 -0.1801
 8165TIP3    H245911   3.235   3.681   2.672  1.4803 -2.5037 -0.2494
 8166TIP3   OH245912   6.267   2.789   1.414  0.3141 -0.4536  1.1298
 8166TIP3    H145913   6.240   2.780   1.506 -2.2099  2.1394  0.7636
 8166TIP3    H245914   6.195   2.751   1.364  0.8771 -0.3079  0.1889
 8167TIP3   OH245915   5.788   2.637  12.860 -0.1474  0.1669  0.3417
 8167TIP3    H145916   5.758   2.582  12.933 -0.2747  0.6050  0.6191
 8167TIP3    H245917   5.838   2.577  12.804  2.3337  0.3842  2.1628
 8168TIP3   OH245918   2.016   6.554  13.032 -0.0126 -0.1925 -0.3043
 8168TIP3    H145919   1.974   6.507  13.104 -0.8656  0.1832 -0.5476
 8168TIP3    H245920   1.971   6.638  13.028 -0.0801 -0.2669 -1.3663
 8169TIP3   OH245921   0.191   6.093  16.757  0.1427 -0.8477  0.3314
 8169TIP3    H145922   0.097   6.072  16.754  0.3660 -1.9583  0.5466
 8169TIP3    H245923   0.199   6.157  16.828 -0.3931 -1.1305  0.6554
 8170TIP3   OH245924   2.363   4.011   2.345 -0.2119  0.3223  0.1690
 8170TIP3    H145925   2.342   3.974   2.431 -1.2286  1.0398  0.2306
 8170TIP3    H245926   2.450   3.974   2.325 -0.7143 -1.2472  0.7035
 8171TIP3   OH245927   3.169   5.743   5.347 -0.2118 -0.8815 -0.2070
 8171TIP3    H145928   3.152   5.749   5.441  0.0429  2.2218 -0.2730
 8171TIP3    H245929   3.101   5.796   5.307  1.3814  0.2576 -1.5177
 8172TIP3   OH245930   2.456   6.325   0.920 -0.1158 -0.9488 -0.6723
 8172TIP3    H145931   2.499   6.247   0.884  1.1057  0.1245 -1.6511
 8172TIP3    H245932   2.491   6.333   1.009 -0.6851 -1.8089 -0.3554
 8173TIP3   OH245933   4.907   2.657   0.428 -0.2230  0.4557 -0.0229
 8173TIP3    H145934   4.895   2.704   0.510  1.1448  2.4086 -0.8713
 8173TIP3    H245935   4.997   2.676   0.402  0.8609 -3.5438  0.0536
 8174TIP3   OH245936   3.110   3.849  16.665  0.1569  0.5658  0.1844
 8174TIP3    H145937   3.134   3.942  16.660 -1.7537  1.1285  0.5781
 8174TIP3    H245938   3.021   3.845  16.629 -1.9893 -0.1328  4.7937
 8175TIP3   OH245939   1.714   3.744  13.193 -0.5264 -0.0638 -0.0062
 8175TIP3    H145940   1.664   3.709  13.267  0.5769  0.0648  0.8274
 8175TIP3    H245941   1.795   3.778  13.232  0.7972 -1.3809 -1.4276
 8176TIP3   OH245942   3.005   1.478  11.594 -0.5741 -0.2273  0.1582
 8176TIP3    H145943   3.036   1.528  11.519 -1.3099  0.5677  0.3619
 8176TIP3    H245944   2.998   1.388  11.562 -1.3603  0.1782 -0.8938
 8177TIP3   OH245945   3.067   4.460  12.676  0.0469 -0.0020 -0.1487
 8177TIP3    H145946   3.147   4.412  12.653  0.4342  0.2692  0.6225
 8177TIP3    H245947   3.051   4.437  12.767 -0.2332  0.6828 -0.0226
 8178TIP3   OH245948   0.751   6.468   2.268  0.5801 -0.6090  0.4737
 8178TIP3    H145949   0.780   6.381   2.294  0.6734 -0.3003  1.4727
 8178TIP3    H245950   0.765   6.522   2.346  0.9263  0.3965 -0.2588
 8179TIP3   OH245951   2.281   0.523  11.169  0.2478 -0.5101 -0.3473
 8179TIP3    H145952   2.249   0.441  11.131  0.0747 -0.6151  0.0177
 8179TIP3    H245953   2.367   0.536  11.129  0.4914 -1.1263 -0.0352
 8180TIP3   OH245954   1.990   0.483  16.567  0.5031 -0.8422 -0.5265
 8180TIP3    H145955   1.979   0.533  16.486  1.1295  0.2104  0.0113
 8180TIP3    H245956   2.031   0.402  16.540 -3.9719 -2.9528 -1.9883
 8181TIP3   OH245957   5.336   5.413  16.515 -0.1542 -0.3717  0.0447
 8181TIP3    H145958   5.264   5.366  16.558  0.0021 -0.8034 -0.1688
 8181TIP3    H245959   5.411   5.401  16.573 -0.3972  0.5988  0.5848
 8182TIP3   OH245960   5.226   0.914  12.631  0.2170  0.3780  0.0425
 8182TIP3    H145961   5.179   0.981  12.681 -0.2599 -0.0133  0.1327
 8182TIP3    H245962   5.313   0.950  12.618 -0.6493  1.9662 -1.7680
 8183TIP3   OH245963   5.907   5.137  12.567 -0.8379 -0.0092 -0.0123
 8183TIP3    H145964   5.920   5.107  12.657  0.3838  1.6781  0.4231
 8183TIP3    H245965   5.994   5.128  12.526 -1.2902 -0.3883 -0.9285
 8184TIP3   OH245966   0.226   4.810   2.969  0.6602 -0.6701  0.3325
 8184TIP3    H145967   0.264   4.785   2.885 -1.8387 -0.9442 -0.8094
 8184TIP3    H245968   0.209   4.904   2.961 -1.8345 -1.1366 -0.5033
 8185TIP3   OH245969   1.122   0.143  14.128  0.3425 -0.0025 -0.3200
 8185TIP3    H145970   1.054   0.083  14.161  2.0778  0.3063  4.6752
 8185TIP3    H245971   1.201   0.089  14.122  0.3521  0.1521 -3.8925
 8186TIP3   OH245972   4.833   3.087   3.129  0.1808  0.1391 -0.2103
 8186TIP3    H145973   4.787   3.003   3.130 -0.0963  0.2228 -1.9107
 8186TIP3    H245974   4.919   3.067   3.093 -0.0840  0.6511 -1.1593
 8187TIP3   OH245975   4.514   3.249   2.221  0.4884 -0.8187  0.1778
 8187TIP3    H145976   4.560   3.321   2.263 -1.3499  0.3442  0.3363
 8187TIP3    H245977   4.446   3.224   2.284 -1.1882 -0.2397 -1.3254
 8188TIP3   OH245978   4.218   1.240  11.814  0.4740  0.4267  0.2211
 8188TIP3    H145979   4.187   1.149  11.808  0.5740  0.4697 -1.2744
 8188TIP3    H245980   4.137   1.292  11.813  0.3843  0.3521  1.7284
 8189TIP3   OH245981   6.492   6.112  14.513 -0.1047  0.0119 -0.0675
 8189TIP3    H145982   6.429   6.173  14.475  2.3484  1.2504 -2.5718
 8189TIP3    H245983   6.460   6.025  14.489 -0.9780  0.5854 -1.0391
 8190TIP3   OH245984   2.914   1.095   5.161  0.1498  0.0650  0.0473
 8190TIP3    H145985   2.995   1.081   5.113 -0.4682  0.7351 -1.2328
 8190TIP3    H245986   2.852   1.033   5.122 -0.1164 -0.0267  0.6031
 8191TIP3   OH245987   2.649   0.054   4.207  0.2023  0.3950  0.6101
 8191TIP3    H145988   2.562   0.040   4.245 -0.6779 -1.9108 -1.9491
 8191TIP3    H245989   2.706  -0.004   4.258 -0.6010 -1.2205 -0.2429
 8192TIP3   OH245990   0.442   0.027  13.487  0.0009  0.6093  0.0451
 8192TIP3    H145991   0.490   0.095  13.534 -1.5747  2.0024 -0.2706
 8192TIP3    H245992   0.431  -0.043  13.551 -0.1356  1.5208  1.0480
 8193TIP3   OH245993   6.233   5.578   1.479 -0.3384 -0.1507 -0.4125
 8193TIP3    H145994   6.253   5.540   1.394 -0.1918 -2.0724  0.4069
 8193TIP3    H245995   6.297   5.648   1.490  2.4584 -2.5532 -0.2000
 8194TIP3   OH245996   2.169   4.472   1.989  0.2732  0.3565 -0.3311
 8194TIP3    H145997   2.218   4.407   1.937 -1.5454 -2.8537  1.6414
 8194TIP3    H245998   2.078   4.459   1.963 -0.2659  1.3402  0.9618
 8195TIP3   OH245999   4.047   5.532  13.738 -0.2951  0.1111 -0.3133
 8195TIP3    H146000   4.089   5.495  13.660  0.2492  0.8380 -0.3727
 8195TIP3    H246001   4.111   5.593  13.773 -0.8679  0.4019  0.2434
 8196TIP3   OH246002   2.739   2.513   2.231 -0.3044 -0.2364 -0.2377
 8196TIP3    H146003   2.793   2.445   2.191 -0.3464 -0.5531  0.2408
 8196TIP3    H246004   2.718   2.479   2.318  3.0464  2.1136  1.7164
 8197TIP3   OH246005   3.991   0.156  13.338 -0.1356 -0.3076 -0.3582
 8197TIP3    H146006   4.064   0.146  13.399  0.2942  1.2440 -0.5735
 8197TIP3    H246007   3.937   0.225  13.376 -0.1891  0.2483 -1.4081
 8198TIP3   OH246008   1.916   2.047  16.342  0.1242 -0.6642 -0.1035
 8198TIP3    H146009   1.994   1.992  16.336  0.5564 -0.0741  0.0728
 8198TIP3    H246010   1.929   2.116  16.277  0.9924  0.9565  1.6815
 8199TIP3   OH246011   6.318   1.885  14.742  0.2939  0.1443  0.3350
 8199TIP3    H146012   6.334   1.956  14.681  0.7814 -1.3990 -1.4293
 8199TIP3    H246013   6.397   1.881  14.797  0.1290  1.1237  0.6550
 8200TIP3   OH246014   1.021   3.609  10.437 -0.2929  0.6361 -0.0190
 8200TIP3    H146015   1.090   3.646  10.382 -0.2442  1.4972  0.6089
 8200TIP3    H246016   0.966   3.683  10.462 -3.9732 -0.4099 -3.8067
 8201TIP3   OH246017   1.706   6.672   1.381 -0.1825 -0.6661  0.0307
 8201TIP3    H146018   1.665   6.609   1.441  0.3932 -1.2421 -0.1618
 8201TIP3    H246019   1.634   6.724   1.347 -0.7750 -1.7442 -0.4039
 8202TIP3   OH246020   5.396   1.725  13.045 -0.2100 -0.4881 -0.0870
 8202TIP3    H146021   5.333   1.705  13.114 -1.0475 -1.5551 -1.1123
 8202TIP3    H246022   5.393   1.820  13.036  1.1066 -0.1220  2.3893
 8203TIP3   OH246023   5.455   1.933   2.507  0.1580 -1.1735 -0.6012
 8203TIP3    H146024   5.377   1.971   2.465 -1.2893 -0.4014  2.4755
 8203TIP3    H246025   5.429   1.844   2.529  0.1463 -0.9484  0.3395
 8204TIP3   OH246026   6.037   4.269  13.419  0.3389 -0.6689 -0.2178
 8204TIP3    H146027   6.047   4.174  13.416 -1.1979 -0.8261 -1.6139
 8204TIP3    H246028   6.040   4.296  13.327  0.5132  0.6110  0.1522
 8205TIP3   OH246029   1.940   5.212  12.877  0.3063  0.2513  0.1459
 8205TIP3    H146030   1.856   5.217  12.921  0.2847  0.3718  0.0900
 8205TIP3    H246031   2.000   5.261  12.933  0.3569  0.0984  0.2262
 8206TIP3   OH246032   5.167   0.622   0.072 -0.5873 -0.7421 -0.0072
 8206TIP3    H146033   5.253   0.656   0.049 -0.8265 -0.0414  0.1035
 8206TIP3    H246034   5.164   0.535   0.033  0.1671 -0.7687 -0.0111
 8207TIP3   OH246035   2.215   0.295  16.727  0.0960 -0.3795 -0.6682
 8207TIP3    H146036   2.243   0.208  16.755  1.6736 -0.7269 -3.0143
 8207TIP3    H246037   2.212   0.290  16.632 -2.6088  1.3647 -0.7647
 8208TIP3   OH246038   0.048   2.486   1.006  0.3380 -0.6136 -0.2736
 8208TIP3    H146039   0.023   2.573   1.037  0.8305  0.0447 -1.6296
 8208TIP3    H246040   0.027   2.427   1.079  0.5937  0.7181  0.9093
 8209TIP3   OH246041   0.111   3.258   5.272  0.2279 -0.2108  0.2849
 8209TIP3    H146042   0.098   3.255   5.177 -0.2895 -1.1073  0.3738
 8209TIP3    H246043   0.109   3.166   5.299 -1.0380  0.1090  1.3493
 8210TIP3   OH246044   3.832   3.608  16.407  0.1910  0.3070  0.2516
 8210TIP3    H146045   3.752   3.566  16.439  1.2274 -2.3012 -0.3501
 8210TIP3    H246046   3.816   3.622  16.314 -1.0365  3.6350  0.8055
 8211TIP3   OH246047   0.376   0.167  14.800  1.1829 -0.0282 -0.0268
 8211TIP3    H146048   0.287   0.193  14.777  1.1578  0.1450  0.2610
 8211TIP3    H246049   0.399   0.224  14.874  1.5223 -0.0891 -0.0856
 8212TIP3   OH246050   5.457   2.728  11.777  0.1796  0.6480  0.3040
 8212TIP3    H146051   5.443   2.814  11.817 -2.1124  0.3551  0.2441
 8212TIP3    H246052   5.476   2.747  11.685  1.6007  1.1432  0.6718
 8213TIP3   OH246053   5.874   2.748   4.882  0.1304 -0.1190 -0.2739
 8213TIP3    H146054   5.818   2.671   4.874  0.2256 -0.3139  0.7532
 8213TIP3    H246055   5.864   2.775   4.973  1.9823 -0.3953  0.0614
 8214TIP3   OH246056   0.449   3.399  13.918  0.1673 -0.3301  0.7267
 8214TIP3    H146057   0.442   3.379  13.824 -0.0221 -3.0567  1.2316
 8214TIP3    H246058   0.358   3.410  13.947  0.1508 -0.6268  0.7905
 8215TIP3   OH246059   5.473   5.941   0.877  0.5717 -0.3623  0.2253
 8215TIP3    H146060   5.533   5.870   0.854  1.3383 -0.3752  2.0834
 8215TIP3    H246061   5.388   5.913   0.842  1.5150 -0.5545 -2.0635
 8216TIP3   OH246062   1.086   4.698   6.130 -0.0558  0.2863 -0.1839
 8216TIP3    H146063   1.126   4.778   6.096 -0.2708 -0.2386 -1.7284
 8216TIP3    H246064   1.153   4.660   6.187  0.7757  0.5755 -0.9503
 8217TIP3   OH246065   6.414   3.563   3.447  0.2224  0.0758  0.3626
 8217TIP3    H146066   6.334   3.575   3.396 -1.4862 -0.6461  2.6764
 8217TIP3    H246067   6.461   3.493   3.402 -0.9483 -0.1718 -0.5390
 8218TIP3   OH246068   1.492   0.293   1.148  0.4476  0.1818 -0.2407
 8218TIP3    H146069   1.577   0.320   1.112  1.8048 -2.1473  0.9717
 8218TIP3    H246070   1.429   0.315   1.080  2.6043 -2.1182 -3.2142
 8219TIP3   OH246071   1.782   2.381  10.861  0.6186 -0.3090 -0.2285
 8219TIP3    H146072   1.838   2.448  10.901  1.1478 -0.0165 -1.4187
 8219TIP3    H246073   1.820   2.298  10.889 -0.5587 -0.1749  1.9941
 8220TIP3   OH246074   3.125   3.776  12.294 -0.1462  0.3335 -0.3098
 8220TIP3    H146075   3.093   3.699  12.341  0.4937  0.9850  1.2358
 8220TIP3    H246076   3.069   3.780  12.216  0.6007 -2.3868 -1.0965
 8221TIP3   OH246077   6.299   3.373   1.590 -0.6864  0.0490 -0.4162
 8221TIP3    H146078   6.273   3.288   1.627 -1.5248  0.2022 -0.6407
 8221TIP3    H246079   6.390   3.383   1.617 -0.1957 -1.4639 -1.3447
 8222TIP3   OH246080   2.510   3.318   4.664 -0.1439  0.5484 -0.2682
 8222TIP3    H146081   2.453   3.381   4.710 -0.9276 -0.1759 -0.2093
 8222TIP3    H246082   2.480   3.232   4.695 -1.4208 -0.0591 -2.8740
 8223TIP3   OH246083   4.958   2.627   0.712 -0.0264 -0.3166  1.2552
 8223TIP3    H146084   5.053   2.633   0.718 -0.0040 -0.8927  1.5124
 8223TIP3    H246085   4.926   2.696   0.771  0.1645  4.2668 -3.2865
 8224TIP3   OH246086   0.045   3.346   3.238 -0.0597  0.1851  0.1846
 8224TIP3    H146087  -0.042   3.375   3.264 -0.3261  0.3476 -0.8461
 8224TIP3    H246088   0.092   3.335   3.321 -0.7764  0.9658  0.7163
 8225TIP3   OH246089   6.683   4.567  15.955  0.0381 -0.1438  0.0261
 8225TIP3    H146090   6.621   4.580  15.883  1.0902 -0.4668 -0.9646
 8225TIP3    H246091   6.628   4.546  16.031 -1.0570 -0.4596 -0.8311
 8226TIP3   OH246092   6.168   1.891  13.856 -0.0667  0.0082 -0.3417
 8226TIP3    H146093   6.134   1.942  13.929 -0.3998  0.2441 -0.6573
 8226TIP3    H246094   6.202   1.957  13.795  1.1804 -0.2223  0.0669
 8227TIP3   OH246095   3.546   6.593   2.386 -0.1743  0.4686  0.4414
 8227TIP3    H146096   3.633   6.621   2.415 -0.1667  2.6697 -1.4164
 8227TIP3    H246097   3.550   6.597   2.290 -1.1785 -3.2517  0.0905
 8228TIP3   OH246098   0.675   2.883   6.063  0.3275  0.0405 -0.3134
 8228TIP3    H146099   0.634   2.907   6.146  0.2089 -1.3458  0.0612
 8228TIP3    H246100   0.636   2.941   5.998 -2.7596 -1.5958 -0.0833
 8229TIP3   OH246101   4.896   1.821  15.442 -0.7786 -0.3425 -0.1283
 8229TIP3    H146102   4.909   1.889  15.375 -1.3691 -0.2173 -0.1241
 8229TIP3    H246103   4.806   1.835  15.472 -0.1464  0.3915  1.5743
 8230TIP3   OH246104   3.407   1.827   6.181  0.6594 -0.2799  0.0708
 8230TIP3    H146105   3.381   1.917   6.166  1.5353  0.1047  0.7984
 8230TIP3    H246106   3.493   1.833   6.223 -0.5490 -1.3370  2.9665
 8231TIP3   OH246107   2.259   5.047  13.846  0.1625  0.2162 -0.2224
 8231TIP3    H146108   2.319   5.006  13.909 -0.3527  0.4628  0.4476
 8231TIP3    H246109   2.195   4.979  13.827  0.4586  0.0619 -0.6778
 8232TIP3   OH246110   3.170   5.817  16.130  0.1820  0.4047  0.0327
 8232TIP3    H146111   3.202   5.754  16.195  0.1951  0.5755  0.1915
 8232TIP3    H246112   3.133   5.888  16.182  0.7005  0.8107 -0.1437
 8233TIP3   OH246113   2.719   3.462  16.223 -0.8286 -0.2189  0.8329
 8233TIP3    H146114   2.732   3.429  16.135 -2.0507  0.5066  0.3508
 8233TIP3    H246115   2.722   3.384  16.279  3.1073 -0.3997  0.6248
 8234TIP3   OH246116   0.448   5.765  11.564  0.4147 -0.3609 -0.2519
 8234TIP3    H146117   0.425   5.798  11.650  0.7029 -0.0776 -0.2794
 8234TIP3    H246118   0.518   5.823  11.534  1.2413 -1.2643 -0.1158
 8235TIP3   OH246119   3.472   0.736  15.572  0.3785 -0.4162  0.1421
 8235TIP3    H146120   3.418   0.784  15.635 -0.3972  0.9199 -1.4753
 8235TIP3    H246121   3.415   0.666  15.540 -0.0944  0.3949 -0.8388
 8236TIP3   OH246122   0.142   3.278  16.541 -0.0161  0.2690 -0.0653
 8236TIP3    H146123   0.179   3.257  16.626 -1.9198 -1.1466  0.4762
 8236TIP3    H246124   0.166   3.204  16.485 -0.4987  0.1874 -0.1722
 8237TIP3   OH246125   4.101   2.450   3.302 -0.1229 -0.0490  0.5165
 8237TIP3    H146126   4.089   2.446   3.207  1.7865  0.8938  0.1857
 8237TIP3    H246127   4.012   2.459   3.337 -0.7286  2.1929 -1.3408
 8238TIP3   OH246128   4.001   1.762   4.452 -0.0874  0.2013 -0.9488
 8238TIP3    H146129   3.948   1.785   4.528  1.4132  0.5617  0.0064
 8238TIP3    H246130   4.041   1.678   4.474 -3.4209 -2.2999 -3.3476
 8239TIP3   OH246131   5.331   1.304  10.860  0.4556  0.6695 -0.2395
 8239TIP3    H146132   5.246   1.277  10.827  0.9470 -0.5471 -0.5771
 8239TIP3    H246133   5.373   1.348  10.786  0.1510  1.2124 -0.0920
 8240TIP3   OH246134   1.730   4.748   3.281 -0.1860  0.1158  0.5694
 8240TIP3    H146135   1.655   4.785   3.327 -0.3068  1.5409 -0.6850
 8240TIP3    H246136   1.693   4.686   3.219 -0.4258  1.2307 -0.4433
 8241TIP3   OH246137   0.529   0.816  16.286 -0.2238 -0.8039  0.0745
 8241TIP3    H146138   0.579   0.897  16.272 -2.5756  0.7180 -0.0078
 8241TIP3    H246139   0.591   0.758  16.331  1.5368  1.0491  0.2057
 8242TIP3   OH246140   2.024   5.829   0.503 -0.0806  0.1419  0.2783
 8242TIP3    H146141   2.057   5.907   0.457  0.9678  0.1586  1.0260
 8242TIP3    H246142   2.048   5.843   0.594 -0.3842 -0.8082  0.5126
 8243TIP3   OH246143   6.453   6.324  16.741 -0.0462  0.2230 -0.1203
 8243TIP3    H146144   6.465   6.366  16.656 -0.5645  0.2060 -0.2039
 8243TIP3    H246145   6.523   6.360  16.796  0.4368  0.0636 -0.6148
 8244TIP3   OH246146   5.229   6.167  16.434  0.4572 -0.1319  0.4054
 8244TIP3    H146147   5.178   6.233  16.482  0.1809  0.1713 -0.3014
 8244TIP3    H246148   5.279   6.122  16.502 -1.1415 -0.8018  1.2181
 8245TIP3   OH246149   1.234   4.268   5.452  0.6672 -0.0453  0.0538
 8245TIP3    H146150   1.254   4.338   5.389 -0.7679  0.0958 -0.2851
 8245TIP3    H246151   1.162   4.304   5.504  1.7618 -0.1972  1.7486
 8246TIP3   OH246152   4.322   6.059   3.056  0.5084  0.0243 -0.6963
 8246TIP3    H146153   4.311   6.035   3.148 -0.8631 -0.1389 -0.8751
 8246TIP3    H246154   4.312   5.976   3.009 -0.6885  0.3708 -1.0934
 8247TIP3   OH246155   1.582   3.752   0.982 -0.3299 -0.0324  0.0528
 8247TIP3    H146156   1.560   3.659   0.981  0.9478 -0.3521 -0.0024
 8247TIP3    H246157   1.563   3.782   0.893 -2.3297  0.1968  0.4874
 8248TIP3   OH246158   2.146   6.272  14.206  0.2265  0.0435 -0.1610
 8248TIP3    H146159   2.127   6.348  14.151  0.0268 -0.2283 -0.4677
 8248TIP3    H246160   2.124   6.301  14.294  0.6329  0.5127 -0.2080
 8249TIP3   OH246161   3.448   2.334  16.195  0.0040 -0.1667 -0.2906
 8249TIP3    H146162   3.506   2.352  16.268  0.7293  0.7190 -1.0608
 8249TIP3    H246163   3.475   2.395  16.126 -1.2754 -0.3256 -0.9773
 8250TIP3   OH246164   4.220   1.852  12.632 -0.8086 -0.1811  0.0709
 8250TIP3    H146165   4.284   1.781  12.625 -0.3693  0.0069  1.8644
 8250TIP3    H246166   4.253   1.919  12.572 -0.3711 -0.8525 -0.4560
 8251TIP3   OH246167   0.624   3.006  13.429 -0.6253  0.3300  0.3916
 8251TIP3    H146168   0.663   2.919  13.420 -0.9470  0.2429 -0.1507
 8251TIP3    H246169   0.698   3.063  13.451 -0.0891  0.2644 -1.1757
 8252TIP3   OH246170   2.859   4.351  15.413  0.0648 -0.2774 -0.0327
 8252TIP3    H146171   2.872   4.389  15.500 -1.6929 -2.0395  1.0907
 8252TIP3    H246172   2.770   4.375  15.389  0.6429  0.4897 -1.5542
 8253TIP3   OH246173   3.333   6.603  14.057 -0.1228 -0.3806  0.3041
 8253TIP3    H146174   3.311   6.670  14.122  0.2549 -0.9534  1.0316
 8253TIP3    H246175   3.389   6.542  14.104  0.2982 -0.7106 -0.6155
 8254TIP3   OH246176   0.859   5.046   3.787  0.1008  0.5019  0.0246
 8254TIP3    H146177   0.885   5.067   3.877  1.8910  0.0293 -0.3403
 8254TIP3    H246178   0.782   5.101   3.771  1.0462  2.2559  1.1125
 8255TIP3   OH246179   3.482   0.282  15.971  0.2067 -0.0001  1.1026
 8255TIP3    H146180   3.518   0.309  16.056  1.5433 -0.6133  0.7489
 8255TIP3    H246181   3.549   0.305  15.908 -0.2442 -0.7119  0.3519
 8256TIP3   OH246182   0.193   0.934  14.130  0.3554 -0.4954 -0.2038
 8256TIP3    H146183   0.181   0.897  14.218 -1.2176  1.0344  0.3127
 8256TIP3    H246184   0.104   0.949  14.099  0.8307  2.5024 -0.4342
 8257TIP3   OH246185   3.569   3.190  15.257  0.1831  0.4330 -0.0006
 8257TIP3    H146186   3.625   3.251  15.305 -0.7733  1.8996 -0.6667
 8257TIP3    H246187   3.561   3.229  15.170 -2.0286  0.3973  0.1476
 8258TIP3   OH246188   2.277   1.640  14.071  0.3227 -0.0370  0.1119
 8258TIP3    H146189   2.268   1.713  14.133 -0.2285 -1.3845  1.6922
 8258TIP3    H246190   2.355   1.593  14.100  1.0678  0.2664 -1.3098
 8259TIP3   OH246191   1.136   5.249  15.043 -0.0150  0.1967  0.1090
 8259TIP3    H146192   1.077   5.228  14.971  0.1953 -0.3597  0.0951
 8259TIP3    H246193   1.122   5.342  15.059 -0.9478  0.0562  0.1612
 8260TIP3   OH246194   5.735   1.857  14.722  0.2340  0.0125  0.0431
 8260TIP3    H146195   5.640   1.862  14.723  0.0948 -1.3891 -1.8403
 8260TIP3    H246196   5.763   1.929  14.666  0.3233  0.5250  0.7266
 8261TIP3   OH246197   5.961   1.942  16.047 -0.1221 -0.2645 -0.6719
 8261TIP3    H146198   5.891   1.932  15.982 -0.1298 -1.7154 -0.4819
 8261TIP3    H246199   5.926   2.004  16.110 -0.8650 -0.2545 -1.0806
 8262TIP3   OH246200   1.850   2.500  10.631 -0.3247 -0.0338  0.2079
 8262TIP3    H146201   1.830   2.464  10.717  0.0538  2.4407  1.4184
 8262TIP3    H246202   1.944   2.520  10.635 -1.0551  4.0132  0.9048
 8263TIP3   OH246203   4.243   6.063  12.742 -0.2608 -0.7734 -0.0754
 8263TIP3    H146204   4.211   6.046  12.830 -1.2114 -4.6234 -0.9659
 8263TIP3    H246205   4.338   6.066  12.751 -0.2704 -2.2837  1.0197
 8264TIP3   OH246206   3.611   3.163  14.943 -0.3469 -0.2791  0.2287
 8264TIP3    H146207   3.624   3.068  14.936  0.3781 -0.1832  0.2638
 8264TIP3    H246208   3.684   3.201  14.894 -0.4250  0.2682  0.5307
 8265TIP3   OH246209   5.016   5.235   4.924 -0.0043  0.3690  0.3738
 8265TIP3    H146210   5.046   5.325   4.915 -0.6955  0.7017  1.2964
 8265TIP3    H246211   5.080   5.194   4.983  1.5448 -0.3771 -1.6927
 8266TIP3   OH246212   3.840   0.143  12.219  0.0348  0.5418  0.4866
 8266TIP3    H146213   3.867   0.187  12.300  0.4045  2.7549 -0.7578
 8266TIP3    H246214   3.846   0.211  12.152  2.2039 -1.8180 -1.9372
 8267TIP3   OH246215   0.249   0.750  12.611 -0.5970 -0.3106 -0.0920
 8267TIP3    H146216   0.259   0.768  12.517  0.5615  0.2295  0.1136
 8267TIP3    H246217   0.172   0.694  12.617 -2.0284  1.4411 -1.1573
 8268TIP3   OH246218   6.152   6.337   5.628  0.4234 -0.1269 -0.4189
 8268TIP3    H146219   6.226   6.283   5.602  0.0988  0.4444 -2.7646
 8268TIP3    H246220   6.188   6.425   5.639  0.2719 -0.0218 -0.7209
 8269TIP3   OH246221   6.417   1.770  13.918  0.1016 -0.4354  0.0940
 8269TIP3    H146222   6.342   1.795  13.865 -1.9309 -1.2824  2.3803
 8269TIP3    H246223   6.406   1.676  13.932  0.2342 -0.1817  2.3528
 8270TIP3   OH246224   5.240   1.181  15.714 -0.4722 -0.2880  0.0191
 8270TIP3    H146225   5.258   1.110  15.775 -0.7046  1.9963  2.9549
 8270TIP3    H246226   5.145   1.184  15.708 -0.4419 -0.8521 -0.9728
 8271TIP3   OH246227   1.471   1.623   4.818 -0.4660  0.8118  0.1961
 8271TIP3    H146228   1.561   1.594   4.802  0.0876  1.2904  2.0651
 8271TIP3    H246229   1.481   1.702   4.872 -1.9945  2.0069 -1.1694
 8272TIP3   OH246230   4.792   4.373  14.346 -0.0413  0.0213 -0.3349
 8272TIP3    H146231   4.853   4.443  14.322  0.1511  0.5982  1.7185
 8272TIP3    H246232   4.827   4.295  14.302  2.0770  0.3802  0.6174
 8273TIP3   OH246233   5.149   4.732  11.437 -0.2583  0.1505 -1.1574
 8273TIP3    H146234   5.197   4.686  11.367 -0.7449 -2.1955 -0.0599
 8273TIP3    H246235   5.084   4.785  11.391  1.8798  1.6935 -2.5913
 8274TIP3   OH246236   2.333   1.786  16.425  0.0021  0.3723  0.3294
 8274TIP3    H146237   2.420   1.821  16.441  0.0237 -0.1684  1.5835
 8274TIP3    H246238   2.328   1.709  16.482 -0.7604 -0.4718 -0.8386
 8275TIP3   OH246239   2.206   3.809   5.369 -1.0548 -0.0313 -0.3089
 8275TIP3    H146240   2.252   3.889   5.343 -0.3658 -0.0839  0.6917
 8275TIP3    H246241   2.250   3.739   5.321 -0.5181  0.0016  0.1189
 8276TIP3   OH246242   3.030   6.444   3.118 -0.3293  0.3714  0.0341
 8276TIP3    H146243   3.051   6.386   3.191 -0.1266 -1.5336 -1.4466
 8276TIP3    H246244   3.030   6.532   3.156 -0.4125 -0.5539  2.3312
 8277TIP3   OH246245   1.225   0.638  13.715  0.0250 -0.9840  0.1140
 8277TIP3    H146246   1.197   0.711  13.770 -1.2111 -0.8481 -0.6836
 8277TIP3    H246247   1.321   0.638  13.723  0.0029  0.3988  0.5124
 8278TIP3   OH246248   4.480   5.493   2.710 -0.0068 -0.4262 -0.3539
 8278TIP3    H146249   4.576   5.499   2.707 -0.0326 -0.4916 -2.0916
 8278TIP3    H246250   4.450   5.580   2.685 -0.4639  0.3349  2.4678
 8279TIP3   OH246251   2.632   4.735  11.449 -0.6752 -0.5860  0.0095
 8279TIP3    H146252   2.642   4.708  11.358 -1.8044  0.9416 -0.6118
 8279TIP3    H246253   2.539   4.727  11.467 -0.5122 -0.5685  0.9332
 8280TIP3   OH246254   4.733   1.261   1.965 -0.0549  0.2351 -0.1538
 8280TIP3    H146255   4.790   1.193   2.001 -1.6782  0.4035  3.1057
 8280TIP3    H246256   4.706   1.312   2.041 -0.8739  3.0510 -2.1799
 8281TIP3   OH246257   4.862   3.726  10.127 -0.3591  0.1300 -0.1243
 8281TIP3    H146258   4.769   3.706  10.117 -0.5716  1.5693 -1.5989
 8281TIP3    H246259   4.905   3.641  10.135 -1.7160 -0.5948 -0.3482
 8282TIP3   OH246260   2.927   4.043   2.231 -0.7483  0.5956  0.4898
 8282TIP3    H146261   3.021   4.034   2.242 -1.1975 -1.8508  3.8707
 8282TIP3    H246262   2.912   4.137   2.227  1.8164  1.0450 -1.1480
 8283TIP3   OH246263   0.388   1.058  14.747  0.1549 -0.5753 -0.2449
 8283TIP3    H146264   0.414   1.096  14.831 -0.7942 -0.9771  0.2485
 8283TIP3    H246265   0.436   1.109  14.682  2.3631 -1.4729  0.6132
 8284TIP3   OH246266   1.357   3.277  14.194 -0.0616 -0.2596  0.2384
 8284TIP3    H146267   1.374   3.369  14.214  1.4985 -0.1753 -1.2369
 8284TIP3    H246268   1.441   3.244  14.162 -1.0185 -1.7475 -0.8519
 8285TIP3   OH246269   1.931   1.430   3.834 -0.3853  0.5002 -0.3141
 8285TIP3    H146270   1.891   1.343   3.833 -2.0171  1.1876  1.0184
 8285TIP3    H246271   1.999   1.426   3.766  0.8350 -2.3629  0.9413
 8286TIP3   OH246272   0.472   1.164  15.244  0.2971 -0.3580 -0.2903
 8286TIP3    H146273   0.425   1.197  15.320  0.0869 -0.6338 -0.2948
 8286TIP3    H246274   0.409   1.105  15.201  0.3233 -0.0065 -0.8202
 8287TIP3   OH246275   0.185   0.691   4.855  0.5740 -0.2069 -0.1797
 8287TIP3    H146276   0.270   0.651   4.875  0.7064  0.5542  0.8396
 8287TIP3    H246277   0.160   0.736   4.936 -0.6432 -0.1343 -0.5799
 8288TIP3   OH246278   6.344   6.464  14.876  0.2523 -0.0498  0.2719
 8288TIP3    H146279   6.323   6.448  14.968  0.5530  1.0312  0.5478
 8288TIP3    H246280   6.261   6.449  14.830  0.2302 -1.1172  0.6384
 8289TIP3   OH246281   2.139   4.655   4.940  0.1076 -0.2506  0.7562
 8289TIP3    H146282   2.103   4.658   4.852  0.2519  0.8752  0.7190
 8289TIP3    H246283   2.173   4.566   4.949  0.0136 -0.4050 -0.2887
 8290TIP3   OH246284   4.899   2.067  11.413  0.6950  0.1831 -0.4910
 8290TIP3    H146285   4.884   2.012  11.336  0.3919 -0.7621  0.2317
 8290TIP3    H246286   4.812   2.077  11.453  0.6951  1.4257 -0.7554
 8291TIP3   OH246287   0.695   6.706  13.603  0.6172 -0.2844  0.0158
 8291TIP3    H146288   0.786   6.720  13.576  0.7748 -0.5289  0.4105
 8291TIP3    H246289   0.669   6.626  13.559  0.0849  0.5872 -1.3290
 8292TIP3   OH246290   2.077   4.633   3.070  0.2736  0.2190 -0.1931
 8292TIP3    H146291   2.104   4.594   2.988 -1.8207  0.5354 -1.1066
 8292TIP3    H246292   2.048   4.559   3.124 -3.5448  0.2461 -1.8609
 8293TIP3   OH246293   1.841   3.595  10.894 -0.2984  0.3447 -0.3937
 8293TIP3    H146294   1.858   3.513  10.848 -0.8486 -0.2999  0.5134
 8293TIP3    H246295   1.777   3.641  10.838  0.6241  0.5488 -1.3132
 8294TIP3   OH246296   4.467   2.022   0.649 -0.2923 -0.0767 -0.4498
 8294TIP3    H146297   4.489   2.101   0.698 -0.4565 -0.9113  1.0375
 8294TIP3    H246298   4.433   2.054   0.566  0.1255  1.3980 -0.0842
 8295TIP3   OH246299   1.881   2.906   4.326  0.1720  0.1164 -0.4444
 8295TIP3    H146300   1.962   2.904   4.377 -1.3436 -2.3117  2.2027
 8295TIP3    H246301   1.902   2.862   4.244  1.2633 -1.8185  0.7938
 8296TIP3   OH246302   5.680   2.724  10.451 -0.2733  0.5167  0.2140
 8296TIP3    H146303   5.718   2.637  10.449 -0.6521  0.2168  2.7812
 8296TIP3    H246304   5.603   2.718  10.394  1.5418  0.2355 -2.4003
 8297TIP3   OH246305   2.874   2.649  14.167 -0.5136  0.1557 -0.0241
 8297TIP3    H146306   2.781   2.636  14.152 -0.4456 -0.5300  0.1189
 8297TIP3    H246307   2.917   2.593  14.102 -0.2093 -0.9456  1.0796
 8298TIP3   OH246308   2.082   2.061   5.658 -0.1594 -0.2845 -0.1562
 8298TIP3    H146309   2.135   1.984   5.643  0.4598  0.0524  0.2628
 8298TIP3    H246310   2.126   2.131   5.609 -0.3713 -0.0646 -0.0393
 8299TIP3   OH246311   1.495   0.866   2.595  0.7604  0.0175 -0.6759
 8299TIP3    H146312   1.505   0.954   2.632  0.5696 -0.2952  0.1362
 8299TIP3    H246313   1.516   0.877   2.502  1.7905  0.7220 -0.3857
 8300TIP3   OH246314   6.149   5.312   3.394 -0.3600  0.3301  0.4040
 8300TIP3    H146315   6.084   5.293   3.327 -0.8647  0.9383  0.7091
 8300TIP3    H246316   6.192   5.228   3.410 -2.0251 -0.4277  1.1957
 8301TIP3   OH246317   3.945   4.928  11.138 -0.2146  0.1093 -0.1038
 8301TIP3    H146318   3.997   4.905  11.060  2.0568  0.1314  1.2939
 8301TIP3    H246319   3.962   5.021  11.150 -1.2097  0.2845 -0.0297
 8302TIP3   OH246320   3.006   3.844  15.589  1.2392 -0.3281 -0.5518
 8302TIP3    H146321   2.987   3.878  15.501  0.6096  1.8007  0.3385
 8302TIP3    H246322   2.924   3.804  15.617  1.3880 -0.8545 -0.8686
 8303TIP3   OH246323   2.980   5.971  14.555  0.7354 -0.0628 -0.0486
 8303TIP3    H146324   2.936   5.890  14.583  1.8325 -0.4042  0.7383
 8303TIP3    H246325   3.072   5.958  14.578  1.1451  0.9275 -1.0248
 8304TIP3   OH246326   0.395   2.734  14.516 -0.5351 -0.4794 -0.2354
 8304TIP3    H146327   0.370   2.692  14.434 -2.0581 -0.8994  0.4124
 8304TIP3    H246328   0.313   2.768  14.552  0.2372  0.5101  0.6751
 8305TIP3   OH246329   4.974   0.843  11.286  0.0286 -0.4812 -0.3341
 8305TIP3    H146330   5.017   0.913  11.334 -0.2664 -0.1095 -0.6112
 8305TIP3    H246331   5.042   0.776  11.274  0.4348 -0.0439 -0.4823
 8306TIP3   OH246332   2.166   2.174  15.653  0.6536  0.6793  0.4197
 8306TIP3    H146333   2.226   2.143  15.720  0.8181 -1.0129 -0.4383
 8306TIP3    H246334   2.222   2.206  15.583  0.5694 -0.2615 -0.0957
 8307TIP3   OH246335   3.018   0.874  12.522 -0.1846 -0.1817  0.1225
 8307TIP3    H146336   2.978   0.830  12.597 -1.4933  1.3332  0.3691
 8307TIP3    H246337   2.964   0.952  12.508  1.3821  0.7653 -0.9837
 8308TIP3   OH246338   4.465   4.176  12.511 -0.5503 -0.3149  0.5153
 8308TIP3    H146339   4.559   4.189  12.501 -0.8172  0.5751 -1.4624
 8308TIP3    H246340   4.453   4.081  12.502  0.3485 -0.7984  3.4925
 8309TIP3   OH246341   4.438   0.031  11.409 -0.3141  0.2708 -0.2295
 8309TIP3    H146342   4.521   0.074  11.426 -0.1790  0.2828 -0.9301
 8309TIP3    H246343   4.433  -0.038  11.476  1.2185 -1.0658 -1.3994
 8310TIP3   OH246344   6.101   4.982  11.646 -0.5319 -0.4145  0.2482
 8310TIP3    H146345   6.046   4.906  11.625  1.0556 -1.8540  1.0338
 8310TIP3    H246346   6.119   5.023  11.562 -0.1450 -1.8560 -0.4131
 8311TIP3   OH246347   0.047   0.716   2.192  0.5576  0.2156 -0.4591
 8311TIP3    H146348  -0.015   0.644   2.198  0.9828 -0.0425  2.1525
 8311TIP3    H246349   0.014   0.781   2.254  2.3617  0.4389  0.3479
 8312TIP3   OH246350   1.668   4.634   3.037 -0.8953 -0.3793 -0.7500
 8312TIP3    H146351   1.742   4.654   2.980 -0.2039  0.0459  0.2568
 8312TIP3    H246352   1.590   4.653   2.984 -0.2812  1.7784 -0.9855
 8313TIP3   OH246353   3.985   4.868   3.848 -1.2453  0.3599 -0.1980
 8313TIP3    H146354   3.942   4.843   3.766  0.1024  1.3867 -1.2710
 8313TIP3    H246355   3.914   4.867   3.913 -2.9240  1.9514 -1.8616
 8314TIP3   OH246356   0.700   4.420   2.689  0.2717  0.2024 -0.0565
 8314TIP3    H146357   0.785   4.376   2.697  0.7484  1.1441  0.1616
 8314TIP3    H246358   0.697   4.451   2.599 -1.3587 -2.8021 -1.1998
 8315TIP3   OH246359   2.775   5.858   0.532  0.0554  0.7581 -0.1935
 8315TIP3    H146360   2.756   5.827   0.621  0.2855  0.5207 -0.2261
 8315TIP3    H246361   2.713   5.810   0.477  0.5890  0.1539 -0.2738
 8316TIP3   OH246362   3.089   0.346  13.403 -0.6242 -0.0105  0.4029
 8316TIP3    H146363   3.066   0.271  13.348  1.2493 -1.0934  1.0424
 8316TIP3    H246364   3.128   0.308  13.481  0.1715  1.6303  0.8398
 8317TIP3   OH246365   1.829   0.550  16.993  0.1971 -0.0828 -0.6928
 8317TIP3    H146366   1.908   0.602  16.986  0.6599 -0.3205  1.7253
 8317TIP3    H246367   1.759   0.614  17.005  0.8130  0.1451  2.6734
 8318TIP3   OH246368   2.600   5.265  12.142  0.3501 -0.1115 -0.3205
 8318TIP3    H146369   2.693   5.266  12.162  0.1996 -0.0041  0.4030
 8318TIP3    H246370   2.591   5.199  12.072  1.0720  0.4812 -0.9888
 8319TIP3   OH246371   6.772   0.639   5.171  0.4184  0.1708  0.7418
 8319TIP3    H146372   6.793   0.584   5.247  0.5733 -1.0959 -0.1743
 8319TIP3    H246373   6.853   0.686   5.153  1.0856 -1.1757  0.0612
 8320TIP3   OH246374   1.236   0.900  16.646 -0.0202  0.0441  0.4412
 8320TIP3    H146375   1.147   0.865  16.652 -0.9261  1.8168 -1.3527
 8320TIP3    H246376   1.262   0.883  16.555  1.6478 -0.7421  1.0195
 8321TIP3   OH246377   1.715   0.850  16.674 -0.5928 -0.7820 -0.1000
 8321TIP3    H146378   1.801   0.854  16.717 -0.3267  0.1406 -0.7059
 8321TIP3    H246379   1.653   0.847  16.747 -0.1165  0.0910  0.3649
 8322TIP3   OH246380   2.468   0.769   3.782 -0.2909  0.0911  0.4556
 8322TIP3    H146381   2.560   0.771   3.755 -0.2032  1.0953  0.7677
 8322TIP3    H246382   2.419   0.754   3.701  0.1558 -0.6616  0.3210
 8323TIP3   OH246383   1.719   0.495   3.899 -0.2149  0.4335  0.7750
 8323TIP3    H146384   1.781   0.447   3.843 -0.6454  0.8861 -0.1090
 8323TIP3    H246385   1.747   0.474   3.988  1.2044  0.6004  0.4008
 8324TIP3   OH246386   6.268   5.300   4.579 -0.1697 -0.0750  0.3327
 8324TIP3    H146387   6.270   5.209   4.609 -2.2426 -0.0282  0.7312
 8324TIP3    H246388   6.297   5.350   4.655 -0.6709 -0.2941  0.6750
 8325TIP3   OH246389   0.178   2.130  13.966 -0.1678 -0.4478  0.2593
 8325TIP3    H146390   0.202   2.121  14.058  1.9131  0.6966 -0.0968
 8325TIP3    H246391   0.083   2.117  13.964 -0.6094  1.5524  2.8835
 8326TIP3   OH246392   4.552   3.714  14.414  0.7132 -0.0104 -0.0881
 8326TIP3    H146393   4.501   3.689  14.337 -0.6598 -0.2266  0.8592
 8326TIP3    H246394   4.622   3.770  14.380  0.5001 -0.5934 -1.5513
 8327TIP3   OH246395   0.058   0.524   0.260 -0.4075  0.2108  0.3253
 8327TIP3    H146396   0.028   0.459   0.323 -1.2519  0.0300 -0.2463
 8327TIP3    H246397   0.018   0.606   0.290 -0.7981  0.1272  0.0394
 8328TIP3   OH246398   1.780   5.092  13.092 -0.3262 -0.0162 -0.2223
 8328TIP3    H146399   1.736   5.172  13.121 -3.4712 -0.3301 -3.4510
 8328TIP3    H246400   1.738   5.022  13.141 -1.4313 -0.0522 -1.1699
 8329TIP3   OH246401   5.253   3.626  14.916 -0.3345  0.1883 -0.4899
 8329TIP3    H146402   5.200   3.692  14.961 -0.2136 -0.4517  0.6467
 8329TIP3    H246403   5.205   3.544  14.929 -1.1284  0.1860 -2.9448
 8330TIP3   OH246404   6.534   4.410   4.430 -0.2429  0.0223 -0.1515
 8330TIP3    H146405   6.462   4.455   4.387 -0.9776 -1.4272 -0.5014
 8330TIP3    H246406   6.613   4.444   4.387 -0.7403  1.1110 -0.2364
 8331TIP3   OH246407   2.055   3.374  14.330  0.8130 -0.2543  0.0031
 8331TIP3    H146408   2.010   3.346  14.410  1.0035 -1.4404 -0.2832
 8331TIP3    H246409   2.103   3.297  14.301  1.1035  0.2890 -1.0225
 8332TIP3   OH246410   1.182   4.714   2.866 -0.2785 -0.3679  0.0985
 8332TIP3    H146411   1.266   4.728   2.911  0.3619 -0.7657 -0.9299
 8332TIP3    H246412   1.207   4.676   2.782 -1.4828 -0.1707 -0.3595
 8333TIP3   OH246413   4.118   0.558   6.032 -0.2269  0.0160  0.3228
 8333TIP3    H146414   4.145   0.479   6.079  1.1550  0.3616  0.1421
 8333TIP3    H246415   4.187   0.572   5.967  0.2405  2.0711  1.1914
 8334TIP3   OH246416   3.688   6.430  16.981 -0.1382  0.4103 -0.2468
 8334TIP3    H146417   3.776   6.468  16.979 -0.3013  0.7677 -1.6801
 8334TIP3    H246418   3.652   6.457  17.065  0.7527  1.1346 -0.0798
 8335TIP3   OH246419   2.261   1.151   5.518  0.3183  0.6231  0.4168
 8335TIP3    H146420   2.211   1.079   5.479  0.5850  0.2794  0.6998
 8335TIP3    H246421   2.201   1.190   5.582 -0.1992  1.3259 -0.4660
 8336TIP3   OH246422   3.714   2.981   0.395 -0.1396  0.0335  0.3915
 8336TIP3    H146423   3.640   3.025   0.438 -0.0434 -0.3193  0.9325
 8336TIP3    H246424   3.769   2.952   0.467  1.0882  1.2261 -0.0374
 8337TIP3   OH246425   2.795   2.056   6.144 -0.0477  0.5519  0.2542
 8337TIP3    H146426   2.865   1.991   6.134  0.6244  1.3835 -0.7522
 8337TIP3    H246427   2.838   2.130   6.186 -0.6723  0.5552  0.8955
 8338TIP3   OH246428   0.667   4.034   2.388  0.2535  0.6138  0.0511
 8338TIP3    H146429   0.641   3.959   2.335  1.3720 -1.8625  2.7716
 8338TIP3    H246430   0.588   4.088   2.393 -1.2102 -1.3914 -0.3698
 8339TIP3   OH246431   2.734   0.756   3.681  0.1792 -0.0133 -0.0357
 8339TIP3    H146432   2.782   0.673   3.681  0.2778 -0.0268  2.5314
 8339TIP3    H246433   2.769   0.804   3.606  0.6516 -1.9737 -1.1300
 8340TIP3   OH246434   0.246   1.399   3.866 -0.0444  0.3555 -0.0501
 8340TIP3    H146435   0.220   1.336   3.934 -2.3340  0.5455 -0.6649
 8340TIP3    H246436   0.233   1.352   3.784  0.6185  0.8339 -0.4360
 8341TIP3   OH246437   5.493   1.376  12.892  0.0106  0.1851 -0.2242
 8341TIP3    H146438   5.434   1.437  12.846 -0.6430  0.4209  0.8970
 8341TIP3    H246439   5.456   1.368  12.979  2.0703  0.9713  0.8052
 8342TIP3   OH246440   4.567   2.780   3.717 -0.2014  0.2552  0.0452
 8342TIP3    H146441   4.499   2.845   3.700  0.1798 -0.0495 -3.4201
 8342TIP3    H246442   4.648   2.820   3.684  0.2715 -1.4095 -0.9471
 8343TIP3   OH246443   6.688   5.968   5.652 -0.2421 -0.2817  0.0791
 8343TIP3    H146444   6.759   6.014   5.696 -0.8491  0.9394 -0.1737
 8343TIP3    H246445   6.668   5.894   5.710 -0.0473  0.4585  1.1314
 8344TIP3   OH246446   6.577   5.334  15.916  0.0441  0.2899  0.2994
 8344TIP3    H146447   6.564   5.282  15.996  0.3792 -0.1286  0.0853
 8344TIP3    H246448   6.515   5.297  15.854  1.2049 -0.7613 -0.2768
 8345TIP3   OH246449   1.548   3.881   5.592 -0.5558 -0.0556  0.7910
 8345TIP3    H146450   1.557   3.842   5.505  2.0242  1.1708  0.4058
 8345TIP3    H246451   1.614   3.836   5.645 -0.4091  0.8820  1.4334
 8346TIP3   OH246452   2.210   4.798  12.438 -0.2804 -0.0365 -0.0846
 8346TIP3    H146453   2.126   4.753  12.444 -1.1023  1.1456 -1.6937
 8346TIP3    H246454   2.187   4.888  12.416  1.3809  0.6711  0.8913
 8347TIP3   OH246455   5.066   3.889   3.212 -0.0788 -0.9559 -0.0032
 8347TIP3    H146456   4.977   3.862   3.188  0.1664 -3.3334  1.3781
 8347TIP3    H246457   5.076   3.859   3.303  1.8976 -0.1114  0.1132
 8348TIP3   OH246458   6.156   1.304   5.049 -0.1538 -0.3266 -0.4260
 8348TIP3    H146459   6.204   1.247   4.989  0.3005 -0.0901 -0.2865
 8348TIP3    H246460   6.074   1.323   5.003 -0.1394 -0.7699 -0.6422
 8349TIP3   OH246461   5.922   3.688   2.157  0.1401 -0.3077 -0.9168
 8349TIP3    H146462   5.934   3.781   2.138  0.5422 -0.2009 -0.1601
 8349TIP3    H246463   5.928   3.645   2.071  0.6430  0.2923 -1.1877
 8350TIP3   OH246464   0.393   3.091   2.309  0.2552  0.1904 -0.4052
 8350TIP3    H146465   0.330   3.149   2.266  0.9751 -0.1780 -2.0208
 8350TIP3    H246466   0.343   3.012   2.328 -0.3592  0.7707  0.5063
 8351TIP3   OH246467   0.559   6.366  15.849  0.4346 -0.4978 -0.0536
 8351TIP3    H146468   0.488   6.394  15.906  0.8578  0.4044  0.0488
 8351TIP3    H246469   0.540   6.408  15.765 -1.0571 -3.0827 -1.1223
 8352TIP3   OH246470   4.708   2.709  15.210 -0.0328  0.4332 -0.2488
 8352TIP3    H146471   4.627   2.757  15.226 -0.5269 -0.1721 -0.8657
 8352TIP3    H246472   4.712   2.642  15.278 -0.4439 -0.0151 -0.6544
 8353TIP3   OH246473   5.885   1.241  16.362 -0.7036 -1.1641 -0.3356
 8353TIP3    H146474   5.902   1.306  16.431 -0.4500 -1.7738  0.1852
 8353TIP3    H246475   5.876   1.293  16.282 -0.9387 -0.4469  0.1413
 8354TIP3   OH246476   2.010   5.628  13.954  0.3484 -0.0218 -0.1791
 8354TIP3    H146477   2.054   5.560  13.902 -0.0575 -0.8936  0.6000
 8354TIP3    H246478   1.948   5.580  14.009  1.0819  0.8266  1.4592
 8355TIP3   OH246479   4.814   4.788  10.919  0.6140 -0.6524 -0.0149
 8355TIP3    H146480   4.817   4.773  10.824  0.9559  0.5894 -0.2252
 8355TIP3    H246481   4.751   4.725  10.951 -0.2238 -0.4627 -1.2122
 8356TIP3   OH246482   1.771   5.866   3.659  0.3164  0.3891 -0.1678
 8356TIP3    H146483   1.706   5.846   3.726  0.9805 -0.4539  0.2423
 8356TIP3    H246484   1.827   5.933   3.700  0.7862 -0.2030  0.1684
 8357TIP3   OH246485   3.218   0.958  13.805  0.3436  0.3670 -0.0699
 8357TIP3    H146486   3.281   0.888  13.790  0.7105  0.6990 -0.0777
 8357TIP3    H246487   3.263   1.038  13.779  0.4118  0.7636  1.2112
 8358TIP3   OH246488   2.663   6.375  13.606  0.0404 -0.7739 -0.3725
 8358TIP3    H146489   2.699   6.393  13.519 -0.0016  2.2938  0.1353
 8358TIP3    H246490   2.569   6.393  13.597  0.3183  1.5461  0.6852
 8359TIP3   OH246491   5.139   2.562  15.353  0.2300 -0.2395  0.2302
 8359TIP3    H146492   5.089   2.622  15.408 -1.0621 -0.6648 -0.4387
 8359TIP3    H246493   5.161   2.613  15.275  0.6053 -0.1446  0.3926
 8360TIP3   OH246494   0.061   4.440   2.089  0.1831  0.1208  0.1048
 8360TIP3    H146495  -0.035   4.436   2.093  0.1297  0.6120 -0.5517
 8360TIP3    H246496   0.090   4.378   2.156 -0.5886 -0.5690 -0.1858
 8361TIP3   OH246497   6.245   5.117  16.128 -0.6264 -0.2377 -0.2713
 8361TIP3    H146498   6.223   5.028  16.098 -1.1269 -0.7505  1.4993
 8361TIP3    H246499   6.338   5.126  16.110  0.2550 -2.4565  2.4942
 8362TIP3   OH246500   2.780   3.827  16.820 -0.1916  0.2336  0.2503
 8362TIP3    H146501   2.771   3.857  16.729 -2.9669 -0.0353  0.3311
 8362TIP3    H246502   2.794   3.907  16.870  0.1376  0.5286 -0.3054
 8363TIP3   OH246503   3.669   5.611   2.517 -0.2237  0.5641  0.2809
 8363TIP3    H146504   3.761   5.597   2.498 -0.7156 -2.0509 -0.5104
 8363TIP3    H246505   3.639   5.671   2.449  0.5178  0.1332 -0.4344
 8364TIP3   OH246506   1.921   5.451  15.821 -0.0089  0.7031  0.5562
 8364TIP3    H146507   1.944   5.541  15.843 -1.1859  1.4655 -1.1908
 8364TIP3    H246508   1.859   5.425  15.889 -0.5153  1.5984  0.4478
 8365TIP3   OH246509   0.381   5.472   4.859 -0.2304  0.2950 -0.8419
 8365TIP3    H146510   0.421   5.473   4.946 -1.7082  2.5869 -0.0927
 8365TIP3    H246511   0.425   5.401   4.813  0.9566 -0.6585  1.6020
 8366TIP3   OH246512   4.686   0.291  14.365  0.1709  0.0213  0.5118
 8366TIP3    H146513   4.665   0.218  14.307  1.0732  0.0667  0.1092
 8366TIP3    H246514   4.769   0.267  14.405  0.6581  0.9703  0.1117
 8367TIP3   OH246515   6.040   0.029  12.007 -0.6208  0.0447  0.5778
 8367TIP3    H146516   6.017   0.016  11.916 -1.7285  0.2640  0.8140
 8367TIP3    H246517   6.098   0.106  12.007 -1.7687  0.9373  0.1987
 8368TIP3   OH246518   4.612   6.621  12.008 -0.2000  0.6072  0.3648
 8368TIP3    H146519   4.611   6.534  12.048  1.0966  0.4979  0.2089
 8368TIP3    H246520   4.603   6.682  12.081 -0.2290  0.3587  0.5693
 8369TIP3   OH246521   2.043   2.524   5.198 -0.0298  0.3113  0.2181
 8369TIP3    H146522   2.101   2.577   5.143  0.1818  1.9241  1.8897
 8369TIP3    H246523   1.985   2.479   5.136  0.9716  1.1051 -1.3490
 8370TIP3   OH246524   5.787   3.165  12.501  0.0010  0.0307 -0.0309
 8370TIP3    H146525   5.764   3.258  12.504  0.1464  0.0513  0.5422
 8370TIP3    H246526   5.714   3.120  12.543  1.1326  0.1346  2.2026
 8371TIP3   OH246527   6.696   0.131   3.371 -0.1849 -0.2128  0.3841
 8371TIP3    H146528   6.631   0.147   3.440 -2.7916 -0.9511 -1.7498
 8371TIP3    H246529   6.688   0.038   3.352  1.8587 -0.4087  0.3342
 8372TIP3   OH246530   2.413   5.936   5.738 -0.7853  0.3613  0.2819
 8372TIP3    H146531   2.467   5.886   5.800 -1.2922  0.5334  0.8680
 8372TIP3    H246532   2.334   5.883   5.726 -1.0933  0.7727  0.4965
 8373TIP3   OH246533   0.817   3.481  14.631  0.4185 -0.2830 -0.9997
 8373TIP3    H146534   0.736   3.489  14.681 -0.1424  0.5783 -2.0066
 8373TIP3    H246535   0.841   3.389  14.639  0.4410 -0.1568  0.9518
 8374TIP3   OH246536   5.266   1.266  11.128 -0.2669 -0.4628 -0.0989
 8374TIP3    H146537   5.303   1.269  11.040  0.0974 -2.7499 -0.0746
 8374TIP3    H246538   5.190   1.208  11.121 -0.4048 -0.4513  1.0307
 8375TIP3   OH246539   1.118   0.976  13.530 -0.6426 -0.5812 -0.0195
 8375TIP3    H146540   1.085   1.011  13.447 -2.3719  0.7129  1.1353
 8375TIP3    H246541   1.164   1.050  13.571 -2.3246 -0.2439  1.4120
 8376TIP3   OH246542   5.732   3.901  17.018 -0.3235  0.2926 -0.2151
 8376TIP3    H146543   5.790   3.971  17.048 -0.7298  0.0958  1.0870
 8376TIP3    H246544   5.788   3.824  17.013 -0.5535 -0.0230  1.5738
 8377TIP3   OH246545   3.842   6.248   2.497 -0.6520 -0.3669 -0.5002
 8377TIP3    H146546   3.797   6.278   2.418 -0.1238 -1.8038 -1.3899
 8377TIP3    H246547   3.905   6.317   2.517  0.1183 -0.5487 -2.1326
 8378TIP3   OH246548   3.108   0.822  11.281 -0.7954 -0.3185 -0.9531
 8378TIP3    H146549   3.039   0.764  11.250 -0.5606  0.0776 -2.2831
 8378TIP3    H246550   3.159   0.842  11.203  0.2062  0.2273 -0.1783
 8379TIP3   OH246551   4.958   3.663   3.351 -0.2075  0.4694  0.5502
 8379TIP3    H146552   4.925   3.736   3.404  0.0248  0.9887  0.0052
 8379TIP3    H246553   4.980   3.595   3.414 -1.3361  0.5048  0.9998
 8380TIP3   OH246554   2.604   1.770  11.306  0.7279 -0.2729 -0.0665
 8380TIP3    H146555   2.552   1.817  11.241  1.1302 -0.6124 -0.6441
 8380TIP3    H246556   2.607   1.680  11.273  1.7596 -0.2391 -0.1011
 8381TIP3   OH246557   1.080   1.686   1.104  0.7258 -0.1416 -0.3153
 8381TIP3    H146558   1.071   1.672   1.010  2.3972 -0.2068 -0.5097
 8381TIP3    H246559   1.135   1.613   1.133 -0.5982 -0.6854  0.9110
 8382TIP3   OH246560   6.612   5.852   5.376 -0.0223  0.6006 -0.2192
 8382TIP3    H146561   6.573   5.771   5.409 -1.0027  1.5785  1.1397
 8382TIP3    H246562   6.645   5.896   5.455  1.9514  0.8127 -1.1098
 8383TIP3   OH246563   2.862   6.148  12.277 -0.1756 -0.1162 -0.7865
 8383TIP3    H146564   2.851   6.205  12.353  0.7460 -0.9545  0.0044
 8383TIP3    H246565   2.790   6.171  12.219 -1.4830 -0.1229  0.7689
 8384TIP3   OH246566   1.553   0.281   4.633 -0.2818  0.3834  0.2516
 8384TIP3    H146567   1.470   0.293   4.587  0.2076  1.1033 -0.4691
 8384TIP3    H246568   1.530   0.232   4.712 -1.3833  0.5664  0.0566
 8385TIP3   OH246569   0.529   6.103  15.965  0.1331 -0.0633 -0.4134
 8385TIP3    H146570   0.543   6.028  15.907  0.5490 -0.2144 -0.1218
 8385TIP3    H246571   0.553   6.179  15.911  0.0903 -0.1701 -0.5832
 8386TIP3   OH246572   4.467   5.367  12.575  1.1589  0.3787  0.1674
 8386TIP3    H146573   4.447   5.280  12.608  0.7032  1.3478  2.6693
 8386TIP3    H246574   4.383   5.404  12.549  1.3120  0.1952 -0.6107
 8387TIP3   OH246575   5.273   1.290  15.211 -0.0008 -0.1568  0.0988
 8387TIP3    H146576   5.290   1.228  15.140  0.4161 -0.4382  0.4374
 8387TIP3    H246577   5.201   1.344  15.179 -0.2824 -0.7306 -0.2612
 8388TIP3   OH246578   4.659   6.736   1.929 -0.3406 -0.1902  0.0351
 8388TIP3    H146579   4.621   6.691   2.005 -2.1271 -2.4672 -2.0328
 8388TIP3    H246580   4.686   6.665   1.871  1.8989  1.4747 -1.0937
 8389TIP3   OH246581   1.002   2.481  14.205 -0.3235  0.5240  0.2858
 8389TIP3    H146582   0.961   2.531  14.276 -0.0111  0.5482  0.4526
 8389TIP3    H246583   1.015   2.545  14.135  1.2874  1.0064  0.9876
 8390TIP3   OH246584   2.659   4.381  14.388  0.3576 -0.5427  0.5731
 8390TIP3    H146585   2.690   4.412  14.473  0.0107 -1.8366  1.1983
 8390TIP3    H246586   2.721   4.418  14.325 -0.0258  1.3718  1.2406
 8391TIP3   OH246587   3.740   3.492   3.793  0.2057 -0.9251  0.2969
 8391TIP3    H146588   3.703   3.552   3.858  0.6769  1.7359 -1.7491
 8391TIP3    H246589   3.678   3.495   3.720  0.8160 -2.0893 -0.2921
 8392TIP3   OH246590   0.733   2.760   3.277  0.0149  0.8546 -0.0297
 8392TIP3    H146591   0.693   2.788   3.194  0.8668  0.0333 -0.7477
 8392TIP3    H246592   0.667   2.704   3.318 -0.2389  0.8983 -0.3753
 8393TIP3   OH246593   2.029   0.225  13.742 -0.0157 -0.2631 -0.0277
 8393TIP3    H146594   2.065   0.214  13.654  0.7415 -1.0041  0.3527
 8393TIP3    H246595   2.052   0.315  13.766 -0.2573 -0.0442 -0.5919
 8394TIP3   OH246596   1.103   4.872  14.990 -0.0444  0.1075  0.2249
 8394TIP3    H146597   1.033   4.891  14.927  1.5475  1.2134 -1.3284
 8394TIP3    H246598   1.062   4.816  15.056 -2.0118 -0.4676 -1.3760
 8395TIP3   OH246599   3.983   4.052   5.342  0.0339  0.1739  0.4211
 8395TIP3    H146600   3.921   4.118   5.309  0.1611  0.5777  0.9702
 8395TIP3    H246601   3.967   3.975   5.288  0.9829  1.1369 -1.3291
 8396TIP3   OH246602   0.437   6.458  14.069 -0.1515 -0.2246 -0.2901
 8396TIP3    H146603   0.381   6.521  14.022 -0.3526  1.4640  2.0073
 8396TIP3    H246604   0.417   6.374  14.029 -3.7948  0.4083 -0.1554
 8397TIP3   OH246605   6.485   1.562  11.881  0.0328 -0.0994  0.0121
 8397TIP3    H146606   6.548   1.581  11.951 -1.0050 -0.1195  0.9905
 8397TIP3    H246607   6.409   1.526  11.927 -1.0796  0.8379 -1.0112
 8398TIP3   OH246608   2.973   1.866  12.736  0.1634 -0.3278 -0.1010
 8398TIP3    H146609   2.996   1.860  12.829 -0.4928 -1.6040  0.0091
 8398TIP3    H246610   3.014   1.788  12.697 -1.5027 -1.0870 -0.4198
 8399TIP3   OH246611   5.571   2.496   1.005  0.1800 -0.7113 -0.8289
 8399TIP3    H146612   5.518   2.537   0.937  0.0989 -0.2813 -0.5075
 8399TIP3    H246613   5.511   2.433   1.046 -0.1354 -0.1089 -0.3582
 8400TIP3   OH246614   3.504   1.944  12.978  0.1318 -0.7015  0.7165
 8400TIP3    H146615   3.464   1.858  12.977  0.7293 -0.9810  0.0707
 8400TIP3    H246616   3.565   1.943  12.904  1.1847 -0.2272  1.5534
 8401TIP3   OH246617   2.739   4.509   1.062 -0.5102 -0.1486 -0.7475
 8401TIP3    H146618   2.716   4.416   1.052  0.4022 -0.5688  0.6869
 8401TIP3    H246619   2.705   4.551   0.984 -1.9492 -1.5022 -0.8985
 8402TIP3   OH246620   1.980   1.193   4.620  0.0860  0.0468  0.3340
 8402TIP3    H146621   1.935   1.116   4.655 -1.5759  1.5747  1.7852
 8402TIP3    H246622   2.048   1.212   4.685  0.2110  0.0492  0.2020
 8403TIP3   OH246623   1.552   1.390  15.603 -0.3320  0.0980 -0.0699
 8403TIP3    H146624   1.476   1.421  15.552 -0.3193  1.5778  0.7533
 8403TIP3    H246625   1.534   1.420  15.692  0.8709 -0.2099  0.2844
 8404TIP3   OH246626   3.945   3.189   4.378  0.4099  0.3904  0.2956
 8404TIP3    H146627   4.000   3.250   4.329  1.2806  0.7904  1.7443
 8404TIP3    H246628   3.882   3.245   4.424 -1.0569 -0.0375 -1.0716
 8405TIP3   OH246629   1.601   4.287   2.922  0.0592  0.1825  0.2743
 8405TIP3    H146630   1.589   4.193   2.919 -0.3707  0.2219  0.6972
 8405TIP3    H246631   1.692   4.301   2.894  0.5912 -0.4658  1.5857
 8406TIP3   OH246632   5.230   6.077  13.923 -0.5141 -0.2779 -0.5028
 8406TIP3    H146633   5.323   6.059  13.909 -0.7152 -0.8276 -1.1863
 8406TIP3    H246634   5.223   6.172  13.927  0.1070 -0.2417 -0.2010
 8407TIP3   OH246635   5.619   5.086   0.432 -0.1943  0.1731  0.3412
 8407TIP3    H146636   5.621   5.152   0.362 -1.8768  1.3031  1.2990
 8407TIP3    H246637   5.711   5.063   0.445  0.1876 -0.0514 -2.1849
 8408TIP3   OH246638   5.251   0.082   5.055  0.2977  0.0477  0.6935
 8408TIP3    H146639   5.236   0.040   5.139  0.0239 -0.8229  0.2240
 8408TIP3    H246640   5.164   0.091   5.016  0.5554 -1.0260 -0.1769
 8409TIP3   OH246641   3.347   4.199  13.950  0.3131  0.3444  0.1819
 8409TIP3    H146642   3.384   4.286  13.966 -1.7252  1.2473  0.2402
 8409TIP3    H246643   3.258   4.204  13.985 -1.3141 -0.4367 -3.4464
 8410TIP3   OH246644   6.177   1.640  11.793  0.1710 -0.0818 -0.3730
 8410TIP3    H146645   6.104   1.635  11.731 -0.5991  1.2924  0.3825
 8410TIP3    H246646   6.186   1.550  11.825 -0.0220 -0.6322 -1.7515
 8411TIP3   OH246647   2.795   2.382  12.624  0.5073  0.5395 -0.0440
 8411TIP3    H146648   2.832   2.407  12.539  1.3271 -0.0107  0.1349
 8411TIP3    H246649   2.806   2.286  12.627 -2.0544  0.1755 -0.4998
 8412TIP3   OH246650   1.555   1.763   4.374  0.4690  0.3517 -0.3931
 8412TIP3    H146651   1.502   1.801   4.444  0.5279  1.7129 -1.0403
 8412TIP3    H246652   1.530   1.813   4.296  2.9875  1.3820 -0.6415
 8413TIP3   OH246653   1.767   4.682   3.925  0.0561 -0.3263  0.0196
 8413TIP3    H146654   1.681   4.684   3.967 -0.6006  0.5672 -1.2595
 8413TIP3    H246655   1.748   4.658   3.834  1.2758 -0.9955 -0.0746
 8414TIP3   OH246656   3.516   2.369  11.697  0.2351  0.2614  0.0718
 8414TIP3    H146657   3.557   2.454  11.680 -0.9838  0.7627 -0.4912
 8414TIP3    H246658   3.435   2.391  11.743  0.1632 -0.6460  0.3928
 8415TIP3   OH246659   2.780   6.191   6.899 -0.0536 -0.2404 -0.8015
 8415TIP3    H146660   2.800   6.275   6.940  0.9338 -0.8573  0.0404
 8415TIP3    H246661   2.843   6.184   6.826  1.2634 -1.1076  0.3629
 8416TIP3   OH246662   0.129   4.166  13.313 -0.4482 -0.2892 -0.0967
 8416TIP3    H146663   0.171   4.178  13.398  0.7880 -2.3594 -0.3534
 8416TIP3    H246664   0.121   4.255  13.278 -2.0417  0.7538  2.5906
 8417TIP3   OH246665   5.325   0.149   2.384 -0.1518 -0.1205 -0.0348
 8417TIP3    H146666   5.336   0.241   2.363 -0.4330 -0.1244 -0.2115
 8417TIP3    H246667   5.303   0.108   2.301 -2.6867  0.0894  0.4474
 8418TIP3   OH246668   4.255   2.106  16.290  0.2273  0.2436 -0.2664
 8418TIP3    H146669   4.263   2.153  16.208 -1.4956 -0.1506 -0.7101
 8418TIP3    H246670   4.234   2.173  16.355 -1.4316  0.2341 -0.7491
 8419TIP3   OH246671   6.671   1.634   1.429  0.1201  0.5462 -0.0461
 8419TIP3    H146672   6.759   1.629   1.391  0.3956 -0.1264  0.6443
 8419TIP3    H246673   6.670   1.717   1.477  0.3830  0.5582 -0.0621
 8420TIP3   OH246674   0.166   2.872  14.590 -0.2898 -0.0070 -0.1428
 8420TIP3    H146675   0.081   2.881  14.547 -0.8649  0.3160  1.0177
 8420TIP3    H246676   0.183   2.958  14.627  0.4540 -0.1274 -0.1977
 8421TIP3   OH246677   6.692   1.864   5.700 -0.0663 -0.1025 -0.5967
 8421TIP3    H146678   6.640   1.935   5.738 -0.1917 -0.8669  0.7014
 8421TIP3    H246679   6.717   1.809   5.774  2.2509 -0.0204 -1.2301
 8422TIP3   OH246680   3.502   4.857   5.433 -0.0725 -0.0399 -0.8883
 8422TIP3    H146681   3.418   4.812   5.420  1.2201 -2.0843 -3.1440
 8422TIP3    H246682   3.539   4.815   5.511 -0.4061 -0.4085 -0.9211
 8423TIP3   OH246683   0.133   3.316   4.787 -0.2505 -0.1583  0.5131
 8423TIP3    H146684   0.210   3.367   4.761 -0.8776 -0.0317 -1.2519
 8423TIP3    H246685   0.155   3.226   4.765 -0.1037 -0.3061  1.2580
 8424TIP3   OH246686   1.587   2.321  14.730  0.0976 -0.3099  0.0698
 8424TIP3    H146687   1.555   2.395  14.679 -0.0281 -1.2332 -1.2472
 8424TIP3    H246688   1.535   2.323  14.810  0.6824  1.4995  0.4513
 8425TIP3   OH246689   6.646   0.341  13.135 -0.2461  0.1988  0.6130
 8425TIP3    H146690   6.709   0.387  13.080  0.4607 -0.0459  1.1999
 8425TIP3    H246691   6.638   0.254  13.097  1.4153 -0.4923  1.7499
 8426TIP3   OH246692   5.054   2.066   1.032  0.5282  0.1171  0.2038
 8426TIP3    H146693   5.084   2.014   1.106  1.3634 -0.8777 -0.7987
 8426TIP3    H246694   5.102   2.031   0.957 -1.4513 -0.0255 -1.0940
 8427TIP3   OH246695   5.255   1.998   1.534 -0.0171  0.1680 -0.1087
 8427TIP3    H146696   5.166   2.028   1.554  0.9133  1.9909  1.6742
 8427TIP3    H246697   5.257   1.906   1.561 -0.7880  0.6969  1.9213
 8428TIP3   OH246698   2.161   3.523   3.941  0.2989 -0.2067 -0.1154
 8428TIP3    H146699   2.244   3.569   3.946  0.6447 -0.8691  0.3962
 8428TIP3    H246700   2.126   3.545   3.855  0.3048  1.2487  0.2302
 8429TIP3   OH246701   6.582   5.749  10.521 -0.1828 -0.3918 -0.2876
 8429TIP3    H146702   6.616   5.659  10.526  1.9821  0.1333 -2.8016
 8429TIP3    H246703   6.494   5.740  10.485 -0.2961 -1.5189  0.2327
 8430TIP3   OH246704   0.608   3.508  14.340 -0.1135  0.2567  0.0960
 8430TIP3    H146705   0.633   3.443  14.274  1.0209  0.7545  0.0205
 8430TIP3    H246706   0.593   3.456  14.419 -0.8178 -0.2682 -0.3657
 8431TIP3   OH246707   0.888   2.644   4.583  0.4963 -0.0865 -0.1759
 8431TIP3    H146708   0.965   2.591   4.604  1.3129  0.5220 -1.5319
 8431TIP3    H246709   0.866   2.687   4.666  1.9939  0.2194  0.0964
 8432TIP3   OH246710   5.711   3.539   1.456 -0.0756 -0.3152  0.2355
 8432TIP3    H146711   5.661   3.605   1.504  2.2742  2.7197 -1.1380
 8432TIP3    H246712   5.795   3.536   1.501  0.5876 -0.8097 -0.9960
 8433TIP3   OH246713   4.292   6.448  16.716 -0.7513 -0.1626 -0.2073
 8433TIP3    H146714   4.322   6.408  16.635 -0.7744 -0.9940  0.1895
 8433TIP3    H246715   4.329   6.393  16.785 -0.5634  0.6535  0.3531
 8434TIP3   OH246716   5.480   3.928   4.251 -0.5458 -0.1109 -0.1153
 8434TIP3    H146717   5.446   3.864   4.313 -1.1915  1.8914  1.7275
 8434TIP3    H246718   5.404   3.952   4.197  0.0026 -1.8093 -1.7591
 8435TIP3   OH246719   1.161   5.324  16.847  0.6580 -0.3375  0.8689
 8435TIP3    H146720   1.097   5.394  16.856  0.8595 -0.1398  0.7868
 8435TIP3    H246721   1.114   5.253  16.803  0.5480 -0.1240  0.6421
 8436TIP3   OH246722   0.445   6.541   0.256  0.0874  0.2759 -0.0896
 8436TIP3    H146723   0.533   6.509   0.240 -0.5124 -1.0040 -1.0071
 8436TIP3    H246724   0.409   6.480   0.321  0.2477  1.4948  1.2032
 8437TIP3   OH246725   4.337   2.644  12.845 -0.2475 -0.1891  0.2516
 8437TIP3    H146726   4.311   2.736  12.846  0.5152  0.0329  0.4278
 8437TIP3    H246727   4.255   2.596  12.854 -0.8214  0.4299 -1.3469
 8438TIP3   OH246728   1.624   4.389  14.638 -0.6287  0.0463  0.0157
 8438TIP3    H146729   1.654   4.334  14.710 -1.6329 -0.3826  0.1252
 8438TIP3    H246730   1.658   4.476  14.659 -1.5414  0.0954  1.4256
 8439TIP3   OH246731   3.044   5.489   6.068 -0.0614 -0.2857  0.1433
 8439TIP3    H146732   3.052   5.405   6.114  1.0177 -0.6008 -0.5986
 8439TIP3    H246733   3.120   5.492   6.011  0.9187  2.0290  1.4591
 8440TIP3   OH246734   4.425   6.578   5.088  0.2774  0.1805 -0.1684
 8440TIP3    H146735   4.340   6.609   5.119 -0.5063 -1.4855 -0.5676
 8440TIP3    H246736   4.488   6.638   5.128 -0.9122  0.0701  2.0086
 8441TIP3   OH246737   3.972   4.488   3.329  0.2870  0.3041 -0.4339
 8441TIP3    H146738   3.982   4.581   3.307  2.4067  1.1224  3.1671
 8441TIP3    H246739   3.907   4.488   3.400 -0.7334 -1.1840 -1.3367
 8442TIP3   OH246740   2.433   1.871   1.284  0.0903 -0.1103 -0.0710
 8442TIP3    H146741   2.405   1.785   1.317  1.1745 -0.1209  0.8764
 8442TIP3    H246742   2.507   1.852   1.227  0.0286  0.1532 -0.2405
 8443TIP3   OH246743   4.715   3.932   3.655 -0.4500 -0.5163 -0.2350
 8443TIP3    H146744   4.785   3.880   3.617 -0.6714 -0.3901 -0.8283
 8443TIP3    H246745   4.677   3.875   3.722 -0.6111 -1.0794 -0.7927
 8444TIP3   OH246746   5.626   3.321   0.390  0.0009  0.1418  0.7962
 8444TIP3    H146747   5.684   3.263   0.341 -0.3590 -1.5675  2.2987
 8444TIP3    H246748   5.671   3.405   0.391  1.2933 -0.5081 -0.0968
 8445TIP3   OH246749   6.136   4.638  14.415 -0.3631  0.1607  0.0569
 8445TIP3    H146750   6.183   4.720  14.425  1.8006 -0.7272 -1.8704
 8445TIP3    H246751   6.143   4.595  14.500 -4.1978  3.0508  2.1899
 8446TIP3   OH246752   1.498   3.100   2.155  0.1342 -0.2144 -0.6239
 8446TIP3    H146753   1.527   3.170   2.214  0.9236 -0.4660 -0.6993
 8446TIP3    H246754   1.473   3.146   2.075  0.4800 -0.0011 -0.6136
 8447TIP3   OH246755   0.200   6.454   0.872 -0.2196 -0.4528  0.0394
 8447TIP3    H146756   0.114   6.429   0.839  0.8485 -1.7262 -1.9954
 8447TIP3    H246757   0.247   6.371   0.882  0.7595  0.2058  1.2368
 8448TIP3   OH246758   1.472   3.070  16.793  0.4345  0.0182 -0.2279
 8448TIP3    H146759   1.442   2.990  16.836 -0.0809  0.2060 -0.2242
 8448TIP3    H246760   1.423   3.140  16.836 -0.4661  0.1698 -1.4355
 8449TIP3   OH246761   3.520   6.533  13.821  0.1159  0.5035 -0.8543
 8449TIP3    H146762   3.488   6.563  13.737 -0.9397 -0.5043 -0.8381
 8449TIP3    H246763   3.446   6.546  13.881 -0.2259 -1.5497 -0.7479
 8450TIP3   OH246764   1.744   1.155  15.119 -0.6620  0.2556  0.3100
 8450TIP3    H146765   1.697   1.239  15.111 -0.5108  0.3519  0.4317
 8450TIP3    H246766   1.759   1.145  15.213 -0.0886  0.4171  0.2355
 8451TIP3   OH246767   3.740   4.095  13.073 -0.1722  0.4105  0.2651
 8451TIP3    H146768   3.753   4.016  13.127 -2.2545 -0.0922  0.1326
 8451TIP3    H246769   3.820   4.102  13.021  0.3553 -1.2217  0.7884
 8452TIP3   OH246770   2.820   2.135  13.962 -0.4455 -0.6019  0.3814
 8452TIP3    H146771   2.909   2.169  13.968  0.1446 -1.6562 -1.6261
 8452TIP3    H246772   2.784   2.147  14.050  1.8360 -0.5965  1.3795
 8453TIP3   OH246773   4.955   3.165  15.978  0.1089 -0.8021  0.4641
 8453TIP3    H146774   4.897   3.184  15.904  0.1968 -2.0316  0.0521
 8453TIP3    H246775   5.005   3.246  15.990 -1.7815  0.3517  0.9555
 8454TIP3   OH246776   2.404   6.175   5.913  0.2641  0.3715  0.4440
 8454TIP3    H146777   2.331   6.236   5.910  1.2076  1.5112 -0.6512
 8454TIP3    H246778   2.401   6.130   5.829 -0.2393 -0.9202  1.1199
 8455TIP3   OH246779   4.379   4.063   5.041  0.0726 -0.0554 -0.2298
 8455TIP3    H146780   4.453   4.025   5.088  0.8015  1.1750 -0.3313
 8455TIP3    H246781   4.414   4.143   5.001 -1.2345  0.4083 -0.5135
 8456TIP3   OH246782   3.841   0.561  16.388  0.1722  0.0850 -0.1352
 8456TIP3    H146783   3.931   0.537  16.413 -0.0199 -0.4406  0.0598
 8456TIP3    H246784   3.786   0.514  16.451 -0.1792  2.6531  1.6264
 8457TIP3   OH246785   0.027   4.022  11.657  0.0546  0.0832  0.4096
 8457TIP3    H146786   0.111   4.069  11.654 -0.2066  0.5186 -1.4917
 8457TIP3    H246787   0.020   3.990  11.747 -0.2060  4.4966  2.1708
 8458TIP3   OH246788   0.790   2.128   0.433 -0.1821 -0.0022 -0.1258
 8458TIP3    H146789   0.851   2.140   0.359 -0.2603 -0.7130 -0.3083
 8458TIP3    H246790   0.838   2.074   0.495  0.5886  2.0670  1.2066
 8459TIP3   OH246791   0.486   1.722  15.752 -0.6765  0.1102  0.1235
 8459TIP3    H146792   0.467   1.630  15.732 -0.6195  0.1898 -0.2929
 8459TIP3    H246793   0.428   1.772  15.695 -0.2131  0.3403 -0.1525
 8460TIP3   OH246794   1.912   1.988  15.617 -0.4443 -0.2343 -0.1700
 8460TIP3    H146795   1.858   2.035  15.680 -0.7187  0.1456 -0.6761
 8460TIP3    H246796   2.001   2.021  15.630 -0.4030 -0.5703  0.3974
 8461TIP3   OH246797   4.379   1.952   1.086 -0.2071 -0.4302 -0.1230
 8461TIP3    H146798   4.439   1.928   1.157  1.2135  1.0591 -0.7614
 8461TIP3    H246799   4.401   1.893   1.015  1.5377  0.9659 -0.8260
 8462TIP3   OH246800   4.399   2.018   1.804  0.4945 -0.4389 -0.4654
 8462TIP3    H146801   4.482   2.005   1.850  1.1779 -2.4064 -2.0967
 8462TIP3    H246802   4.405   2.106   1.767  0.5272  0.6233  1.8749
 8463TIP3   OH246803   3.071   0.209   1.395 -0.1876 -0.0169  0.0584
 8463TIP3    H146804   3.030   0.268   1.332 -0.5674  0.2967  0.5866
 8463TIP3    H246805   3.164   0.231   1.392 -0.1252 -0.3760 -0.7770
 8464TIP3   OH246806   2.624   2.823  10.711  0.2402  0.4764  0.1885
 8464TIP3    H146807   2.568   2.832  10.634  0.9667  0.7125 -0.3201
 8464TIP3    H246808   2.563   2.812  10.784 -0.4428 -0.7528 -0.5349
 8465TIP3   OH246809   2.576   2.389   1.348 -0.1046  0.3692 -0.0496
 8465TIP3    H146810   2.556   2.299   1.373 -0.4836  0.0847 -1.3070
 8465TIP3    H246811   2.670   2.399   1.366  0.1684 -0.6153 -0.8573
 8466TIP3   OH246812   4.974   3.294  15.671  0.0482  0.3103  0.3512
 8466TIP3    H146813   4.937   3.379  15.692 -1.7392 -0.3534  0.0555
 8466TIP3    H246814   4.923   3.263  15.596  0.5835 -1.0831  0.5335
 8467TIP3   OH246815   3.656   1.937   0.229  0.3306 -0.2518 -0.3270
 8467TIP3    H146816   3.647   1.891   0.146  1.6732 -1.6104  0.2171
 8467TIP3    H246817   3.631   1.872   0.295 -0.7626  0.8152  0.3599
 8468TIP3   OH246818   1.589   3.483   1.979 -0.2831 -0.1927  0.8270
 8468TIP3    H146819   1.501   3.465   1.945 -0.3782 -0.1747  1.0596
 8468TIP3    H246820   1.590   3.442   2.066 -0.4580  0.7792  1.3029
 8469TIP3   OH246821   6.343   5.834   4.160  0.4726  0.1476  0.0510
 8469TIP3    H146822   6.399   5.783   4.219  2.5502  0.2051 -1.7486
 8469TIP3    H246823   6.260   5.842   4.207  1.3730 -1.4808  2.0865
 8470TIP3   OH246824   2.523   4.339   1.642 -0.2353  1.4757 -0.1628
 8470TIP3    H146825   2.496   4.343   1.550 -3.3914 -0.5703  0.5017
 8470TIP3    H246826   2.564   4.254   1.652  0.7478  1.9750  0.2419
 8471TIP3   OH246827   4.543   1.554   3.949  0.5704  0.0961 -0.2486
 8471TIP3    H146828   4.485   1.508   3.887  1.1001 -2.1975  0.8380
 8471TIP3    H246829   4.510   1.644   3.950 -2.3667 -0.8493 -0.4258
 8472TIP3   OH246830   0.607   4.503   5.990 -0.5359  0.0358  0.3409
 8472TIP3    H146831   0.523   4.519   6.032 -0.0971  1.3966  0.7709
 8472TIP3    H246832   0.667   4.485   6.063 -0.2875 -0.0903  0.1061
 8473TIP3   OH246833   2.974   3.532  10.690  0.2462 -0.0826 -0.7140
 8473TIP3    H146834   2.922   3.514  10.768 -0.6158  1.6978 -0.8456
 8473TIP3    H246835   3.058   3.562  10.723 -0.3258  1.2676 -0.4332
 8474TIP3   OH246836   0.143   3.823  15.033 -0.2544  0.7291 -0.2588
 8474TIP3    H146837   0.208   3.854  15.096  2.3535  0.7804 -2.8032
 8474TIP3    H246838   0.189   3.758  14.981 -1.9763  1.3454 -2.7092
 8475TIP3   OH246839   0.956   1.199  15.293  0.0737 -0.2893 -0.0226
 8475TIP3    H146840   0.963   1.104  15.282 -2.2274 -0.4618 -0.5245
 8475TIP3    H246841   0.958   1.212  15.388 -1.0768 -1.0298  0.1307
 8476TIP3   OH246842   2.689   5.692  11.040  0.6744 -0.6134 -0.7103
 8476TIP3    H146843   2.734   5.776  11.038 -0.4007 -0.0056 -0.2420
 8476TIP3    H246844   2.726   5.646  11.115 -1.7602  1.2400  1.8185
 8477TIP3   OH246845   3.034   1.931  15.780 -0.1810  0.6238 -0.4829
 8477TIP3    H146846   3.032   1.843  15.818 -0.8000  0.8481  0.0223
 8477TIP3    H246847   3.113   1.971  15.816  0.0547  0.3039 -0.6442
 8478TIP3   OH246848   1.076   3.485  12.898  0.1028  0.2276  0.0892
 8478TIP3    H146849   1.074   3.579  12.919 -0.1445  0.1907  0.2446
 8478TIP3    H246850   1.153   3.474  12.843  0.3410  0.4586  0.3736
 8479TIP3   OH246851   5.212   3.946  11.996  0.2010  0.5263  0.4706
 8479TIP3    H146852   5.249   3.948  11.908  0.8276  0.2801  0.7184
 8479TIP3    H246853   5.175   3.858  12.004  0.1478  0.5471  0.4548
 8480TIP3   OH246854   1.853   0.791  11.706 -0.1225  0.7304 -0.1959
 8480TIP3    H146855   1.772   0.800  11.655 -0.6254 -2.3071 -0.1297
 8480TIP3    H246856   1.903   0.725  11.659 -0.1683 -1.4666  2.6069
 8481TIP3   OH246857   0.994   4.587   4.926  0.4945 -0.0419  0.6103
 8481TIP3    H146858   0.989   4.683   4.930  0.6503 -0.0366  0.6755
 8481TIP3    H246859   1.087   4.568   4.918  0.3739 -0.1367 -0.8205
 8482TIP3   OH246860   3.187   2.534  15.618  0.3908 -0.0014  0.7527
 8482TIP3    H146861   3.161   2.601  15.555 -0.3586 -0.4748  0.5450
 8482TIP3    H246862   3.266   2.495  15.580  0.8112  0.7361  0.8621
 8483TIP3   OH246863   4.287   3.082   3.107 -0.2863  0.3179  0.4750
 8483TIP3    H146864   4.229   3.150   3.141  0.2415  0.4445  1.1538
 8483TIP3    H246865   4.313   3.033   3.185  0.1157 -0.0483  0.1099
 8484TIP3   OH246866   0.258   5.556   3.358 -0.4005 -0.6208 -0.4116
 8484TIP3    H146867   0.242   5.640   3.317 -0.7413 -0.0760  0.8039
 8484TIP3    H246868   0.322   5.574   3.426  0.0892 -1.4914 -0.6161
 8485TIP3   OH246869   1.840   0.329   3.239  0.2318  0.2823 -0.3158
 8485TIP3    H146870   1.781   0.405   3.238 -0.1677 -0.0213  0.0775
 8485TIP3    H246871   1.908   0.354   3.303 -1.1293 -0.5916  1.5768
 8486TIP3   OH246872   0.506   1.882  14.617  0.0421 -0.1133 -0.8584
 8486TIP3    H146873   0.499   1.977  14.609  0.2111  0.0264  0.4173
 8486TIP3    H246874   0.599   1.864  14.599  0.1003  0.0067 -0.6794
 8487TIP3   OH246875   1.780   3.346   4.759  0.3707 -0.0450  0.3497
 8487TIP3    H146876   1.720   3.313   4.691 -0.6622  1.8495  0.2539
 8487TIP3    H246877   1.825   3.268   4.792 -0.0297 -1.1797 -1.6166
 8488TIP3   OH246878   4.336   6.748  16.112 -0.6882 -0.4458  0.4140
 8488TIP3    H146879   4.351   6.819  16.174 -0.0404 -0.5585  0.3922
 8488TIP3    H246880   4.293   6.789  16.037 -0.3006 -0.0729  0.3941
 8489TIP3   OH246881   0.622   3.185   0.871 -0.2409  0.0210 -0.5958
 8489TIP3    H146882   0.703   3.168   0.918  1.0428  0.8627 -2.3736
 8489TIP3    H246883   0.562   3.117   0.900  2.9332 -4.6561 -3.5720
 8490TIP3   OH246884   6.671   4.405   5.920  0.6646  0.2953  0.5769
 8490TIP3    H146885   6.620   4.452   5.854 -0.4901 -1.2293  0.3416
 8490TIP3    H246886   6.762   4.413   5.890  0.2352  0.2579 -0.8166
 8491TIP3   OH246887   5.324   2.414   0.454 -0.3814  0.0134 -0.5008
 8491TIP3    H146888   5.397   2.369   0.411 -0.5706  0.2927 -1.1202
 8491TIP3    H246889   5.329   2.385   0.545  0.4853  0.0082 -0.5416
 8492TIP3   OH246890   1.630   0.694  17.102 -0.3003 -0.2619 -0.1606
 8492TIP3    H146891   1.539   0.726  17.107  0.0575  0.7046  0.5337
 8492TIP3    H246892   1.643   0.647  17.184 -0.5613 -1.5564 -0.8278
 8493TIP3   OH246893   0.374   3.010   5.009  0.0348  0.2329  0.3889
 8493TIP3    H146894   0.433   2.940   5.035 -0.4620  0.0713  1.1184
 8493TIP3    H246895   0.414   3.089   5.045 -1.3906 -0.1527  3.0474
 8494TIP3   OH246896   2.606   3.962   4.022 -0.4867  0.5047 -0.3068
 8494TIP3    H146897   2.610   3.883   3.967 -1.8214 -0.1522  0.4772
 8494TIP3    H246898   2.512   3.976   4.035 -0.2746  2.3741 -0.5961
 8495TIP3   OH246899   5.634   2.514   2.470 -0.0154 -0.0285 -0.5561
 8495TIP3    H146900   5.556   2.536   2.521 -0.8082  0.1689 -1.8114
 8495TIP3    H246901   5.701   2.575   2.500 -0.3246 -0.2342  0.5786
 8496TIP3   OH246902   5.572   4.596  11.001  0.4112  0.7385  0.7034
 8496TIP3    H146903   5.561   4.606  10.907 -2.6743  4.1694  1.1967
 8496TIP3    H246904   5.514   4.523  11.024  0.5532  0.4202  0.0786
 8497TIP3   OH246905   2.952   0.028  17.064  0.4586  0.1259 -0.0087
 8497TIP3    H146906   2.876  -0.008  17.110 -0.2503  1.9193  0.3127
 8497TIP3    H246907   3.007  -0.048  17.046 -0.4382 -0.9638  1.5634
 8498TIP3   OH246908   3.138   5.848   2.694  0.2335 -0.2773  0.2689
 8498TIP3    H146909   3.225   5.866   2.731  0.2118 -0.3088  0.3347
 8498TIP3    H246910   3.082   5.835   2.770  0.1954 -0.3702  0.2246
 8499TIP3   OH246911   2.037   4.100   5.308 -0.6049 -0.0476  0.1666
 8499TIP3    H146912   1.990   4.171   5.263 -1.6183 -0.0397  1.2041
 8499TIP3    H246913   2.052   4.133   5.396 -0.8579 -1.0148  0.5865
 8500TIP3   OH246914   2.608   6.401   3.655 -0.2294 -0.1752  0.4291
 8500TIP3    H146915   2.615   6.488   3.694  1.0289 -0.3564  0.6362
 8500TIP3    H246916   2.541   6.410   3.588  1.1097  1.4197 -0.7727
 8501TIP3   OH246917   2.232   5.803   2.880  0.1805 -0.2964 -0.0301
 8501TIP3    H146918   2.293   5.835   2.947 -0.5051 -0.1509  0.5368
 8501TIP3    H246919   2.199   5.883   2.838 -0.4246 -0.3186  0.3933
 8502TIP3   OH246920   4.944   4.330   1.508  0.1382 -0.1943 -0.2155
 8502TIP3    H146921   5.036   4.357   1.509  0.6212 -1.7630  0.4911
 8502TIP3    H246922   4.921   4.324   1.415  0.5831  0.6805 -0.3942
 8503TIP3   OH246923   1.133   6.048   6.141 -0.3130 -0.6538  0.2782
 8503TIP3    H146924   1.153   6.114   6.208  1.0473 -2.2807  1.5659
 8503TIP3    H246925   1.111   5.969   6.191 -2.0094 -1.1904 -1.2191
 8504TIP3   OH246926   6.069   0.933   5.610 -0.3932  0.6180  0.1854
 8504TIP3    H146927   6.143   0.959   5.556 -1.2307  0.2254 -1.1890
 8504TIP3    H246928   6.060   1.003   5.674  1.5061  0.3976  0.7528
 8505TIP3   OH246929   3.331   2.264   3.215  0.0885  0.1563 -0.2671
 8505TIP3    H146930   3.379   2.196   3.263 -0.4914 -0.4922 -0.5868
 8505TIP3    H246931   3.282   2.310   3.283  0.0656 -0.0954 -0.1117
 8506TIP3   OH246932   3.027   3.189   4.172  0.3036  0.1187 -0.1616
 8506TIP3    H146933   2.944   3.184   4.221  0.2556  1.0403 -0.1319
 8506TIP3    H246934   3.041   3.100   4.141 -1.4786  0.2228 -1.4535
 8507TIP3   OH246935   0.785   5.246  10.856 -0.4568  0.3187  0.4059
 8507TIP3    H146936   0.765   5.169  10.803 -1.2367 -0.0654  1.2349
 8507TIP3    H246937   0.713   5.307  10.838 -0.6865  0.2149  0.9622
 8508TIP3   OH246938   0.288   2.663  11.322  0.0682 -0.1611  0.3180
 8508TIP3    H146939   0.246   2.749  11.321  1.2022  0.4299  1.0217
 8508TIP3    H246940   0.245   2.614  11.252 -1.6154  0.4775  0.8519
 8509TIP3   OH246941   5.597   1.944  12.346 -0.0964  0.0760  0.2090
 8509TIP3    H146942   5.533   1.876  12.323  1.0165 -0.3814 -1.8190
 8509TIP3    H246943   5.662   1.939  12.276  0.2648  2.9472  0.2421
 8510TIP3   OH246944   3.563   6.615   5.726 -0.0008 -0.1855  1.0294
 8510TIP3    H146945   3.655   6.604   5.700 -0.1810  0.5602  0.0343
 8510TIP3    H246946   3.565   6.687   5.789 -0.0776  0.9783 -0.2452
 8511TIP3   OH246947   2.375   4.683  16.251  0.5108 -0.8012 -0.0406
 8511TIP3    H146948   2.471   4.683  16.257  0.5311  1.1998  0.3692
 8511TIP3    H246949   2.355   4.762  16.200 -0.9548 -0.5132  0.9400
 8512TIP3   OH246950   5.220   6.705  12.805 -0.2152 -0.6708  0.0127
 8512TIP3    H146951   5.156   6.674  12.741  0.1623 -2.0100  0.2531
 8512TIP3    H246952   5.264   6.625  12.835 -1.4752 -0.2809  3.1608
 8513TIP3   OH246953   5.547   6.120   5.319 -0.3610 -0.3111  0.5801
 8513TIP3    H146954   5.539   6.179   5.244 -3.5585  0.2478  1.2440
 8513TIP3    H246955   5.640   6.126   5.344  0.7232 -0.1237 -2.9203
 8514TIP3   OH246956   4.207   0.720  13.529  0.3546 -0.3383  0.7851
 8514TIP3    H146957   4.255   0.672  13.596 -0.0755  2.1987  3.0826
 8514TIP3    H246958   4.161   0.789  13.576  0.4289  1.9504 -2.1478
 8515TIP3   OH246959   0.876   6.455   0.462 -0.1629 -0.4440 -0.5901
 8515TIP3    H146960   0.852   6.364   0.448  1.9783 -0.8841 -1.8266
 8515TIP3    H246961   0.835   6.478   0.545 -2.8762 -1.6990 -1.4554
 8516TIP3   OH246962   3.008   4.298  11.268  0.3575  0.5096  0.3044
 8516TIP3    H146963   3.083   4.348  11.235  2.3809 -2.3033  0.3104
 8516TIP3    H246964   3.043   4.211  11.287 -3.3415 -1.7782 -1.9417
 8517TIP3   OH246965   3.214   2.002  12.428  0.4810 -0.2407  0.3399
 8517TIP3    H146966   3.240   2.010  12.520  0.5244  1.3054  0.2285
 8517TIP3    H246967   3.159   1.924  12.425 -0.2004  0.1459  1.8392
 8518TIP3   OH246968   4.792   0.409  15.174  0.0348 -0.0743 -0.5292
 8518TIP3    H146969   4.884   0.431  15.191 -0.1645  0.0891  0.3574
 8518TIP3    H246970   4.743   0.454  15.243 -0.8582  1.0948 -1.8702
 8519TIP3   OH246971   1.509   2.321   4.579  0.0508 -0.2672  0.0943
 8519TIP3    H146972   1.514   2.259   4.651 -2.5358 -0.9730 -0.2162
 8519TIP3    H246973   1.511   2.407   4.620  0.3246 -0.6204  0.8345
 8520TIP3   OH246974   6.453   2.525   5.669 -0.0004 -0.2163  0.3408
 8520TIP3    H146975   6.459   2.449   5.612  0.2442  0.9023 -1.1996
 8520TIP3    H246976   6.543   2.542   5.697  0.3618  0.9267 -1.3408
 8521TIP3   OH246977   6.064   2.832   3.382 -0.2934 -0.1173 -0.2401
 8521TIP3    H146978   6.148   2.793   3.356 -0.3032  1.2656 -2.6526
 8521TIP3    H246979   6.031   2.774   3.450  2.3480 -1.0280  0.3878
 8522TIP3   OH246980   6.217   1.806  14.218 -0.2651  0.1238  0.3227
 8522TIP3    H146981   6.147   1.743  14.207  0.5563 -1.1025  1.6772
 8522TIP3    H246982   6.297   1.756  14.207  0.4218  1.2538 -0.0499
 8523TIP3   OH246983   2.606   1.342  13.610  0.2219 -0.5034  0.2629
 8523TIP3    H146984   2.537   1.285  13.578 -0.9988  1.2158 -0.2943
 8523TIP3    H246985   2.571   1.379  13.691  0.1720  0.9316 -0.4003
 8524TIP3   OH246986   5.828   0.814   5.677 -0.7498 -0.4604  0.3091
 8524TIP3    H146987   5.777   0.889   5.707  2.3492  1.2977  1.5843
 8524TIP3    H246988   5.907   0.851   5.639 -0.1614 -3.0468 -1.2916
 8525TIP3   OH246989   2.093   5.467  16.731  0.5933  0.1855  0.4311
 8525TIP3    H146990   2.017   5.430  16.687  0.6318  0.8826 -0.2276
 8525TIP3    H246991   2.117   5.400  16.795  0.2719 -0.6508 -0.2926
 8526TIP3   OH246992   1.724   6.091   5.066 -0.4959 -0.6773 -0.1659
 8526TIP3    H146993   1.786   6.029   5.103  1.0020  0.5006 -0.6099
 8526TIP3    H246994   1.744   6.092   4.972 -1.0554 -0.1215 -0.2868
 8527TIP3   OH246995   0.301   3.772  12.961 -0.5560  0.2505 -0.1956
 8527TIP3    H146996   0.315   3.837  12.892  0.2617  1.0223  0.6685
 8527TIP3    H246997   0.251   3.819  13.028  0.3879  0.1272  0.6192
 8528TIP3   OH246998   4.819   3.521   4.903 -0.7558 -0.4216  0.0103
 8528TIP3    H146999   4.827   3.451   4.838 -0.0730  1.5391 -2.1646
 8528TIP3    H247000   4.806   3.600   4.851  0.7944  1.4168  2.2225
 8529TIP3   OH247001   4.334   4.390  16.965  0.4522 -0.0485 -0.0898
 8529TIP3    H147002   4.278   4.431  17.030  1.2661  0.6788  0.1767
 8529TIP3    H247003   4.407   4.354  17.015  0.3075 -0.8468 -0.4425
 8530TIP3   OH247004   2.476   5.377  16.630  0.3879  0.3248  0.0681
 8530TIP3    H147005   2.474   5.367  16.725 -2.0802  0.8080  0.1297
 8530TIP3    H247006   2.527   5.303  16.599  1.4616  0.2955  1.7589
 8531TIP3   OH247007   2.412   6.646   2.441  0.4306  0.3543  0.0011
 8531TIP3    H147008   2.381   6.690   2.520  0.6482 -1.9952  1.4659
 8531TIP3    H247009   2.337   6.596   2.410  0.4899  0.8875 -1.0570
 8532TIP3   OH247010   1.478   1.816   4.069 -0.4938 -0.2492  0.6610
 8532TIP3    H147011   1.570   1.813   4.042 -0.3203 -0.8469  1.3005
 8532TIP3    H247012   1.436   1.871   4.003 -0.0102 -1.3630 -0.6202
 8533TIP3   OH247013   6.513   2.049  16.053 -0.4619  0.5713 -0.0578
 8533TIP3    H147014   6.542   1.991  16.124  0.3104  1.0496  0.0233
 8533TIP3    H247015   6.480   1.989  15.986 -3.5142  0.1444  1.6134
 8534TIP3   OH247016   0.303   1.282   4.796  0.1738  0.1312  0.2105
 8534TIP3    H147017   0.221   1.255   4.757  0.4445  0.7291 -0.8146
 8534TIP3    H247018   0.358   1.204   4.795 -1.0406 -0.8685  2.8586
 8535TIP3   OH247019   4.503   4.028  12.196  0.0334 -0.2599 -0.1291
 8535TIP3    H147020   4.455   4.081  12.260 -0.3202 -0.7692  0.0336
 8535TIP3    H247021   4.460   4.046  12.112 -0.1104 -0.3177 -0.0686
 8536TIP3   OH247022   3.282   0.559  13.331 -0.0001  0.1742 -0.1532
 8536TIP3    H147023   3.269   0.508  13.251 -2.4659 -0.4603  0.5516
 8536TIP3    H247024   3.239   0.507  13.399  1.9933  0.7049  1.6158
 8537TIP3   OH247025   1.940   0.178   1.994 -0.0521  0.4730 -0.7415
 8537TIP3    H147026   2.005   0.206   2.058  0.2178 -0.3909 -0.6297
 8537TIP3    H247027   1.864   0.151   2.046 -0.3260  1.0059 -0.8518
 8538TIP3   OH247028   3.536   4.560  14.754  0.0452  1.0448  0.1508
 8538TIP3    H147029   3.552   4.604  14.838  1.0252  0.5630  0.2236
 8538TIP3    H247030   3.459   4.605  14.718  1.7517  3.7465 -0.4007
 8539TIP3   OH247031   2.318   2.103   2.970  0.5627  0.4454  0.7452
 8539TIP3    H147032   2.400   2.153   2.973  0.7928  0.3803 -1.8914
 8539TIP3    H247033   2.263   2.151   2.908 -0.4623 -0.8193  0.6333
 8540TIP3   OH247034   2.397   4.287   4.808 -0.1487 -0.2587 -0.2657
 8540TIP3    H147035   2.436   4.294   4.720  2.1183  0.3021  0.7111
 8540TIP3    H247036   2.385   4.193   4.821  0.8597 -0.4555 -0.6421
 8541TIP3   OH247037   0.102   2.859   3.574 -0.1547  0.0006  0.1401
 8541TIP3    H147038   0.127   2.814   3.655  0.2961 -0.4606 -0.2490
 8541TIP3    H247039   0.124   2.797   3.504 -3.8218 -1.1589 -0.1914
 8542TIP3   OH247040   6.254   1.932   2.700 -0.3679 -0.1721  0.0379
 8542TIP3    H147041   6.273   1.845   2.665  1.3665  0.3798 -0.5176
 8542TIP3    H247042   6.160   1.930   2.720 -0.0205 -2.7938  1.9311
 8543TIP3   OH247043   3.763   1.835  10.850  0.2273 -0.0615 -0.5695
 8543TIP3    H147044   3.696   1.876  10.795 -1.5361 -0.5208  1.1412
 8543TIP3    H247045   3.769   1.745  10.817 -2.1983 -0.9009  1.0767
 8544TIP3   OH247046   6.312   3.113  15.800 -0.4369  0.5728 -0.5297
 8544TIP3    H147047   6.339   3.022  15.808 -0.9385  0.2290 -2.2940
 8544TIP3    H247048   6.252   3.127  15.872 -0.0997 -0.3946 -0.0433
 8545TIP3   OH247049   0.035   3.936   0.737 -0.4613 -0.3005 -0.0451
 8545TIP3    H147050  -0.048   3.935   0.690 -0.8804  1.4010  0.6018
 8545TIP3    H247051   0.023   3.874   0.809 -0.7866 -0.8494 -0.5661
 8546TIP3   OH247052   0.330   5.529  16.312  0.0927 -0.3457 -0.3284
 8546TIP3    H147053   0.316   5.515  16.406  0.2145 -0.3732 -0.3126
 8546TIP3    H247054   0.260   5.589  16.286  0.5856  0.3806 -0.0307
 8547TIP3   OH247055   5.339   1.559  13.739 -0.2851  0.8004 -0.5628
 8547TIP3    H147056   5.326   1.514  13.823  0.9630  0.7533 -0.3709
 8547TIP3    H247057   5.359   1.650  13.764 -0.4434  0.9132 -0.8417
 8548TIP3   OH247058   3.103   6.416  15.399  0.4419 -0.2905 -0.3683
 8548TIP3    H147059   3.112   6.336  15.451  1.1070  2.6441  4.7549
 8548TIP3    H247060   3.193   6.441  15.378  0.1913 -1.3802 -3.2523
 8549TIP3   OH247061   5.926   5.628  15.546  0.0924  0.1021 -0.1890
 8549TIP3    H147062   5.860   5.591  15.606  0.2208  0.5834  0.2603
 8549TIP3    H247063   5.995   5.562  15.544 -0.1503 -0.1568 -0.2213
 8550TIP3   OH247064   0.921   2.774   3.492 -0.0553 -0.2376  0.0231
 8550TIP3    H147065   0.853   2.784   3.425 -0.0047 -1.3365 -0.2115
 8550TIP3    H247066   0.972   2.854   3.486 -0.6459  0.1037 -0.5822
 8551TIP3   OH247067   4.498   6.736   0.457 -0.3389  0.1037  0.1929
 8551TIP3    H147068   4.467   6.814   0.412  0.1850 -1.3868 -2.9831
 8551TIP3    H247069   4.581   6.764   0.498 -1.8965  2.0644  2.3013
 8552TIP3   OH247070   5.493   1.776   3.504 -0.3984 -0.7310  0.1426
 8552TIP3    H147071   5.402   1.791   3.477 -0.1848 -0.2492 -0.3199
 8552TIP3    H247072   5.539   1.855   3.476  0.3819 -1.4444 -0.6082
 8553TIP3   OH247073   1.015   1.610  17.198  0.2561  0.1523  0.3569
 8553TIP3    H147074   1.001   1.585  17.106 -0.0406 -0.8398  0.6661
 8553TIP3    H247075   1.109   1.631  17.203  1.2515 -3.6450  0.6762
 8554TIP3   OH247076   1.712   1.971   4.546  0.4414  0.3094 -0.3714
 8554TIP3    H147077   1.671   2.030   4.609 -0.8782 -1.1354  0.1904
 8554TIP3    H247078   1.681   1.884   4.570  1.3496 -0.5012 -1.9150
 8555TIP3   OH247079   1.943   0.659  15.786  0.8015  0.3061 -0.2648
 8555TIP3    H147080   1.855   0.684  15.815  1.2712 -0.3478  1.9234
 8555TIP3    H247081   1.995   0.739  15.796  0.8726  0.1864  0.3584
 8556TIP3   OH247082   1.608   6.097  13.999 -0.3099  0.0928  0.1587
 8556TIP3    H147083   1.629   6.018  14.049 -1.4465 -0.0768  0.4069
 8556TIP3    H247084   1.516   6.114  14.019 -0.2698  1.0954 -0.4281
 8557TIP3   OH247085   2.038   2.932   5.325 -0.3427 -0.7562  0.5555
 8557TIP3    H147086   1.985   2.858   5.355 -0.8588 -0.5926  0.0671
 8557TIP3    H247087   2.020   3.002   5.388 -0.1165 -0.9391  0.8241
 8558TIP3   OH247088   2.722   4.376  10.942 -0.3331  0.7595  0.6429
 8558TIP3    H147089   2.800   4.389  10.996  0.1915 -0.3253  0.1608
 8558TIP3    H247090   2.746   4.408  10.856 -0.4180  0.4096  0.4878
 8559TIP3   OH247091   2.907   0.295   2.438 -0.1038 -0.2464 -0.3110
 8559TIP3    H147092   2.943   0.207   2.451 -2.8224 -1.5047 -0.5941
 8559TIP3    H247093   2.882   0.324   2.526 -1.6187 -0.9466 -0.4697
 8560TIP3   OH247094   4.518   6.369   0.437  0.6347  0.3063 -0.3432
 8560TIP3    H147095   4.531   6.402   0.526  1.2008  1.9944 -1.0126
 8560TIP3    H247096   4.431   6.330   0.438  0.2740  1.1020  0.7338
 8561TIP3   OH247097   5.579   4.538   0.407 -0.6240 -0.3206 -0.2792
 8561TIP3    H147098   5.501   4.527   0.461 -0.3452 -1.0138 -0.0099
 8561TIP3    H247099   5.602   4.450   0.379 -0.4685 -0.0238 -1.1215
 8562TIP3   OH247100   1.146   4.417  14.853  1.3246 -0.2218  0.3808
 8562TIP3    H147101   1.163   4.511  14.845 -1.0329  0.1828 -0.8192
 8562TIP3    H247102   1.174   4.380  14.769 -0.0427 -0.1380 -0.1418
 8563TIP3   OH247103   5.470   0.209  13.821  0.1972 -0.1428  0.2300
 8563TIP3    H147104   5.565   0.215  13.831  0.0989  2.1255  0.3176
 8563TIP3    H247105   5.457   0.146  13.750  1.7722 -0.1595 -0.0720
 8564TIP3   OH247106   2.359   1.290  12.571 -0.2572  0.0743 -0.0100
 8564TIP3    H147107   2.270   1.324  12.571 -0.1618  0.3300 -0.0686
 8564TIP3    H247108   2.414   1.366  12.550  0.0790  0.2012  1.2369
 8565TIP3   OH247109   5.485   0.352   2.052 -0.1875  0.9584  0.0500
 8565TIP3    H147110   5.477   0.357   1.957 -1.4309  1.3628  0.1552
 8565TIP3    H247111   5.576   0.328   2.068 -0.2671 -0.3421 -1.2871
 8566TIP3   OH247112   1.492   1.236   5.332  0.4341  0.6830  0.6825
 8566TIP3    H147113   1.572   1.276   5.367  1.6002  0.3186 -1.3702
 8566TIP3    H247114   1.518   1.146   5.312 -0.2740  0.7604 -0.6817
 8567TIP3   OH247115   2.816   3.734   2.148  0.3878 -0.0935  0.3393
 8567TIP3    H147116   2.765   3.693   2.218  0.2057 -0.5408 -0.0552
 8567TIP3    H247117   2.771   3.710   2.067  1.4272 -0.8004 -0.0436
 8568TIP3   OH247118   2.613   1.086  16.589  0.2204  0.1890 -0.2369
 8568TIP3    H147119   2.696   1.048  16.558  0.8358  0.0757  1.4680
 8568TIP3    H247120   2.639   1.145  16.660 -1.1246  0.6134 -0.0774
 8569TIP3   OH247121   5.735   5.975  14.478  0.1450  0.0291 -0.1219
 8569TIP3    H147122   5.758   6.051  14.424  1.8513  0.3715  1.0089
 8569TIP3    H247123   5.727   5.902  14.416 -0.3963  0.8802 -1.0887
 8570TIP3   OH247124   6.411   3.682  14.568 -0.5939 -0.0095  0.7118
 8570TIP3    H147125   6.317   3.679  14.588 -0.5540  2.2465  1.4948
 8570TIP3    H247126   6.444   3.756  14.619  1.1480  0.7604 -1.4042
 8571TIP3   OH247127   5.694   6.516   2.975  0.1584 -0.2185  0.3099
 8571TIP3    H147128   5.614   6.537   3.023 -0.3457 -0.6720 -0.3117
 8571TIP3    H247129   5.764   6.556   3.026 -0.5578  1.0646  0.3296
 8572TIP3   OH247130   5.726   0.056   5.271  0.2377 -0.0363 -0.1064
 8572TIP3    H147131   5.708   0.026   5.360 -0.3989  1.4667  0.3198
 8572TIP3    H247132   5.817   0.088   5.274  0.4287 -0.5747 -0.1695
 8573TIP3   OH247133   3.477   6.008   5.581 -0.0879 -0.2512  0.0605
 8573TIP3    H147134   3.410   6.075   5.563  0.9010  0.2376 -2.2510
 8573TIP3    H247135   3.541   6.052   5.637 -1.0707 -0.3622  1.3185
 8574TIP3   OH247136   4.099   2.857   3.403  0.0216  0.2599  0.3219
 8574TIP3    H147137   4.054   2.924   3.351  1.0940 -1.1654 -2.7238
 8574TIP3    H247138   4.035   2.831   3.469 -0.6952  3.6769  1.1522
 8575TIP3   OH247139   1.658   4.852  16.488  0.3353 -0.0269 -0.6227
 8575TIP3    H147140   1.594   4.887  16.550  0.1106 -0.6422 -0.4993
 8575TIP3    H247141   1.718   4.800  16.541  0.7606  0.3035 -0.7792
 8576TIP3   OH247142   3.606   2.937  16.802 -0.3428  0.3623 -0.0692
 8576TIP3    H147143   3.689   2.965  16.764  0.0272  0.2859  0.6683
 8576TIP3    H247144   3.555   2.905  16.727  0.5640 -0.2583 -0.4350
 8577TIP3   OH247145   6.579   1.151  16.943 -0.3827  0.4080 -0.2099
 8577TIP3    H147146   6.598   1.129  17.035 -2.1901 -0.2548  0.0545
 8577TIP3    H247147   6.615   1.077  16.893 -1.0688 -0.1723  0.1437
 8578TIP3   OH247148   4.474   0.397  10.777  0.3077  0.1367 -0.2919
 8578TIP3    H147149   4.418   0.365  10.706 -0.4694  1.1461 -0.1462
 8578TIP3    H247150   4.441   0.353  10.855 -1.8720  2.4265  0.2064
 8579TIP3   OH247151   0.772   6.109   2.932  0.1049 -0.3428  0.1114
 8579TIP3    H147152   0.820   6.180   2.889 -1.1395  1.9398  2.2014
 8579TIP3    H247153   0.680   6.126   2.911 -0.1436 -2.4073 -0.7236
 8580TIP3   OH247154   1.663   6.284   1.793 -0.1613  0.0488  0.2927
 8580TIP3    H147155   1.691   6.208   1.844 -0.9388 -1.6289 -1.5881
 8580TIP3    H247156   1.569   6.290   1.811 -0.5355 -0.8388 -1.1546
 8581TIP3   OH247157   1.687   4.616   1.285 -0.2430 -0.3100  0.2956
 8581TIP3    H147158   1.725   4.602   1.198  1.2462  2.5507  0.3593
 8581TIP3    H247159   1.600   4.652   1.268 -0.0933 -0.0950 -0.0382
 8582TIP3   OH247160   4.040   2.100  10.572  0.3971  0.8918 -0.4546
 8582TIP3    H147161   4.020   2.090  10.665  2.3387  0.0858 -0.0805
 8582TIP3    H247162   3.968   2.056  10.527 -0.4971  1.1775  0.6497
 8583TIP3   OH247163   5.033   1.528  13.379 -0.0696 -0.5596  0.0574
 8583TIP3    H147164   5.071   1.447  13.345  1.1125  0.6340 -1.5717
 8583TIP3    H247165   4.945   1.531  13.341  0.2413 -0.6065 -0.6772
 8584TIP3   OH247166   4.854   0.053  13.693  0.3398  0.4131 -0.0981
 8584TIP3    H147167   4.901   0.129  13.661 -0.0199  1.5831  2.0114
 8584TIP3    H247168   4.922  -0.008  13.720  0.6254  0.2399 -1.1739
 8585TIP3   OH247169   0.661   3.944  16.485  0.1376  0.2491 -0.3942
 8585TIP3    H147170   0.748   3.953  16.444  0.4962 -1.6197 -0.1028
 8585TIP3    H247171   0.657   4.018  16.547  1.2312  0.7677 -0.9088
 8586TIP3   OH247172   4.458   4.247   3.083  0.0257  0.4087 -0.3497
 8586TIP3    H147173   4.539   4.291   3.111 -0.0866  1.5905 -1.7357
 8586TIP3    H247174   4.471   4.155   3.106  1.8437  0.5450 -0.6668
 8587TIP3   OH247175   6.112   6.446  16.746  0.4242  0.2852  0.0814
 8587TIP3    H147176   6.205   6.466  16.745  0.7069 -0.9136  0.3309
 8587TIP3    H247177   6.103   6.375  16.810 -0.8478  1.2081  1.0010
 8588TIP3   OH247178   3.125   4.103   0.725  0.3912 -0.4668  0.6744
 8588TIP3    H147179   3.160   4.156   0.796  0.0180 -0.0940  0.5812
 8588TIP3    H247180   3.182   4.026   0.723  1.2987  0.1889  0.4315
 8589TIP3   OH247181   0.039   1.462   0.929  0.5595 -0.9604 -0.7675
 8589TIP3    H147182   0.050   1.409   1.008  1.4669  1.0018  0.4940
 8589TIP3    H247183   0.127   1.466   0.891 -0.0333 -2.6918 -2.4968
 8590TIP3   OH247184   5.733   1.775  15.006 -0.2424 -0.4628 -0.2620
 8590TIP3    H147185   5.797   1.838  15.040  0.7036 -0.8935 -1.1758
 8590TIP3    H247186   5.750   1.774  14.912  0.5140 -2.8787 -0.1609
 8591TIP3   OH247187   1.637   4.672  15.870  0.1403  0.4113  0.1732
 8591TIP3    H147188   1.715   4.626  15.836  2.3589  3.0441  1.3778
 8591TIP3    H247189   1.621   4.632  15.955  2.4180  2.0426  1.4762
 8592TIP3   OH247190   2.580   1.462   1.701 -0.0357  0.1788 -0.3738
 8592TIP3    H147191   2.591   1.436   1.792  0.4902  4.7822  1.1333
 8592TIP3    H247192   2.661   1.433   1.658 -0.5344 -2.5610  0.3557
 8593TIP3   OH247193   5.228   3.778   2.038 -0.1587 -0.1426  0.6401
 8593TIP3    H147194   5.164   3.735   1.981 -0.7534  0.1121  1.1074
 8593TIP3    H247195   5.247   3.713   2.106  0.7343 -0.5380  0.0286
 8594TIP3   OH247196   5.685   4.344   4.001  0.6606  0.3873  0.2236
 8594TIP3    H147197   5.669   4.259   4.043  1.9198 -0.1868 -0.4162
 8594TIP3    H247198   5.728   4.323   3.918 -1.3489  1.5299 -1.2013
 8595TIP3   OH247199   1.940   1.492   5.939 -1.0107 -0.0124 -0.1758
 8595TIP3    H147200   2.013   1.543   5.902 -0.1439 -0.3174  1.0580
 8595TIP3    H247201   1.915   1.540   6.018  0.4578 -1.9166  1.5642
 8596TIP3   OH247202   1.506   2.186   6.129 -0.1921 -0.1766 -0.7760
 8596TIP3    H147203   1.420   2.160   6.162  0.4189 -0.7301  0.4686
 8596TIP3    H247204   1.563   2.113   6.153  0.9277  0.8704 -0.1555
 8597TIP3   OH247205   1.280   3.648   1.920  0.1925 -0.0339 -0.0707
 8597TIP3    H147206   1.242   3.733   1.898  1.6367  0.5278 -0.4961
 8597TIP3    H247207   1.275   3.644   2.016  0.3594  0.6454 -0.0331
 8598TIP3   OH247208   0.573   2.210  14.283  0.1460 -0.2725  0.1131
 8598TIP3    H147209   0.527   2.251  14.210 -0.1550  2.3524  1.6718
 8598TIP3    H247210   0.663   2.202  14.253 -0.5109 -1.9987 -1.5866
 8599TIP3   OH247211   1.280   4.085  14.261 -0.1719 -0.0524  0.0886
 8599TIP3    H147212   1.211   4.141  14.225  0.6526  1.7150  1.1290
 8599TIP3    H247213   1.352   4.094  14.199 -0.2161 -0.3981 -0.0153
 8600TIP3   OH247214   6.554   2.490  11.430 -0.1067 -0.2574  0.2818
 8600TIP3    H147215   6.632   2.544  11.415 -2.1991  2.4866 -1.9084
 8600TIP3    H247216   6.536   2.500  11.524  0.5038  1.6528  0.2533
 8601TIP3   OH247217   6.133   1.255   3.446  0.3230  0.0434  0.4250
 8601TIP3    H147218   6.139   1.170   3.403  1.4300  0.9112 -1.2689
 8601TIP3    H247219   6.044   1.285   3.427 -0.3768 -1.0805  1.7898
 8602TIP3   OH247220   3.658   4.212  14.952  0.1608  0.1930 -0.1082
 8602TIP3    H147221   3.626   4.144  15.011 -1.9052 -0.7924 -2.2148
 8602TIP3    H247222   3.746   4.183  14.927  0.1370 -0.5607  0.6345
 8603TIP3   OH247223   1.987   6.561  14.515  0.0461 -0.1226  0.3355
 8603TIP3    H147224   2.061   6.613  14.545  0.4474 -0.1167 -0.6088
 8603TIP3    H247225   1.959   6.604  14.434  0.0425 -1.0493 -0.1736
 8604TIP3   OH247226   2.297   1.015   4.187 -0.4254  0.3829  0.3683
 8604TIP3    H147227   2.203   1.000   4.179 -0.5303  0.3848  1.4617
 8604TIP3    H247228   2.304   1.109   4.203 -0.0546  0.8475 -2.1058
 8605TIP3   OH247229   4.623   5.160   2.975  0.5647 -0.1481  0.1414
 8605TIP3    H147230   4.586   5.132   2.891  1.5900  0.0921 -0.4008
 8605TIP3    H247231   4.632   5.255   2.967 -2.8190  0.5098  1.9415
 8606TIP3   OH247232   2.333   5.618  14.491  0.1191 -0.3324  0.0067
 8606TIP3    H147233   2.400   5.658  14.435 -1.4870 -0.7084 -2.3047
 8606TIP3    H247234   2.297   5.691  14.540  0.6408  0.2378 -0.4393
 8607TIP3   OH247235   3.129   2.497   6.631  0.2392 -0.3179 -0.3566
 8607TIP3    H147236   3.080   2.495   6.549  1.1846  2.4676 -1.1125
 8607TIP3    H247237   3.063   2.518   6.698 -0.1477 -0.0395 -0.8203
 8608TIP3   OH247238   3.758   5.905   4.049 -0.1389 -0.4096 -0.0697
 8608TIP3    H147239   3.792   5.948   3.971  0.7631  0.3252  0.7071
 8608TIP3    H247240   3.674   5.947   4.065 -0.0955 -0.2126 -0.3492
 8609TIP3   OH247241   3.797   4.683   1.108 -0.5414  0.1250  0.7223
 8609TIP3    H147242   3.729   4.639   1.158  0.1100 -1.8564 -0.0462
 8609TIP3    H247243   3.783   4.655   1.018  0.2226  1.1022  0.2696
 8610TIP3   OH247244   3.328   0.988   4.742  0.6005 -0.1933  0.9658
 8610TIP3    H147245   3.253   1.026   4.696  1.7556  0.2866 -0.5678
 8610TIP3    H247246   3.357   0.916   4.686  1.9095  0.2763  0.9999
 8611TIP3   OH247247   2.900   3.269  12.211  0.6135  0.2996 -0.0582
 8611TIP3    H147248   2.833   3.311  12.264  1.6565  2.1512 -0.0974
 8611TIP3    H247249   2.922   3.188  12.258 -1.5181 -0.2934 -0.0037
 8612TIP3   OH247250   1.761   4.007   4.972  0.2559 -0.0188 -0.1790
 8612TIP3    H147251   1.743   3.990   4.879  2.1422  1.2082 -0.8172
 8612TIP3    H247252   1.850   4.042   4.973  0.4757 -0.5149  2.1730
 8613TIP3   OH247253   3.900   1.677   4.960  0.7227 -0.5707 -0.0976
 8613TIP3    H147254   3.952   1.741   5.007  0.3621 -0.7675  0.5853
 8613TIP3    H247255   3.923   1.593   5.000  0.1370 -0.6958 -0.0021
 8614TIP3   OH247256   1.012   4.338  15.571  0.3004  0.3718 -0.3382
 8614TIP3    H147257   1.058   4.262  15.534 -1.4683 -0.3474 -1.1809
 8614TIP3    H247258   1.033   4.410  15.512  1.1565  0.3270 -0.1129
 8615TIP3   OH247259   2.535   5.360   4.781  0.2228 -0.3410  0.0817
 8615TIP3    H147260   2.495   5.372   4.867  0.6657  1.5279  0.0588
 8615TIP3    H247261   2.612   5.306   4.798  0.3517  0.0778  0.8705
 8616TIP3   OH247262   0.761   0.238  14.133 -0.2701 -0.5347 -0.8620
 8616TIP3    H147263   0.667   0.227  14.141 -0.1028 -1.0698  0.4778
 8616TIP3    H247264   0.799   0.163  14.179  0.8236  1.0350  0.9538
 8617TIP3   OH247265   0.525   2.880   6.301  0.0875 -0.5866  0.5191
 8617TIP3    H147266   0.464   2.948   6.329 -0.5297 -0.4281 -1.0803
 8617TIP3    H247267   0.599   2.887   6.362 -1.1764 -0.3458  2.0944
 8618TIP3   OH247268   3.203   5.388   4.310 -0.4023 -0.3240 -0.5571
 8618TIP3    H147269   3.109   5.396   4.296 -0.3410  0.6119 -0.5148
 8618TIP3    H247270   3.231   5.475   4.339  0.2226 -0.9823  0.9840
 8619TIP3   OH247271   6.372   6.051  12.183 -0.0675 -0.6940  0.1521
 8619TIP3    H147272   6.379   5.996  12.104 -0.0278 -0.0450 -0.3016
 8619TIP3    H247273   6.283   6.084  12.181 -0.2805 -1.2100  0.7514
 8620TIP3   OH247274   1.627   2.882  15.209  0.2046 -0.1494  0.2136
 8620TIP3    H147275   1.577   2.963  15.208  0.6875  0.2186 -2.7078
 8620TIP3    H247276   1.600   2.838  15.290 -2.8107  1.2339  0.0855
 8621TIP3   OH247277   2.271   0.733   2.234  0.0155 -0.1761 -0.1982
 8621TIP3    H147278   2.293   0.768   2.148 -3.7698 -0.5282 -1.5013
 8621TIP3    H247279   2.230   0.648   2.215 -0.6307 -0.3999  1.9667
 8622TIP3   OH247280   0.042   4.637   4.436 -0.5035 -0.1798 -0.4550
 8622TIP3    H147281   0.067   4.681   4.354 -2.0991 -0.3377 -1.0536
 8622TIP3    H247282   0.094   4.556   4.436  0.2135  0.2613 -0.8257
 8623TIP3   OH247283   5.578   5.375  16.146  0.6201 -0.3327 -0.0474
 8623TIP3    H147284   5.671   5.377  16.126  1.2122  1.9088  2.3758
 8623TIP3    H247285   5.542   5.454  16.106 -0.1983 -1.0051 -0.6808
 8624TIP3   OH247286   1.309   3.044  12.132 -0.1496 -0.0287  0.3570
 8624TIP3    H147287   1.238   3.108  12.136  0.5423  0.7653  0.1345
 8624TIP3    H247288   1.355   3.063  12.051  1.3103  0.5626  1.2711
 8625TIP3   OH247289   0.338   6.240   6.590  0.1178  0.2115  0.1654
 8625TIP3    H147290   0.267   6.221   6.529  0.2985  0.6179 -0.1739
 8625TIP3    H247291   0.416   6.203   6.548 -0.1736 -2.0343  1.4519
 8626TIP3   OH247292   2.137   1.440  12.883  0.2503  0.2295 -0.0750
 8626TIP3    H147293   2.115   1.400  12.799  2.7770 -1.3570 -0.0967
 8626TIP3    H247294   2.150   1.532  12.863 -1.0982  0.2489 -0.9884
 8627TIP3   OH247295   6.485   2.149  12.638 -0.2505 -0.3385 -0.5410
 8627TIP3    H147296   6.431   2.073  12.660 -0.4520 -0.1929 -0.5258
 8627TIP3    H247297   6.446   2.184  12.558 -2.1300  1.5894  1.0781
 8628TIP3   OH247298   2.602   3.727  10.947 -0.0762 -0.1237 -0.3666
 8628TIP3    H147299   2.670   3.686  10.893 -0.0099  0.4752 -0.7366
 8628TIP3    H247300   2.520   3.710  10.900  0.0751  1.1559 -1.1254
 8629TIP3   OH247301   4.160   2.786  13.357  0.3733 -0.1178  0.0081
 8629TIP3    H147302   4.235   2.743  13.399  0.2198 -0.3666  0.0245
 8629TIP3    H247303   4.097   2.798  13.428  0.0287 -0.7281 -0.1933
 8630TIP3   OH247304   0.200   5.948   1.132  0.0171  0.8575  0.1871
 8630TIP3    H147305   0.179   5.972   1.042  0.8038  0.2469 -0.1695
 8630TIP3    H247306   0.115   5.934   1.173 -0.4364  2.9799  0.0809
 8631TIP3   OH247307   3.197   3.333   5.027 -0.0107  0.1179 -0.5944
 8631TIP3    H147308   3.225   3.262   4.968  1.1751  0.9920 -1.1200
 8631TIP3    H247309   3.171   3.288   5.107 -0.6667 -1.0240 -1.4080
 8632TIP3   OH247310   4.478   2.250   6.419  0.1220 -0.0195  0.1607
 8632TIP3    H147311   4.396   2.214   6.452  0.0147  0.3742  0.3272
 8632TIP3    H247312   4.461   2.270   6.327  0.9875 -2.9136 -0.7403
 8633TIP3   OH247313   4.203   2.922  16.043  0.7552  0.4367  0.6464
 8633TIP3    H147314   4.109   2.907  16.053  0.4923  1.6772  0.1568
 8633TIP3    H247315   4.243   2.840  16.072 -0.5134 -0.4978 -0.1335
 8634TIP3   OH247316   4.207   4.851  15.336  0.5846  0.1399  0.4673
 8634TIP3    H147317   4.209   4.755  15.335  0.7608  0.1305  1.2660
 8634TIP3    H247318   4.132   4.873  15.391  0.8922  0.4577  0.7632
 8635TIP3   OH247319   1.255   5.177   2.135  0.3644  0.8167  0.2999
 8635TIP3    H147320   1.252   5.106   2.199 -1.4340 -0.3744 -1.0024
 8635TIP3    H247321   1.343   5.215   2.145  1.1201 -1.1126  1.5418
 8636TIP3   OH247322   4.160   3.456  10.808  0.3675  0.0255 -0.4339
 8636TIP3    H147323   4.163   3.489  10.898  1.6534 -2.4275  0.5060
 8636TIP3    H247324   4.072   3.421  10.798  0.8680 -1.6713  0.6983
 8637TIP3   OH247325   3.195   3.266  11.473 -0.2972  0.0527  0.0593
 8637TIP3    H147326   3.230   3.353  11.455  1.2661 -0.8184 -1.3987
 8637TIP3    H247327   3.149   3.241  11.393  1.5663 -1.4865 -0.6048
 8638TIP3   OH247328   1.726   5.328   1.958  0.3291 -0.1503 -0.4653
 8638TIP3    H147329   1.697   5.238   1.941 -1.0231  0.3807 -1.1274
 8638TIP3    H247330   1.652   5.382   1.930  1.0281  1.1603  0.1640
 8639TIP3   OH247331   0.941   2.030  10.653 -0.1447 -0.1108 -0.0949
 8639TIP3    H147332   0.996   2.108  10.642 -0.9743  0.7258  1.3590
 8639TIP3    H247333   0.903   2.015  10.567 -0.4254  1.4541 -0.2625
 8640TIP3   OH247334   2.984   5.176   5.929  0.0321 -0.2014 -0.0815
 8640TIP3    H147335   2.986   5.268   5.902 -1.9286 -0.1516 -0.2556
 8640TIP3    H247336   3.046   5.171   6.002  2.8353  0.4164 -2.2538
 8641TIP3   OH247337   2.552   3.383   0.505  0.0183 -0.1024  0.2070
 8641TIP3    H147338   2.550   3.294   0.541  2.2479  0.2306  1.3902
 8641TIP3    H247339   2.579   3.437   0.579 -2.1926  1.7532 -0.2452
 8642TIP3   OH247340   0.089   2.736  11.763  0.1622 -0.0943 -0.2605
 8642TIP3    H147341   0.018   2.672  11.771  0.5598 -0.6899 -1.2413
 8642TIP3    H247342   0.104   2.767  11.852 -2.0743  0.8843 -0.1593
 8643TIP3   OH247343   0.941   3.712  13.341  0.2855  0.2468  0.5561
 8643TIP3    H147344   0.904   3.794  13.309 -1.1564  0.3646  2.3586
 8643TIP3    H247345   0.950   3.724  13.435 -1.9963 -2.2986  1.2690
 8644TIP3   OH247346   5.996   1.183   3.668 -0.0506 -0.1010 -0.1370
 8644TIP3    H147347   6.061   1.253   3.665  1.3848 -1.4027 -0.5086
 8644TIP3    H247348   5.932   1.206   3.600  0.8052  0.4813 -0.7578
 8645TIP3   OH247349   3.269   4.292   4.805 -0.9175 -0.1853  0.2510
 8645TIP3    H147350   3.315   4.358   4.752 -1.1679 -1.0984 -1.1607
 8645TIP3    H247351   3.179   4.324   4.809 -0.5898  0.6419  1.4138
 8646TIP3   OH247352   1.093   4.495   3.765 -0.2044 -0.6612 -0.0800
 8646TIP3    H147353   1.122   4.410   3.732  2.2964  0.5716 -1.2891
 8646TIP3    H247354   1.099   4.553   3.689  0.4479  1.1057  1.2604
 8647TIP3   OH247355   4.820   3.406   5.449  0.1331 -0.4103  0.5065
 8647TIP3    H147356   4.820   3.472   5.380  0.8733 -0.3602  0.5413
 8647TIP3    H247357   4.745   3.350   5.430  0.7615 -0.8548 -0.7783
 8648TIP3   OH247358   1.973   4.490  16.662 -0.1762 -0.6924 -0.2608
 8648TIP3    H147359   2.045   4.493  16.725 -0.7213  0.8667  0.3413
 8648TIP3    H247360   1.985   4.407  16.615  1.2451 -1.0643  0.7043
 8649TIP3   OH247361   2.314   3.389   1.600 -0.2044 -0.2390  0.3937
 8649TIP3    H147362   2.348   3.467   1.644  0.2464 -1.8825  3.2116
 8649TIP3    H247363   2.375   3.375   1.527  0.8941  0.9364  1.0355
 8650TIP3   OH247364   6.697   1.125   1.809 -0.1370 -0.3402 -0.4174
 8650TIP3    H147365   6.743   1.072   1.874 -0.6999  1.3034  1.4551
 8650TIP3    H247366   6.612   1.083   1.798 -0.9010  0.4962  1.6740
 8651TIP3   OH247367   0.216   0.424   0.077  0.5636 -0.7938  0.0214
 8651TIP3    H147368   0.146   0.454   0.135  1.3070  1.0015  0.0386
 8651TIP3    H247369   0.174   0.419  -0.009  0.5360  0.9357 -0.1011
 8652TIP3   OH247370   0.726   1.616   1.392  0.6216 -0.1395 -0.0205
 8652TIP3    H147371   0.819   1.609   1.414  1.0714  2.8960 -0.5592
 8652TIP3    H247372   0.725   1.646   1.301 -1.0037 -2.5345 -0.8908
 8653TIP3   OH247373   5.142   6.246  15.564  0.0502 -0.4711  0.6186
 8653TIP3    H147374   5.184   6.221  15.647  1.5496  1.3877  0.5001
 8653TIP3    H247375   5.208   6.299  15.519 -0.9619 -0.9275 -1.5238
 8654TIP3   OH247376   1.484   4.216  14.830  0.3352  0.1140  0.0950
 8654TIP3    H147377   1.525   4.294  14.867  0.4169  0.2148 -0.2110
 8654TIP3    H247378   1.553   4.173  14.779  0.1895  0.0409 -0.0434
 8655TIP3   OH247379   5.614   6.736   4.669 -0.4923 -0.6172  0.0253
 8655TIP3    H147380   5.530   6.782   4.676 -0.5923 -0.5728 -1.2291
 8655TIP3    H247381   5.677   6.806   4.649 -0.6681 -0.9700 -2.0500
 8656TIP3   OH247382   0.594   0.862   4.170  0.6139 -0.1152 -0.0710
 8656TIP3    H147383   0.666   0.821   4.219  0.4398 -0.4139 -0.0593
 8656TIP3    H247384   0.535   0.896   4.238  0.1632 -0.8939 -0.0535
 8657TIP3   OH247385   0.540   5.181   1.005  0.0111 -0.5225 -0.1000
 8657TIP3    H147386   0.526   5.276   1.006  1.4699 -0.1827  3.3801
 8657TIP3    H247387   0.562   5.161   0.914 -0.5875  2.4051 -1.0099
 8658TIP3   OH247388   3.427   0.062   4.556  0.2354  0.4922 -0.3881
 8658TIP3    H147389   3.440  -0.033   4.553  0.9444  0.5929 -1.3533
 8658TIP3    H247390   3.498   0.093   4.612  1.2903  0.6136 -1.7420
 8659TIP3   OH247391   0.071   5.263  15.551  0.0212  0.3458 -0.3608
 8659TIP3    H147392   0.157   5.289  15.582  0.0437 -1.4769  1.2793
 8659TIP3    H247393   0.088   5.201  15.481  0.2173 -2.2469  1.8200
 8660TIP3   OH247394   4.035   4.789   3.091  0.0183  0.0285 -0.1020
 8660TIP3    H147395   3.946   4.786   3.126  0.0884 -1.9472  0.0505
 8660TIP3    H247396   4.091   4.788   3.168  0.1875  1.0491 -0.2020
 8661TIP3   OH247397   3.671   0.149   4.665  0.2027  0.2408 -0.0778
 8661TIP3    H147398   3.718   0.100   4.597 -1.9352 -1.1053 -0.6625
 8661TIP3    H247399   3.651   0.233   4.624  0.4017  0.0793 -0.5108
 8662TIP3   OH247400   1.245   3.210   3.721 -0.3773 -0.5567  0.1306
 8662TIP3    H147401   1.202   3.214   3.806  0.9516  1.2181  0.7933
 8662TIP3    H247402   1.279   3.120   3.715 -0.5260 -0.7143  1.4510
 8663TIP3   OH247403   5.145   0.397  15.415  0.3382  0.0340  0.0054
 8663TIP3    H147404   5.079   0.341  15.457 -0.0082 -0.8824 -1.6795
 8663TIP3    H247405   5.226   0.376  15.462 -0.2152 -0.2104  0.8782
 8664TIP3   OH247406   4.658   5.693   0.931 -0.0496 -0.4911  0.0733
 8664TIP3    H147407   4.641   5.744   0.852 -0.9240  0.3236  0.7666
 8664TIP3    H247408   4.752   5.706   0.947 -0.0284 -0.0267 -0.3843
 8665TIP3   OH247409   6.126   0.107   5.735  0.1332  0.2879  0.2749
 8665TIP3    H147410   6.139   0.190   5.688 -3.0257  1.0784  0.5292
 8665TIP3    H247411   6.201   0.100   5.793  2.7147  0.7409 -2.7172
 8666TIP3   OH247412   2.425   6.364   2.615  0.3346 -0.0449  0.4481
 8666TIP3    H147413   2.356   6.396   2.673  1.0083 -0.3738  1.4638
 8666TIP3    H247414   2.381   6.347   2.532 -0.9147 -0.7448  1.2266
 8667TIP3   OH247415   5.608   3.345   4.001 -0.5017 -0.2751  0.5877
 8667TIP3    H147416   5.541   3.292   4.044  0.7733 -0.5263  2.3779
 8667TIP3    H247417   5.631   3.412   4.065 -0.7870  1.3830 -0.9496
 8668TIP3   OH247418   2.543   3.567   2.139  0.4117  0.5086 -0.0947
 8668TIP3    H147419   2.455   3.572   2.100  0.1650  0.8028  0.4907
 8668TIP3    H247420   2.584   3.493   2.094 -0.5433 -0.3779  0.4289
 8669TIP3   OH247421   1.951   1.145  14.074  0.4858  0.5759 -0.8638
 8669TIP3    H147422   2.019   1.092  14.033  0.1292 -1.7659  1.3469
 8669TIP3    H247423   1.985   1.235  14.070  3.3229 -0.3984 -0.6031
 8670TIP3   OH247424   1.682   4.829   4.399 -0.4236  0.3671 -0.0191
 8670TIP3    H147425   1.619   4.895   4.428  1.8947  2.2576  1.1709
 8670TIP3    H247426   1.688   4.841   4.304  0.0014  2.0095  0.1757
 8671TIP3   OH247427   5.125   1.753  10.894  0.2363  0.1689  0.0674
 8671TIP3    H147428   5.144   1.711  10.810 -0.6575  0.4126 -0.2655
 8671TIP3    H247429   5.184   1.828  10.897  1.5116 -0.8058  0.4533
 8672TIP3   OH247430   5.210   0.419  11.447 -0.7231 -0.2162 -0.1720
 8672TIP3    H147431   5.170   0.332  11.446 -0.2328 -0.4415 -0.6402
 8672TIP3    H247432   5.228   0.437  11.539  0.2968 -1.1347 -0.1738
 8673TIP3   OH247433   0.625   2.917  11.408  0.3317 -0.1295  0.3308
 8673TIP3    H147434   0.693   2.884  11.348  1.2399  2.2899 -0.0603
 8673TIP3    H247435   0.555   2.947  11.351 -0.3401 -0.9933  0.6715
 8674TIP3   OH247436   0.866   3.666   0.449 -0.1262 -0.1005 -0.4027
 8674TIP3    H147437   0.794   3.654   0.386 -0.8381 -0.2706  0.4216
 8674TIP3    H247438   0.897   3.577   0.467  0.0638 -0.0534 -0.4968
 8675TIP3   OH247439   1.768   4.845  15.228 -0.1639 -0.0425  0.4378
 8675TIP3    H147440   1.764   4.749  15.229 -0.4652 -0.0389  1.5537
 8675TIP3    H247441   1.753   4.870  15.319 -0.5772  1.0896  0.0761
 8676TIP3   OH247442   2.160   1.904   0.844  0.3711  0.3956  0.1859
 8676TIP3    H147443   2.199   1.901   0.931  0.0876  0.2282  0.3055
 8676TIP3    H247444   2.184   1.820   0.804 -1.2564 -0.4232  0.8559
 8677TIP3   OH247445   4.412   4.221  11.777 -0.3618  0.1491 -0.0750
 8677TIP3    H147446   4.424   4.264  11.692 -0.1062  1.1151  0.4404
 8677TIP3    H247447   4.499   4.184  11.797 -0.1682  0.7463  0.2046
 8678TIP3   OH247448   5.105   5.940  16.324 -0.2054 -0.5907  0.1923
 8678TIP3    H147449   5.031   5.968  16.270  0.5256 -3.1871 -2.4085
 8678TIP3    H247450   5.139   6.022  16.361 -2.1824  1.0781 -1.4028
 8679TIP3   OH247451   5.330   4.139  15.739 -0.0622 -0.0129 -0.3436
 8679TIP3    H147452   5.381   4.103  15.812 -0.3491  0.7951  0.2767
 8679TIP3    H247453   5.365   4.096  15.661  0.3570 -0.7799  0.2534
 8680TIP3   OH247454   6.488   1.934  10.379 -0.0687 -0.1548 -0.0610
 8680TIP3    H147455   6.570   1.931  10.329 -0.2276  2.5131 -0.6486
 8680TIP3    H247456   6.485   2.023  10.413 -3.0252  0.0540 -0.6222
 8681TIP3   OH247457   6.693   5.364  16.509 -0.0707  0.3348  0.2635
 8681TIP3    H147458   6.697   5.460  16.507  0.3726  0.3452 -2.5470
 8681TIP3    H247459   6.785   5.337  16.522 -0.3595  0.2041  2.5084
 8682TIP3   OH247460   2.069   0.948   0.209 -0.1259  0.3705 -0.6876
 8682TIP3    H147461   2.023   0.866   0.194 -1.5025  1.0059 -0.1348
 8682TIP3    H247462   2.120   0.932   0.289 -1.0588  0.3106 -0.0903
 8683TIP3   OH247463   2.063   2.216  11.926 -0.1454  0.0778 -0.1668
 8683TIP3    H147464   2.001   2.236  11.856  0.1866 -0.4610 -0.6216
 8683TIP3    H247465   2.032   2.133  11.963 -0.8312  0.7997  0.9231
 8684TIP3   OH247466   6.379   0.715   2.680  0.3386 -0.0116  0.2444
 8684TIP3    H147467   6.331   0.798   2.677  1.1598  0.4601 -0.6345
 8684TIP3    H247468   6.467   0.740   2.709  0.8324 -0.4410 -0.8408
 8685TIP3   OH247469   3.281   3.466   1.369 -0.2814 -0.3955  0.2160
 8685TIP3    H147470   3.222   3.406   1.414 -1.8963  0.7675 -0.2462
 8685TIP3    H247471   3.243   3.553   1.383  0.8307  0.3067 -0.8519
 8686TIP3   OH247472   3.687   3.222  16.927 -0.1570 -0.1348  0.7424
 8686TIP3    H147473   3.592   3.214  16.924 -0.1602 -0.3305  1.1706
 8686TIP3    H247474   3.713   3.249  16.839 -0.4604 -1.7781  0.1202
 8687TIP3   OH247475   2.449   5.347   0.006 -0.0982 -0.6923  0.7413
 8687TIP3    H147476   2.483   5.416   0.062  2.9327 -1.7115  0.3637
 8687TIP3    H247477   2.483   5.266   0.044 -1.6292 -1.7887 -0.1112
 8688TIP3   OH247478   5.601   5.113  11.870  0.3219 -0.1258 -0.4122
 8688TIP3    H147479   5.544   5.124  11.946  1.4627 -2.0697  0.8192
 8688TIP3    H247480   5.557   5.048  11.816 -0.1181  0.6940 -1.0594
 8689TIP3   OH247481   5.371   1.012  13.214  0.5398  0.4771  0.3415
 8689TIP3    H147482   5.297   0.952  13.228  1.6904 -1.7606 -2.3364
 8689TIP3    H247483   5.369   1.031  13.120  1.7091  2.7541  0.7066
 8690TIP3   OH247484   3.606   1.201   2.239 -0.1202  0.0812 -0.2026
 8690TIP3    H147485   3.520   1.242   2.237 -0.3868 -0.4791 -0.5445
 8690TIP3    H247486   3.637   1.205   2.149 -0.0188 -0.1937 -0.1818
 8691TIP3   OH247487   1.466   1.869  15.653  0.3244 -0.0406 -0.2545
 8691TIP3    H147488   1.507   1.906  15.574  0.4148  0.8810  0.2016
 8691TIP3    H247489   1.509   1.785  15.665 -1.2702 -1.2800 -2.4519
 8692TIP3   OH247490   5.279   1.120  14.621 -0.1059 -0.2397 -0.6050
 8692TIP3    H147491   5.297   1.040  14.671  0.4528  0.6902  0.7189
 8692TIP3    H247492   5.361   1.169  14.624 -0.1397 -0.0248 -2.2284
 8693TIP3   OH247493   6.194   4.872   2.810 -0.3175  0.0275 -0.1477
 8693TIP3    H147494   6.247   4.944   2.845  1.3291 -0.5365 -1.3597
 8693TIP3    H247495   6.186   4.811   2.883 -2.1217  1.5720  1.0461
 8694TIP3   OH247496   4.846   5.057  13.657  0.2339 -0.3481 -0.1846
 8694TIP3    H147497   4.836   5.151  13.641 -0.4060 -0.2473  0.6848
 8694TIP3    H247498   4.825   5.047  13.750  0.0029 -1.3884 -0.3397
 8695TIP3   OH247499   0.727   1.735   3.145 -0.0994 -0.7298 -0.3032
 8695TIP3    H147500   0.714   1.754   3.238  0.2312 -0.5255 -0.2983
 8695TIP3    H247501   0.645   1.693   3.117 -0.2024 -0.7824  0.0767
 8696TIP3   OH247502   1.041   2.578   4.343 -0.1418  0.1786 -0.7221
 8696TIP3    H147503   1.034   2.649   4.278  0.0511  0.1168 -0.8086
 8696TIP3    H247504   1.011   2.619   4.424 -0.7100  0.1629 -0.9160
 8697TIP3   OH247505   1.687   0.824  16.370  0.1741 -0.0403  0.0103
 8697TIP3    H147506   1.684   0.810  16.464 -0.0629 -0.0452  0.0017
 8697TIP3    H247507   1.780   0.839  16.351  0.3817 -1.1757  0.0764
 8698TIP3   OH247508   0.620   0.181   0.746 -0.2336 -0.2061  0.0018
 8698TIP3    H147509   0.685   0.189   0.677  0.0677  0.1618  0.3288
 8698TIP3    H247510   0.548   0.237   0.718  0.6189  1.3796  0.8244
 8699TIP3   OH247511   4.698   4.987  16.047  0.4675 -0.1671  0.2649
 8699TIP3    H147512   4.611   4.951  16.067 -0.7042  1.5769 -1.2926
 8699TIP3    H247513   4.737   5.005  16.133  0.3117 -3.1273  1.0575
 8700TIP3   OH247514   0.107   3.590   0.363 -0.3076  0.6174  0.1331
 8700TIP3    H147515   0.078   3.546   0.283 -0.7449 -0.0961  0.6724
 8700TIP3    H247516   0.191   3.629   0.339  1.1739 -2.2744  0.1535
 8701TIP3   OH247517   4.644   3.288   3.155 -0.0126 -0.4158  0.4122
 8701TIP3    H147518   4.720   3.231   3.146 -0.6964 -0.9702 -3.9203
 8701TIP3    H247519   4.680   3.376   3.158  0.8451 -0.7817  1.4660
 8702TIP3   OH247520   0.055   1.811   3.526 -0.0850  0.3871  0.4358
 8702TIP3    H147521   0.095   1.898   3.529  0.9102 -0.0651  0.7951
 8702TIP3    H247522   0.077   1.778   3.439 -0.7666  0.6266  0.1674
 8703TIP3   OH247523   4.356   5.592   4.432 -0.1149 -0.3912 -0.3079
 8703TIP3    H147524   4.274   5.592   4.382 -0.9068  1.3348  0.9185
 8703TIP3    H247525   4.422   5.626   4.371 -0.9794  1.2694 -0.3516
 8704TIP3   OH247526   0.788   1.929  12.332 -0.6404  0.1766  0.2091
 8704TIP3    H147527   0.801   1.859  12.396 -1.2553  1.0964  1.3836
 8704TIP3    H247528   0.712   1.902  12.282 -0.6193 -0.1981  0.3769
 8705TIP3   OH247529   1.359   5.714  14.037  0.0212 -0.2008  0.2488
 8705TIP3    H147530   1.356   5.623  14.065 -1.1733 -0.4573 -0.6539
 8705TIP3    H247531   1.452   5.736  14.036  0.2564 -0.8733  2.1017
 8706TIP3   OH247532   2.114   4.033   3.285  0.2242  0.5559 -0.7528
 8706TIP3    H147533   2.187   4.071   3.334 -0.1628  1.6049 -0.9701
 8706TIP3    H247534   2.118   4.075   3.199 -1.1757  1.3202 -0.4686
 8707TIP3   OH247535   5.709   4.133   1.031 -0.3211  0.2807  0.3522
 8707TIP3    H147536   5.614   4.135   1.018 -0.3710 -2.0121  0.0361
 8707TIP3    H247537   5.737   4.223   1.014 -2.5388  1.2473  1.4515
 8708TIP3   OH247538   0.804   5.744   6.642 -0.0393  0.1284 -0.7632
 8708TIP3    H147539   0.802   5.664   6.696  1.2312  1.1372  0.8948
 8708TIP3    H247540   0.897   5.759   6.626 -0.3861 -0.4034 -3.7823
 8709TIP3   OH247541   6.738   4.076  13.012  0.1020  0.0515  0.0011
 8709TIP3    H147542   6.832   4.077  13.026 -0.0540  1.3985  1.2096
 8709TIP3    H247543   6.712   3.985  13.027  1.3018 -0.5086 -1.2075
 8710TIP3   OH247544   6.548   2.959   3.409 -0.1757  0.2134  0.3370
 8710TIP3    H147545   6.487   3.017   3.363  0.5055  0.9520  0.3286
 8710TIP3    H247546   6.626   3.014   3.423 -0.0417 -0.2800  1.5760
 8711TIP3   OH247547   4.898   1.518   4.304 -0.2858 -0.3175 -0.1349
 8711TIP3    H147548   4.962   1.539   4.372  0.4859 -1.0898 -0.6003
 8711TIP3    H247549   4.939   1.449   4.253 -0.8076  0.3154 -1.4621
 8712TIP3   OH247550   5.289   3.619  17.059 -0.3691  0.2297  0.1042
 8712TIP3    H147551   5.244   3.701  17.079 -0.8568  0.0101 -0.0806
 8712TIP3    H247552   5.308   3.580  17.145 -0.1887  0.5048  0.1903
 8713TIP3   OH247553   5.247   1.761   5.626 -0.2185  0.4687 -0.3476
 8713TIP3    H147554   5.181   1.813   5.671  1.9438  2.1525  1.1152
 8713TIP3    H247555   5.223   1.670   5.644 -1.7492  1.0335  0.6758
 8714TIP3   OH247556   2.175   0.638  12.712  0.0190 -0.6657  0.4547
 8714TIP3    H147557   2.085   0.605  12.704 -0.0428 -0.5467  0.6581
 8714TIP3    H247558   2.166   0.724  12.753  0.0881  0.1545 -1.1670
 8715TIP3   OH247559   4.730   2.879  16.266 -0.5829  0.0899 -0.7520
 8715TIP3    H147560   4.732   2.947  16.199  0.4246  2.2884  1.3146
 8715TIP3    H247561   4.698   2.924  16.344  0.9310 -1.5764  0.9314
 8716TIP3   OH247562   5.137   4.634   4.046 -0.7107  0.1224 -0.1438
 8716TIP3    H147563   5.092   4.592   4.120  1.7188 -0.9450  0.8225
 8716TIP3    H247564   5.178   4.561   3.999 -0.7132  0.9762 -1.5125
 8717TIP3   OH247565   6.482   1.792  14.439 -0.8427 -0.6288  0.3551
 8717TIP3    H147566   6.489   1.797  14.534  3.0895  1.1786  0.1830
 8717TIP3    H247567   6.463   1.700  14.420  0.9920 -1.6131  2.8611
 8718TIP3   OH247568   3.353   3.811   1.532  0.8799 -0.1747  0.5168
 8718TIP3    H147569   3.425   3.790   1.472 -1.0934  0.5026 -2.3000
 8718TIP3    H247570   3.362   3.904   1.549 -0.4190  0.4384 -1.6503
 8719TIP3   OH247571   4.291   5.825  15.888 -0.0100 -0.6559  0.1901
 8719TIP3    H147572   4.353   5.753  15.890 -1.4258 -1.9776 -1.1613
 8719TIP3    H247573   4.329   5.891  15.946  1.7970 -2.0797  0.7066
 8720TIP3   OH247574   4.297   2.279   1.246 -0.2694 -0.5751 -0.1813
 8720TIP3    H147575   4.359   2.224   1.294  0.1537  0.1586  0.1258
 8720TIP3    H247576   4.295   2.241   1.158  0.8691 -0.4173 -0.2869
 8721TIP3   OH247577   3.199   2.003  16.381  0.9268 -0.0943 -0.0533
 8721TIP3    H147578   3.270   1.944  16.408  0.1121 -0.8446  0.5050
 8721TIP3    H247579   3.201   2.073  16.446 -0.4705 -1.4510  1.5533
 8722TIP3   OH247580   0.496   0.358  13.444 -0.7383  0.4792 -0.0785
 8722TIP3    H147581   0.498   0.446  13.480  0.0531  0.4966 -0.1490
 8722TIP3    H247582   0.539   0.304  13.510  0.8082  0.5250 -0.9853
 8723TIP3   OH247583   4.265   3.048   2.403 -0.6643 -0.4644  1.0488
 8723TIP3    H147584   4.301   2.964   2.373  0.1645 -0.5226  2.1177
 8723TIP3    H247585   4.208   3.077   2.332  1.3318 -0.4823 -0.6612
 8724TIP3   OH247586   3.964   4.437  11.981 -0.5310  0.5360  0.2098
 8724TIP3    H147587   3.895   4.384  11.941 -1.0411 -0.4196  2.2323
 8724TIP3    H247588   4.044   4.411  11.935 -1.1538 -0.0902 -0.5575
 8725TIP3   OH247589   4.689   3.281  11.219 -0.1905  0.3636 -0.3754
 8725TIP3    H147590   4.652   3.341  11.284 -1.9341 -0.6663 -0.3506
 8725TIP3    H247591   4.614   3.253  11.167  0.7673 -0.8527 -1.1623
 8726TIP3   OH247592   2.390   4.976  14.958 -0.1746 -0.2150 -0.2509
 8726TIP3    H147593   2.362   5.036  15.027 -0.0607 -2.0600  1.4765
 8726TIP3    H247594   2.486   4.986  14.955 -0.1613 -0.2815 -0.0207
 8727TIP3   OH247595   0.430   5.231  13.636 -0.2314 -0.6754 -0.0674
 8727TIP3    H147596   0.524   5.218  13.625 -0.3042 -0.4206 -1.0575
 8727TIP3    H247597   0.390   5.190  13.559 -0.7470  1.3880 -0.9875
 8728TIP3   OH247598   6.640   0.570   4.559  0.1657 -0.2338 -0.2530
 8728TIP3    H147599   6.727   0.548   4.591  0.0940  0.7898  0.6705
 8728TIP3    H247600   6.654   0.642   4.497  0.0695 -0.7825 -0.9380
 8729TIP3   OH247601   3.112   6.237   1.281  0.1999 -0.7215  0.3824
 8729TIP3    H147602   3.097   6.287   1.361 -0.2186 -0.1907 -0.0174
 8729TIP3    H247603   3.082   6.149   1.301 -2.1207 -0.0593  0.0882
 8730TIP3   OH247604   5.190   1.106   5.196 -0.0523  0.4137 -0.5151
 8730TIP3    H147605   5.136   1.145   5.127 -1.2304  1.2417  0.8296
 8730TIP3    H247606   5.132   1.045   5.241  0.9629 -0.7944 -0.7790
 8731TIP3   OH247607   5.748   5.011  13.886  0.0196  0.4862  0.1214
 8731TIP3    H147608   5.833   4.975  13.858 -0.6726 -0.6898 -0.5879
 8731TIP3    H247609   5.704   4.937  13.928 -0.7163  1.0326  0.3252
 8732TIP3   OH247610   6.119   4.383   3.736  0.4877 -0.5389 -0.9434
 8732TIP3    H147611   6.122   4.291   3.711  0.3703 -0.2409 -2.1487
 8732TIP3    H247612   6.208   4.404   3.765 -0.3839 -2.0720  3.5709
 8733TIP3   OH247613   1.352   4.982   3.214 -0.4785 -0.5434  0.3552
 8733TIP3    H147614   1.441   4.957   3.190 -0.5891  0.7127 -1.6081
 8733TIP3    H247615   1.296   4.932   3.155 -0.9189  0.5623 -0.2027
 8734TIP3   OH247616   5.304   2.882   2.494  0.0166  0.5187  0.2078
 8734TIP3    H147617   5.343   2.795   2.496 -1.3942 -0.2019 -1.4401
 8734TIP3    H247618   5.224   2.874   2.546 -0.5183  0.6070 -0.5919
 8735TIP3   OH247619   1.695   4.340  15.864 -0.1526  0.9077 -0.6744
 8735TIP3    H147620   1.697   4.245  15.872  0.8144  0.6599 -2.8831
 8735TIP3    H247621   1.632   4.369  15.929 -0.4123 -1.2324  0.1036
 8736TIP3   OH247622   2.528   0.617   0.898  0.2053  0.1506  0.1316
 8736TIP3    H147623   2.463   0.556   0.863  0.8761  0.4808 -1.7909
 8736TIP3    H247624   2.612   0.578   0.874  0.6791  0.8044  0.7077
 8737TIP3   OH247625   6.662   2.458   0.772 -0.3990 -0.3103 -0.7589
 8737TIP3    H147626   6.735   2.425   0.824 -2.8015 -0.7733  2.6597
 8737TIP3    H247627   6.663   2.553   0.786  0.8975  0.0171 -2.7459
 8738TIP3   OH247628   3.049   3.094  15.822 -0.0013  0.1873  0.0580
 8738TIP3    H147629   3.143   3.076  15.817 -0.1890 -0.5545 -1.2519
 8738TIP3    H247630   3.009   3.010  15.845 -0.3416  0.5519  0.8553
 8739TIP3   OH247631   1.587   4.926   0.507  0.4062 -0.1996  0.4698
 8739TIP3    H147632   1.579   4.929   0.412 -0.9087 -0.7035  0.5465
 8739TIP3    H247633   1.577   5.017   0.535  2.2952  0.1856  0.0594
 8740TIP3   OH247634   3.517   0.143  13.908 -0.1227  0.9697 -0.9249
 8740TIP3    H147635   3.590   0.084  13.926  0.3768  1.9397  0.4115
 8740TIP3    H247636   3.463   0.139  13.987  0.6440  3.2743 -0.2021
 8741TIP3   OH247637   4.376   2.787   2.296  0.0987 -0.2802 -0.0299
 8741TIP3    H147638   4.364   2.692   2.306 -0.7479 -0.2117 -0.2766
 8741TIP3    H247639   4.348   2.805   2.206  0.2644  0.2067  0.0145
 8742TIP3   OH247640   1.451   0.685   6.334 -0.7968  0.6441 -0.6421
 8742TIP3    H147641   1.467   0.677   6.428  3.6957  0.0485 -1.2168
 8742TIP3    H247642   1.383   0.620   6.316  0.4774 -1.5874  1.8386
 8743TIP3   OH247643   3.580   1.878   4.326 -0.1286 -0.2844  0.1534
 8743TIP3    H147644   3.514   1.885   4.394 -0.7440 -0.0769 -0.4501
 8743TIP3    H247645   3.645   1.944   4.347 -0.7500  0.3609  0.0711
 8744TIP3   OH247646   1.858   2.028   6.476  0.5322 -0.2776 -0.0783
 8744TIP3    H147647   1.937   2.082   6.471  0.9412 -0.6907  1.2203
 8744TIP3    H247648   1.886   1.951   6.527 -0.7262 -0.3844  0.4910
 8745TIP3   OH247649   3.580   0.215   3.425  0.4583  0.5431 -0.7949
 8745TIP3    H147650   3.632   0.200   3.346  0.5233 -0.2867 -0.6021
 8745TIP3    H247651   3.497   0.250   3.393  0.4472  0.1154 -1.2362
 8746TIP3   OH247652   0.827   1.337   3.009  0.1750  0.3925 -0.5403
 8746TIP3    H147653   0.894   1.393   3.047 -2.5019  3.4699  0.1581
 8746TIP3    H247654   0.745   1.372   3.044 -1.9123 -2.3941 -2.2162
 8747TIP3   OH247655   1.826   5.211   4.355  0.6344 -0.2682 -0.4401
 8747TIP3    H147656   1.734   5.229   4.341  0.7306  0.8732  0.2749
 8747TIP3    H247657   1.864   5.207   4.267 -0.1082 -0.9030 -0.7385
 8748TIP3   OH247658   4.356   1.805   5.418 -0.1070 -0.0566 -0.1987
 8748TIP3    H147659   4.293   1.870   5.450  0.7278  1.7652 -2.0281
 8748TIP3    H247660   4.351   1.811   5.322  1.0505 -1.6760 -0.4091
 8749TIP3   OH247661   1.505   2.735  13.901 -0.2312 -0.6774  0.2411
 8749TIP3    H147662   1.493   2.671  13.971  1.8281 -1.1452  0.2269
 8749TIP3    H247663   1.429   2.722  13.844 -0.9515 -1.6221  1.3599
 8750TIP3   OH247664   0.825   3.327  13.903 -0.5099  0.1879  0.2101
 8750TIP3    H147665   0.787   3.351  13.819 -1.4159 -1.4407  0.1265
 8750TIP3    H247666   0.916   3.354  13.896  0.1498 -2.2307 -2.3449
 8751TIP3   OH247667   4.950   4.960  16.546  0.2291  0.2746  0.0217
 8751TIP3    H147668   5.039   4.925  16.543  0.1595 -0.3107  2.4529
 8751TIP3    H247669   4.961   5.054  16.558  0.5398  0.2189  0.1875
 8752TIP3   OH247670   3.277   1.415  11.993  0.4643  0.0093  0.2061
 8752TIP3    H147671   3.234   1.329  12.003  0.8042 -0.0894  0.8707
 8752TIP3    H247672   3.244   1.448  11.909  2.0842 -1.7833 -1.2284
 8753TIP3   OH247673   1.757   0.282   5.635  0.4172 -0.8771  0.4388
 8753TIP3    H147674   1.715   0.366   5.621  0.7905 -0.5908  0.9940
 8753TIP3    H247675   1.685   0.222   5.657 -0.0334 -1.0705 -1.4058
 8754TIP3   OH247676   5.976   0.609   5.797  0.3019 -0.6096  0.0951
 8754TIP3    H147677   6.070   0.618   5.817 -0.0472  1.0415  1.1914
 8754TIP3    H247678   5.958   0.680   5.736 -0.6917  0.6836  1.7970
 8755TIP3   OH247679   3.006   1.963  16.965  0.5068 -0.0080  0.5150
 8755TIP3    H147680   2.999   1.919  16.880 -0.3228  1.7633 -0.4025
 8755TIP3    H247681   2.955   1.908  17.024  0.1341 -0.6819 -0.4042
 8756TIP3   OH247682   3.286   3.184   4.466  0.2387 -1.0611 -0.4941
 8756TIP3    H147683   3.242   3.269   4.466  0.3695 -0.8746  2.5763
 8756TIP3    H247684   3.368   3.199   4.420  0.1404  0.4295 -0.2330
 8757TIP3   OH247685   2.651   5.591   4.397 -0.1429 -0.6902 -1.1100
 8757TIP3    H147686   2.728   5.630   4.438 -0.5149  0.0514 -1.1098
 8757TIP3    H247687   2.593   5.570   4.470 -1.0017  1.0471 -1.2500
 8758TIP3   OH247688   1.142   5.489  14.817  0.1836  0.1129  0.3335
 8758TIP3    H147689   1.079   5.559  14.835  0.9815  0.5396  1.5933
 8758TIP3    H247690   1.093   5.426  14.764 -1.2003  0.5929  0.9923
 8759TIP3   OH247691   5.670   3.062  14.117 -0.8546  0.8303  0.2533
 8759TIP3    H147692   5.652   3.102  14.032 -0.7622  2.2463  0.8685
 8759TIP3    H247693   5.711   3.132  14.168  1.5715 -0.7161  0.6218
 8760TIP3   OH247694   0.012   5.178   5.322  0.1936 -0.0616  0.1075
 8760TIP3    H147695   0.100   5.215   5.319  0.7313 -1.3215 -0.5807
 8760TIP3    H247696   0.012   5.110   5.255 -0.8648 -1.0341  1.0365
 8761TIP3   OH247697   3.270   6.435  12.323  0.1325 -0.4794  0.2798
 8761TIP3    H147698   3.201   6.393  12.374 -0.8145 -0.7234 -1.1367
 8761TIP3    H247699   3.303   6.366  12.266  1.2336 -0.2388  0.5980
 8762TIP3   OH247700   6.254   4.712  10.498  1.1647 -0.0400 -0.0217
 8762TIP3    H147701   6.320   4.643  10.501  3.0259  1.6636  1.9028
 8762TIP3    H247702   6.196   4.693  10.572 -0.1293 -1.1132 -1.2605
 8763TIP3   OH247703   2.658   0.352  15.570  0.3985  0.2320 -0.2980
 8763TIP3    H147704   2.637   0.272  15.618  0.8321  0.0288 -0.4346
 8763TIP3    H247705   2.634   0.423  15.629  1.2613 -0.0131  0.3806
 8764TIP3   OH247706   0.156   5.680   0.066  0.4381 -0.0976 -0.1147
 8764TIP3    H147707   0.239   5.654   0.025  0.7241  0.9366 -0.2183
 8764TIP3    H247708   0.181   5.706   0.155 -0.0488 -1.4571  0.4529
 8765TIP3   OH247709   4.095   2.808  16.795 -0.4641 -0.2791  0.8661
 8765TIP3    H147710   4.069   2.800  16.887 -1.0307  0.3267  0.7622
 8765TIP3    H247711   4.165   2.743  16.784 -0.2817 -0.2398  1.7621
 8766TIP3   OH247712   4.888   3.886  10.776 -0.7764 -0.1581  0.3604
 8766TIP3    H147713   4.915   3.945  10.706 -1.9431  0.4098  0.3799
 8766TIP3    H247714   4.793   3.882  10.770 -0.7652 -1.5623  0.7548
 8767TIP3   OH247715   2.969   2.797  14.813  0.3616  0.0125 -0.3754
 8767TIP3    H147716   3.059   2.827  14.807 -0.2090  1.6807 -1.2769
 8767TIP3    H247717   2.916   2.876  14.806 -1.1818 -0.7687  1.3890
 8768TIP3   OH247718   4.370   3.984  13.930  0.1527  0.0080  0.4116
 8768TIP3    H147719   4.417   3.905  13.903  1.2400  0.7764 -0.0073
 8768TIP3    H247720   4.327   3.960  14.012 -0.4547 -1.3550 -0.2675
 8769TIP3   OH247721   5.914   4.863  12.057  0.2041  0.1839  0.0159
 8769TIP3    H147722   5.999   4.836  12.024 -0.3433 -1.1275 -0.3928
 8769TIP3    H247723   5.880   4.924  11.990 -0.0006 -0.8174 -0.8178
 8770TIP3   OH247724   4.040   2.753  15.656  0.2836  0.3641 -0.0150
 8770TIP3    H147725   4.018   2.817  15.724  0.1603 -1.4732  1.7362
 8770TIP3    H247726   3.993   2.785  15.578 -1.2250  1.4537  1.2722
 8771TIP3   OH247727   6.752   6.683   5.838 -0.2773  0.4970  0.2971
 8771TIP3    H147728   6.688   6.733   5.788 -0.0284 -0.4684 -1.0534
 8771TIP3    H247729   6.741   6.713   5.928 -0.3936  2.6556 -0.3885
 8772TIP3   OH247730   1.977   0.472  16.192  0.0712  0.1463 -0.0960
 8772TIP3    H147731   1.945   0.563  16.188  0.7581  0.3485 -3.0932
 8772TIP3    H247732   2.071   0.479  16.179  0.4977 -0.9199  1.9558
 8773TIP3   OH247733   3.091   5.381  11.563 -0.1730 -0.7407  0.6440
 8773TIP3    H147734   3.049   5.426  11.490 -0.1157 -1.1349  0.3669
 8773TIP3    H247735   3.096   5.447  11.633 -0.2138 -0.3622  0.2881
 8774TIP3   OH247736   0.989   5.915  14.285  0.7576  0.1425 -0.1041
 8774TIP3    H147737   1.046   5.965  14.227  1.0164 -0.9244 -0.8049
 8774TIP3    H247738   1.017   5.940  14.373  0.5336  1.5869 -0.4311
 8775TIP3   OH247739   1.676   1.188   0.106  0.5583  0.7092 -0.1662
 8775TIP3    H147740   1.738   1.173   0.177 -0.5361  0.0375  0.6974
 8775TIP3    H247741   1.695   1.119   0.043 -0.8371 -1.0570  1.2295
 8776TIP3   OH247742   0.341   6.628  13.089  0.5226 -0.1477 -0.0435
 8776TIP3    H147743   0.405   6.649  13.157 -0.0072  1.3214  0.0366
 8776TIP3    H247744   0.277   6.699  13.093  0.0489 -0.4447 -1.5567
 8777TIP3   OH247745   5.255   2.439   1.432 -0.2779  0.0573  0.1757
 8777TIP3    H147746   5.260   2.528   1.467  0.1513  0.2837 -0.4414
 8777TIP3    H247747   5.307   2.442   1.351 -0.3170 -0.7360  0.1130
 8778TIP3   OH247748   3.002   1.178   0.410 -0.3755  0.7881  0.5016
 8778TIP3    H147749   2.929   1.230   0.375  0.8678  2.8722  0.8426
 8778TIP3    H247750   2.966   1.090   0.419 -2.0436  1.1140 -1.8907
 8779TIP3   OH247751   4.099   6.449  16.415 -0.5209 -0.0072 -0.4808
 8779TIP3    H147752   4.183   6.454  16.460  1.1591 -0.5945 -3.2988
 8779TIP3    H247753   4.073   6.540  16.401  0.4133  0.2116 -0.8604
 8780TIP3   OH247754   2.904   5.797   5.273  0.3281  0.1253  0.6722
 8780TIP3    H147755   2.845   5.780   5.201  1.2491  2.2716 -0.6816
 8780TIP3    H247756   2.849   5.790   5.352 -0.6327 -2.5239 -0.1137
 8781TIP3   OH247757   6.700   2.135   1.012 -0.0636  0.2262  0.4254
 8781TIP3    H147758   6.758   2.116   0.939  0.8291  0.1151  1.1491
 8781TIP3    H247759   6.739   2.212   1.054 -1.7976  1.7092 -0.5084
 8782TIP3   OH247760   4.612   2.855   0.744 -0.5400 -0.0423 -0.1079
 8782TIP3    H147761   4.673   2.876   0.814 -0.7585 -0.0281  0.0785
 8782TIP3    H247762   4.530   2.899   0.769 -0.3663  0.7094 -0.8125
 8783TIP3   OH247763   4.674   5.675  11.917 -0.1671  0.3390 -0.0745
 8783TIP3    H147764   4.703   5.678  12.009 -0.6253 -0.5516  0.1009
 8783TIP3    H247765   4.727   5.743  11.874  1.9519 -0.9556  0.3131
 8784TIP3   OH247766   2.424   3.050   4.216 -0.5908 -0.3897 -0.2970
 8784TIP3    H147767   2.503   2.996   4.211 -1.1346 -1.5146  2.0601
 8784TIP3    H247768   2.438   3.107   4.291 -1.5387  0.1965 -0.5519
 8785TIP3   OH247769   3.662   5.210  14.944 -0.0902  0.3203  0.3156
 8785TIP3    H147770   3.688   5.294  14.982 -1.7443  0.7150  0.6489
 8785TIP3    H247771   3.635   5.232  14.854 -2.5754  0.5985  1.0385
 8786TIP3   OH247772   5.513   6.356  16.567 -0.1143 -0.2619  0.3254
 8786TIP3    H147773   5.490   6.269  16.599 -3.1556  0.1685 -0.3725
 8786TIP3    H247774   5.488   6.356  16.475  1.5428  0.8284 -0.1758
 8787TIP3   OH247775   2.637   3.888  12.196 -0.4318  0.1797  0.0230
 8787TIP3    H147776   2.615   3.838  12.118  0.8791  0.5629 -0.6249
 8787TIP3    H247777   2.593   3.972  12.185 -0.5810  0.0828 -0.1109
 8788TIP3   OH247778   6.072   6.191   1.482  0.2769 -0.1036  0.1602
 8788TIP3    H147779   6.027   6.108   1.502 -2.0584  1.1451  0.5014
 8788TIP3    H247780   6.114   6.175   1.398 -1.9635 -1.0402 -0.8942
 8789TIP3   OH247781   5.917   6.522  13.606 -0.0860  0.0103  0.0578
 8789TIP3    H147782   5.953   6.579  13.673 -2.4170  0.9941  0.5572
 8789TIP3    H247783   5.972   6.538  13.529  1.4624  0.2570  1.1564
 8790TIP3   OH247784   3.003   3.560  12.428 -0.2674  0.2627  0.2675
 8790TIP3    H147785   2.915   3.577  12.394 -0.2536  0.5156  0.3560
 8790TIP3    H247786   3.005   3.466  12.445 -0.3732  0.1824 -0.1547
 8791TIP3   OH247787   0.586   6.074  14.279  0.1763 -0.0450  0.4587
 8791TIP3    H147788   0.627   5.990  14.258 -0.1264 -0.1169  0.1371
 8791TIP3    H247789   0.623   6.135  14.215 -2.5337 -0.7478 -2.0152
 8792TIP3   OH247790   5.318   3.186  16.885  0.3339  0.2780  0.3814
 8792TIP3    H147791   5.336   3.229  16.802  1.5387  1.4377  1.1869
 8792TIP3    H247792   5.226   3.204  16.903  0.2469  0.6037 -0.3724
 8793TIP3   OH247793   1.837   2.004   1.946  0.3886 -0.2718  0.1313
 8793TIP3    H147794   1.918   2.049   1.969  0.4545 -1.0450  1.5194
 8793TIP3    H247795   1.863   1.914   1.929 -0.0838 -0.3534 -0.2000
 8794TIP3   OH247796   1.274   0.396   5.578  0.1009 -0.6072  0.1717
 8794TIP3    H147797   1.206   0.420   5.641 -0.1147  2.8479 -1.1638
 8794TIP3    H247798   1.227   0.382   5.496  0.6584 -2.4052  0.1088
 8795TIP3   OH247799   2.397   0.636  16.431 -0.2001  0.1695  0.0187
 8795TIP3    H147800   2.484   0.600  16.414 -0.8175 -1.4397  0.0636
 8795TIP3    H247801   2.408   0.693  16.506  0.7309 -0.4421  0.3609
 8796TIP3   OH247802   0.257   0.547  16.448 -0.7078  0.5420 -0.3074
 8796TIP3    H147803   0.186   0.482  16.448 -0.9282  0.7698 -0.8299
 8796TIP3    H247804   0.252   0.588  16.534  0.3627 -1.1092  0.5948
 8797TIP3   OH247805   0.544   5.260   0.005  0.1153  0.5168  0.3729
 8797TIP3    H147806   0.459   5.219   0.021  0.4422 -0.6800 -0.7656
 8797TIP3    H247807   0.585   5.265   0.091 -0.4583 -0.3933  0.7213
 8798TIP3   OH247808   3.177   6.172  15.539  0.4182 -0.2558  0.3554
 8798TIP3    H147809   3.267   6.165  15.569  0.2433  0.0520  0.9737
 8798TIP3    H247810   3.132   6.097  15.579  0.3638 -0.3164  0.1831
 8799TIP3   OH247811   5.560   3.019  12.628  0.0407  0.2294  1.0408
 8799TIP3    H147812   5.465   3.022  12.632  0.0461  3.4216  1.4386
 8799TIP3    H247813   5.585   2.953  12.692 -1.8731 -1.3157  0.2982
 8800TIP3   OH247814   4.435   3.603  16.856  0.0721 -0.1412  0.3516
 8800TIP3    H147815   4.455   3.510  16.866 -0.8493 -0.4340 -0.2831
 8800TIP3    H247816   4.482   3.646  16.927  0.0099 -1.1671  1.0419
 8801TIP3   OH247817   4.204   1.614   0.557 -0.3535 -0.5976 -0.0118
 8801TIP3    H147818   4.142   1.609   0.630  1.4781  0.2987  1.6857
 8801TIP3    H247819   4.242   1.526   0.553  0.1775 -0.4159  0.7417
 8802TIP3   OH247820   3.935   2.600   4.874 -0.1357  0.2394 -0.2607
 8802TIP3    H147821   4.016   2.571   4.915  1.5017  3.9219 -0.4354
 8802TIP3    H247822   3.872   2.606   4.946 -0.2050 -2.2303 -0.0489
 8803TIP3   OH247823   0.275   6.388   3.155  0.4549 -0.5306  0.4157
 8803TIP3    H147824   0.263   6.371   3.248  0.9918  2.5996  1.1578
 8803TIP3    H247825   0.197   6.350   3.113 -1.2970  0.5778  2.5110
 8804TIP3   OH247826   2.918   1.875  11.484 -0.1576 -1.1822  0.0859
 8804TIP3    H147827   2.910   1.784  11.457  1.0198 -0.5173 -2.8645
 8804TIP3    H247828   2.999   1.906  11.443 -0.6014  1.2566  0.8479
 8805TIP3   OH247829   1.381   3.141   3.392 -0.0104 -0.6880 -0.0804
 8805TIP3    H147830   1.476   3.135   3.378  0.0368 -0.2455  0.0335
 8805TIP3    H247831   1.373   3.185   3.477 -0.3163 -1.0377  0.0718
 8806TIP3   OH247832   4.921   1.933   3.397  0.3045  0.8151 -0.2415
 8806TIP3    H147833   4.967   1.993   3.455  0.6608 -1.4141  1.9752
 8806TIP3    H247834   4.829   1.940   3.422  0.5283 -0.5873  1.1560
 8807TIP3   OH247835   3.863   5.589   0.336  0.0599 -0.4789  0.2616
 8807TIP3    H147836   3.950   5.603   0.298 -0.0104 -1.4223 -0.3008
 8807TIP3    H247837   3.880   5.553   0.423  0.2195  0.8045  0.7850
 8808TIP3   OH247838   1.846   3.506   4.383 -0.8484  0.8968 -0.1652
 8808TIP3    H147839   1.885   3.490   4.297  0.4995 -1.2297  0.7714
 8808TIP3    H247840   1.752   3.512   4.365 -0.7002 -0.5218 -1.6835
 8809TIP3   OH247841   2.019   0.281  15.290  0.7915 -0.4969  0.3441
 8809TIP3    H147842   1.980   0.368  15.301 -0.9718 -1.3335  1.2371
 8809TIP3    H247843   2.107   0.289  15.328  0.3065  0.6676  1.2968
 8810TIP3   OH247844   0.098   1.168  13.020 -0.3189  0.0403  0.3293
 8810TIP3    H147845   0.122   1.260  13.015  0.2834 -0.1922 -1.4722
 8810TIP3    H247846   0.181   1.121  13.015 -0.7427 -0.6417 -0.4190
 8811TIP3   OH247847   4.118   1.213  13.798 -0.4060 -0.0350 -0.0304
 8811TIP3    H147848   4.144   1.176  13.713 -0.4863  1.0264 -0.5339
 8811TIP3    H247849   4.092   1.138  13.850 -3.6610 -0.5084 -2.0494
 8812TIP3   OH247850   5.336   6.428   0.700  0.0142 -0.3681 -0.4066
 8812TIP3    H147851   5.394   6.472   0.639  0.5909  1.0547  1.0860
 8812TIP3    H247852   5.259   6.485   0.707 -0.8655 -1.4240 -1.1388
 8813TIP3   OH247853   4.949   3.074   4.398  0.0242  0.0857  0.0252
 8813TIP3    H147854   4.877   3.062   4.460 -0.5802 -3.0768 -1.0966
 8813TIP3    H247855   4.913   3.132   4.330 -0.4940  0.7426  0.8429
 8814TIP3   OH247856   0.630   4.864   3.997  0.6188  0.2959  0.1323
 8814TIP3    H147857   0.623   4.826   4.085 -0.5549  0.5790  0.1786
 8814TIP3    H247858   0.718   4.903   3.995  0.4282  0.8520  1.4142
 8815TIP3   OH247859   5.373   3.905  15.519 -0.9655  0.2258 -0.3362
 8815TIP3    H147860   5.290   3.877  15.481 -0.1263 -0.3135 -1.8496
 8815TIP3    H247861   5.385   3.847  15.595 -1.6106 -0.1766 -0.5363
 8816TIP3   OH247862   3.861   4.048   5.753  0.1354  1.2100 -0.3537
 8816TIP3    H147863   3.836   3.957   5.735 -0.4087  0.9401  1.5248
 8816TIP3    H247864   3.900   4.079   5.672 -0.3207 -0.4822 -1.2603
 8817TIP3   OH247865   2.245   5.280   4.368  0.3591  0.2550  0.9503
 8817TIP3    H147866   2.298   5.355   4.340 -0.1704  0.4613  0.4757
 8817TIP3    H247867   2.167   5.284   4.313 -0.7638  0.7177  2.4965
 8818TIP3   OH247868   5.990   1.335  12.133 -0.1199 -0.2651  0.8124
 8818TIP3    H147869   6.051   1.263  12.122 -1.8317 -1.6880 -0.0012
 8818TIP3    H247870   5.927   1.304  12.198 -1.1900  0.2732  0.0650
 8819TIP3   OH247871   6.263   3.914   4.322 -0.0720 -0.6266  0.1237
 8819TIP3    H147872   6.322   3.932   4.248  2.8702 -3.1295  1.6224
 8819TIP3    H247873   6.278   3.985   4.383  0.3359 -0.5000 -0.1207
 8820TIP3   OH247874   5.834   5.722   2.108  0.2621 -0.3441  0.0325
 8820TIP3    H147875   5.886   5.702   2.031  0.4312 -0.7682  0.2529
 8820TIP3    H247876   5.754   5.763   2.074  1.0341  0.9743 -0.2789
 8821TIP3   OH247877   2.853   6.325  13.062 -1.2574  0.4668 -0.0927
 8821TIP3    H147878   2.925   6.315  13.000 -0.7676  0.1235  0.5183
 8821TIP3    H247879   2.830   6.235  13.087 -1.1510  0.6140  0.5592
 8822TIP3   OH247880   5.272   0.974  16.397 -0.4831  0.3682  0.4635
 8822TIP3    H147881   5.313   1.002  16.315 -0.7250  0.1240  0.2596
 8822TIP3    H247882   5.309   1.033  16.463  1.0255 -0.5303  0.4577
 8823TIP3   OH247883   0.277   4.074  17.213 -0.7433 -0.1896 -0.1774
 8823TIP3    H147884   0.192   4.030  17.222 -1.4692  0.6234 -2.3603
 8823TIP3    H247885   0.317   4.032  17.137 -0.8110  1.8260 -1.3814
 8824TIP3   OH247886   1.486   6.412  14.675 -0.2812 -0.3635  0.8667
 8824TIP3    H147887   1.531   6.487  14.636  1.4281 -1.3377  0.8311
 8824TIP3    H247888   1.452   6.445  14.758  0.9098  0.3454  1.1042
 8825TIP3   OH247889   3.903   1.421  11.360  0.0460 -0.7513  0.4101
 8825TIP3    H147890   3.896   1.342  11.414  0.8280 -0.1386  1.4485
 8825TIP3    H247891   3.884   1.391  11.271  0.7609 -2.2074  0.7147
 8826TIP3   OH247892   5.229   3.096  11.914  0.5833 -0.9703 -0.0395
 8826TIP3    H147893   5.169   3.162  11.949 -0.0900 -0.8154 -1.4177
 8826TIP3    H247894   5.300   3.147  11.875  0.8392 -1.1163  0.2285
 8827TIP3   OH247895   0.880   5.119   3.371 -0.3632  0.1817 -0.6654
 8827TIP3    H147896   0.855   5.125   3.279 -0.6876  1.2048 -0.5163
 8827TIP3    H247897   0.800   5.089   3.415  0.3399 -2.3793 -0.9558
 8828TIP3   OH247898   5.216   1.217   2.189  0.2944 -0.2460  0.6136
 8828TIP3    H147899   5.187   1.145   2.133  0.2539 -1.4978  2.1514
 8828TIP3    H247900   5.306   1.194   2.213  0.0702 -0.1165  1.6171
 8829TIP3   OH247901   1.882   5.670  10.946  0.3827  0.3229  0.2422
 8829TIP3    H147902   1.929   5.752  10.932  1.1352 -0.1460 -0.0775
 8829TIP3    H247903   1.933   5.625  11.014  0.2054 -0.0505  0.1319
 8830TIP3   OH247904   4.999   2.379  13.039  0.3943  0.1519  0.1419
 8830TIP3    H147905   5.066   2.338  12.985 -0.7346 -1.2074 -0.2670
 8830TIP3    H247906   5.019   2.473  13.034  1.8230 -0.1576 -0.5305
 8831TIP3   OH247907   2.539   6.625   6.373  0.0825 -0.3892 -0.7131
 8831TIP3    H147908   2.602   6.553   6.378  0.6434  0.0650 -1.1383
 8831TIP3    H247909   2.563   6.682   6.446 -0.2541 -0.5332 -0.4828
 8832TIP3   OH247910   0.908   2.167  10.963 -0.3134 -0.0245 -0.1741
 8832TIP3    H147911   0.921   2.260  10.980 -1.2680  0.0097  0.4598
 8832TIP3    H247912   0.965   2.147  10.889 -0.1097  1.0622 -0.3184
 8833TIP3   OH247913   0.565   5.877  11.841 -0.9340  0.9015  0.0597
 8833TIP3    H147914   0.591   5.921  11.760  1.4179 -0.7450 -0.1590
 8833TIP3    H247915   0.571   5.945  11.908  2.0376  1.1609 -0.3630
 8834TIP3   OH247916   0.073   2.422   0.283  0.4468  0.2897  0.2352
 8834TIP3    H147917   0.161   2.418   0.319  0.7774  1.0334 -0.4457
 8834TIP3    H247918   0.069   2.349   0.221 -0.0014 -0.7670  1.4649
 8835TIP3   OH247919   3.865   3.546   0.311  0.9697 -0.8820  0.3685
 8835TIP3    H147920   3.818   3.474   0.352  0.8519 -1.2055 -0.3208
 8835TIP3    H247921   3.848   3.536   0.218 -0.0414  0.7471  0.3504
 8836TIP3   OH247922   2.698   1.495  10.606  0.1256  0.1625 -0.0029
 8836TIP3    H147923   2.649   1.415  10.622 -1.0936  0.1332 -3.0970
 8836TIP3    H247924   2.787   1.466  10.586  0.4137 -0.1317  1.6150
 8837TIP3   OH247925   0.258   3.544   5.329  0.4945 -0.3030  0.1852
 8837TIP3    H147926   0.352   3.541   5.312  0.4219  2.1857 -1.0649
 8837TIP3    H247927   0.222   3.475   5.273  1.3049  0.9972 -2.0849
 8838TIP3   OH247928   2.904   5.373   2.765 -0.2698 -0.5723 -0.2022
 8838TIP3    H147929   2.822   5.421   2.753  0.8347  1.2778 -0.8110
 8838TIP3    H247930   2.945   5.413   2.841  1.3971  0.6185 -1.6379
 8839TIP3   OH247931   6.507   3.314   2.070  0.1512  0.0025 -0.9009
 8839TIP3    H147932   6.553   3.368   2.135 -0.0998 -2.0716  1.1430
 8839TIP3    H247933   6.415   3.341   2.079  0.0178 -0.7290  0.1462
 8840TIP3   OH247934   1.201   6.105   4.950 -0.2429 -0.0263 -0.4412
 8840TIP3    H147935   1.288   6.087   4.984 -1.1391 -0.0927  2.0026
 8840TIP3    H247936   1.174   6.022   4.909 -0.2344 -0.9604  1.3488
 8841TIP3   OH247937   5.666   3.918  12.724  0.0336 -0.0150 -0.6798
 8841TIP3    H147938   5.582   3.876  12.708  0.2489 -0.4679 -0.6215
 8841TIP3    H247939   5.692   3.888  12.811  0.1048  0.3769 -0.5632
 8842TIP3   OH247940   6.598   3.710   1.289  0.1688  0.1966  0.1533
 8842TIP3    H147941   6.636   3.756   1.364  2.0931  0.3197 -0.8262
 8842TIP3    H247942   6.662   3.642   1.268 -2.1500 -2.4087  0.9710
 8843TIP3   OH247943   1.092   2.482  16.380  0.0328  0.2758 -0.3574
 8843TIP3    H147944   1.034   2.519  16.446 -0.5455  0.9179 -1.2049
 8843TIP3    H247945   1.173   2.534  16.386 -0.7873  1.7647 -1.5679
 8844TIP3   OH247946   3.537   6.704   5.301 -0.2444  0.1883 -0.4259
 8844TIP3    H147947   3.480   6.664   5.366 -1.6582  0.1549 -1.6282
 8844TIP3    H247948   3.606   6.639   5.285 -1.8214 -1.3096 -1.4567
 8845TIP3   OH247949   1.013   0.248   2.447  0.3375  0.2866  0.5897
 8845TIP3    H147950   0.994   0.285   2.361 -0.7781  1.2733  1.2421
 8845TIP3    H247951   1.002   0.153   2.435 -1.7017  0.5381  0.0590
 8846TIP3   OH247952   4.023   5.913   0.648  0.2965  0.1089  0.4785
 8846TIP3    H147953   4.051   5.871   0.566  1.0396 -1.2789  1.3823
 8846TIP3    H247954   4.085   5.879   0.714 -2.4337 -1.7629  2.3058
 8847TIP3   OH247955   1.878   3.447  14.643  0.1282 -0.6377 -0.4572
 8847TIP3    H147956   1.820   3.488  14.580  1.5343 -0.8691 -1.9684
 8847TIP3    H247957   1.839   3.466  14.728 -0.2354  2.2787 -1.1692
 8848TIP3   OH247958   2.646   4.415  11.502  0.5767  0.1290 -0.0688
 8848TIP3    H147959   2.738   4.402  11.527  0.7785 -0.1840 -0.9551
 8848TIP3    H247960   2.617   4.330  11.470  0.4710  0.6289 -1.3512
 8849TIP3   OH247961   3.730   3.171   3.576  0.1869  0.0078 -0.1210
 8849TIP3    H147962   3.796   3.155   3.644  0.5318 -0.0553 -0.4660
 8849TIP3    H247963   3.748   3.261   3.546  0.8440 -0.4050 -0.9986
 8850TIP3   OH247964   3.728   4.093  17.179  0.3134 -0.2457  0.3414
 8850TIP3    H147965   3.699   4.032  17.246  1.0925 -0.8148  0.1804
 8850TIP3    H247966   3.819   4.069  17.163  0.0696 -0.3070 -1.1026
 8851TIP3   OH247967   5.595   4.129   4.458 -0.3680 -0.1255 -0.0062
 8851TIP3    H147968   5.604   4.148   4.552 -0.8945 -1.3868  0.3303
 8851TIP3    H247969   5.604   4.034   4.453  0.3255 -0.0040 -1.3303
 8852TIP3   OH247970   5.824   5.975  10.374 -0.3810  0.0177  0.5400
 8852TIP3    H147971   5.848   6.046  10.434  2.4415  0.3842 -0.8412
 8852TIP3    H247972   5.782   5.910  10.430 -2.7020  2.5069  1.9341
 8853TIP3   OH247973   5.089   2.105  14.679 -0.0053  0.3001 -0.1136
 8853TIP3    H147974   5.074   2.160  14.603  0.9273  1.8739  0.7746
 8853TIP3    H247975   5.035   2.028  14.665 -1.2935  1.4009 -1.4586
 8854TIP3   OH247976   0.073   4.762   4.189 -0.2198  0.0062 -0.2129
 8854TIP3    H147977   0.103   4.852   4.202 -1.6981  0.4901  0.1026
 8854TIP3    H247978   0.121   4.731   4.112  0.3985  1.0206 -0.2527
 8855TIP3   OH247979   5.438   2.227  16.510 -0.1974  0.2482 -0.1345
 8855TIP3    H147980   5.445   2.164  16.438 -1.6772 -1.2967  0.9853
 8855TIP3    H247981   5.411   2.309  16.468 -1.4867 -0.7311 -1.3212
 8856TIP3   OH247982   0.826   5.375  14.228 -0.2051 -0.0737 -0.0874
 8856TIP3    H147983   0.902   5.433  14.231 -0.6811  0.5247  0.9111
 8856TIP3    H247984   0.816   5.355  14.135  0.5030  0.7444 -0.3580
 8857TIP3   OH247985   4.962   6.108   4.455  0.5809  0.4025 -0.4581
 8857TIP3    H147986   4.906   6.109   4.378 -0.7993 -0.6584  0.4738
 8857TIP3    H247987   4.928   6.178   4.511 -0.0476 -0.4255  0.2337
 8858TIP3   OH247988   4.717   3.367  10.286 -0.8732 -0.1258  0.4444
 8858TIP3    H147989   4.794   3.373  10.229 -1.0132 -1.5915  0.0648
 8858TIP3    H247990   4.749   3.322  10.365 -1.0722  0.3516  0.8007
 8859TIP3   OH247991   6.466   5.629   5.037  0.5756 -0.4127  0.6174
 8859TIP3    H147992   6.545   5.609   4.987 -0.3224 -0.4698 -0.8348
 8859TIP3    H247993   6.487   5.604   5.126  1.8073 -1.4810  0.0574
 8860TIP3   OH247994   4.221   5.291  11.857 -0.3505  0.4904 -0.0651
 8860TIP3    H147995   4.306   5.297  11.902 -0.1965  1.2803 -0.4336
 8860TIP3    H247996   4.224   5.208  11.810 -0.1059  0.1334  0.5621
 8861TIP3   OH247997   0.016   0.844   1.341 -0.4511 -0.6223 -0.3226
 8861TIP3    H147998   0.041   0.755   1.364 -0.7077 -0.4233  0.7561
 8861TIP3    H247999   0.092   0.898   1.364 -0.9828 -0.3243  0.7809
 8862TIP3   OH248000   3.979   0.080  12.719  0.2703 -0.2259 -0.1143
 8862TIP3    H148001   4.025   0.070  12.803  0.3222 -0.8193 -0.2074
 8862TIP3    H248002   3.948  -0.009  12.699 -3.1635  0.5090  1.2110
 8863TIP3   OH248003   2.139   6.049   2.832  0.1076  0.4954 -0.6456
 8863TIP3    H148004   2.142   6.137   2.870  2.0209 -0.1803  0.9829
 8863TIP3    H248005   2.137   6.063   2.738 -0.5785  2.2723 -0.4062
 8864TIP3   OH248006   3.486   6.437  12.631  0.2992  0.6455 -0.1003
 8864TIP3    H148007   3.452   6.524  12.651 -0.4043  0.1888  0.8126
 8864TIP3    H248008   3.503   6.438  12.537 -0.0798  1.6362 -0.1677
 8865TIP3   OH248009   1.292   0.423   1.006 -0.2357  0.4954 -0.1040
 8865TIP3    H148010   1.356   0.486   0.973 -0.5072  0.5772 -0.4786
 8865TIP3    H248011   1.209   0.471   1.006 -0.3088  0.3707  0.3205
 8866TIP3   OH248012   3.782   6.448  15.348 -0.2979 -0.0690  0.0088
 8866TIP3    H148013   3.823   6.516  15.295 -0.2577  0.1405  0.3066
 8866TIP3    H248014   3.855   6.395  15.381 -0.3521 -0.5144 -0.5598
 8867TIP3   OH248015   0.228   1.506   3.163 -0.1220 -0.5791  0.1311
 8867TIP3    H148016   0.281   1.545   3.233 -1.1382  1.0660  0.0446
 8867TIP3    H248017   0.282   1.435   3.129  1.7387  0.5769  0.5094
 8868TIP3   OH248018   2.802   6.769   6.543 -0.0902 -0.7001 -0.1874
 8868TIP3    H148019   2.708   6.764   6.562  0.2496 -1.6567  1.3616
 8868TIP3    H248020   2.817   6.862   6.526 -1.3641 -0.5722 -0.7810
 8869TIP3   OH248021   6.189   0.921   5.950  0.1984  0.6469 -0.0770
 8869TIP3    H148022   6.259   0.980   5.978 -0.0795  0.7366  0.4357
 8869TIP3    H248023   6.128   0.978   5.902  0.1107  0.7126  0.1096
 8870TIP3   OH248024   0.885   1.596   3.957  0.2968 -0.4722 -0.1726
 8870TIP3    H148025   0.829   1.581   4.034 -2.5499 -0.7196 -2.1391
 8870TIP3    H248026   0.909   1.508   3.928 -1.1914 -0.5719 -1.2348
 8871TIP3   OH248027   1.480   0.200   0.457  0.1040 -0.6965  0.0852
 8871TIP3    H148028   1.470   0.238   0.544  0.8298  0.9505 -0.4875
 8871TIP3    H248029   1.572   0.172   0.453  0.4219  0.3480 -0.5151
 8872TIP3   OH248030   0.607   0.566   5.925 -0.0667 -0.0433 -0.0700
 8872TIP3    H148031   0.667   0.600   5.858 -0.7991  0.8573 -0.2729
 8872TIP3    H248032   0.535   0.527   5.875  0.1068 -0.7066  0.1828
 8873TIP3   OH248033   5.513   1.315  14.573 -0.3576  0.7967  0.0460
 8873TIP3    H148034   5.539   1.266  14.495 -2.6957  1.0740 -0.9969
 8873TIP3    H248035   5.595   1.331  14.620  0.8137 -1.6337 -1.0001
 8874TIP3   OH248036   3.818   5.326  17.008 -0.0687 -0.9385  0.6281
 8874TIP3    H148037   3.790   5.254  16.950  1.0053 -1.6567  0.9747
 8874TIP3    H248038   3.882   5.286  17.066  1.6205  0.6080 -0.0674
 8875TIP3   OH248039   5.810   6.448   1.308  0.5826  0.3408  0.2003
 8875TIP3    H148040   5.852   6.532   1.330 -1.0523  1.5494 -1.0401
 8875TIP3    H248041   5.720   6.471   1.288 -0.4332 -2.0269  1.6778
 8876TIP3   OH248042   6.768   6.263  11.288  0.1608  0.0458  0.0443
 8876TIP3    H148043   6.804   6.178  11.262  2.0554  0.8389 -0.0671
 8876TIP3    H248044   6.841   6.324  11.279 -1.2332  1.7663 -0.1817
 8877TIP3   OH248045   2.178   0.611   1.330  0.3140  0.3137 -0.5239
 8877TIP3    H148046   2.097   0.595   1.377  0.8039  0.8525  0.5398
 8877TIP3    H248047   2.247   0.608   1.397  0.9485  1.7957 -1.0561
 8878TIP3   OH248048   4.017   1.791   3.462  0.1492 -0.0432 -0.5235
 8878TIP3    H148049   3.988   1.778   3.552  0.9579 -0.2116 -0.2814
 8878TIP3    H248050   3.964   1.864   3.430 -1.0133 -0.7714 -0.3181
 8879TIP3   OH248051   2.489   1.604   0.488  0.1373  0.1616  0.4911
 8879TIP3    H148052   2.409   1.630   0.442 -0.5995 -1.3843  0.8301
 8879TIP3    H248053   2.557   1.602   0.421  0.6525  4.2717  0.6616
 8880TIP3   OH248054   4.585   4.974   6.707  0.4919  0.2770  0.0326
 8880TIP3    H148055   4.593   4.886   6.672  1.5691  0.1451  0.5680
 8880TIP3    H248056   4.664   5.020   6.677  0.8046  0.5330  1.1919
 8881TIP3   OH248057   2.030   6.665  16.681  0.2303 -0.2073 -0.0992
 8881TIP3    H148058   2.048   6.607  16.755  2.0029  0.1761 -0.1971
 8881TIP3    H248059   2.111   6.666  16.630 -0.5924  0.4101 -1.4537
 8882TIP3   OH248060   4.349   6.502  10.967 -0.1696  0.1355  0.4433
 8882TIP3    H148061   4.395   6.424  11.000  1.2852  0.5178 -0.5595
 8882TIP3    H248062   4.276   6.467  10.916 -0.6339 -0.5184  1.5248
 8883TIP3   OH248063   4.383   3.343   3.960  0.0829  0.5626 -0.2260
 8883TIP3    H148064   4.306   3.294   3.988 -0.3854 -0.5775 -3.2085
 8883TIP3    H248065   4.350   3.409   3.900  0.8356  4.1224  2.8350
 8884TIP3   OH248066   4.993   3.548   4.594 -0.5961 -0.1513 -0.8659
 8884TIP3    H148067   4.956   3.521   4.677 -1.2831  0.4339 -0.9730
 8884TIP3    H248068   5.081   3.510   4.593  0.8777  2.7630  1.7253
 8885TIP3   OH248069   3.209   0.303  16.110  0.0595  0.3955 -0.4399
 8885TIP3    H148070   3.268   0.228  16.106 -0.2363  0.2014 -1.6148
 8885TIP3    H248071   3.158   0.290  16.190 -0.0438 -0.6982 -0.6737
 8886TIP3   OH248072   6.012   3.272   3.801 -0.0518  0.2372 -0.0486
 8886TIP3    H148073   5.928   3.251   3.760  0.8237 -2.0920 -0.8357
 8886TIP3    H248074   6.056   3.329   3.739 -0.4430  0.2113 -0.3526
 8887TIP3   OH248075   6.707   6.748  17.195 -0.0666  0.0052  0.2430
 8887TIP3    H148076   6.785   6.701  17.224  0.6911  1.6304  0.9175
 8887TIP3    H248077   6.740   6.818  17.138 -1.0962  0.2673 -0.0648
 8888TIP3   OH248078   2.855   5.154  14.642  0.1930 -0.4907  0.3514
 8888TIP3    H148079   2.833   5.063  14.622 -0.6772  0.3005 -2.8346
 8888TIP3    H248080   2.776   5.190  14.682 -0.1337 -0.6637 -0.1333
 8889TIP3   OH248081   4.432   3.161  17.078  0.1179 -0.2821 -0.3206
 8889TIP3    H148082   4.366   3.095  17.101 -0.0992 -0.4306 -1.3303
 8889TIP3    H248083   4.480   3.176  17.159 -0.6340 -0.7721  0.2303
 8890TIP3   OH248084   4.721   5.395  11.959  0.6761 -0.3994  0.4544
 8890TIP3    H148085   4.797   5.371  11.906  0.2420  0.3248 -0.5195
 8890TIP3    H248086   4.687   5.474  11.918 -0.0580 -0.1809  1.4452
 8891TIP3   OH248087   4.991   5.535   2.591  0.0276 -0.0506  0.5630
 8891TIP3    H148088   5.064   5.594   2.572 -0.8272  0.6249 -0.8029
 8891TIP3    H248089   4.935   5.585   2.650  0.0369 -0.0649  0.5839
 8892TIP3   OH248090   2.538   5.742  14.316  0.7317 -0.1946 -0.2885
 8892TIP3    H148091   2.626   5.729  14.278  0.6009  1.2685 -1.1807
 8892TIP3    H248092   2.482   5.756  14.240 -0.1942 -0.6208  0.3085
 8893TIP3   OH248093   1.742   5.852   2.344 -0.1050 -0.0550  0.5774
 8893TIP3    H148094   1.695   5.934   2.329 -1.4594 -0.3966  2.5678
 8893TIP3    H248095   1.728   5.832   2.437  0.7640 -2.1919  0.3202
 8894TIP3   OH248096   0.963   2.547   1.649  0.0221 -0.0490  0.0464
 8894TIP3    H148097   1.037   2.583   1.698 -1.8791  0.8943  2.4957
 8894TIP3    H248098   0.901   2.619   1.643 -0.1859 -0.3677 -3.2607
 8895TIP3   OH248099   2.000   4.521  14.121  0.4775 -0.5920 -0.3466
 8895TIP3    H148100   1.926   4.459  14.118 -0.8278  0.8049  1.1893
 8895TIP3    H248101   2.041   4.505  14.205  0.0948  0.6131  0.0956
 8896TIP3   OH248102   3.930   0.185   2.342 -0.3395 -0.0567 -0.1132
 8896TIP3    H148103   3.999   0.152   2.400 -0.9075 -1.5780 -0.2622
 8896TIP3    H248104   3.850   0.179   2.395 -0.5067  0.8588 -0.2429
 8897TIP3   OH248105   2.949   1.313  12.745 -0.0781 -0.0838  0.2630
 8897TIP3    H148106   2.998   1.302  12.664  0.2427  0.9012  0.3137
 8897TIP3    H248107   2.958   1.229  12.790 -0.3387 -0.6761 -0.7510
 8898TIP3   OH248108   2.474   3.735  16.837 -0.3172  0.4090  0.1451
 8898TIP3    H148109   2.535   3.779  16.897  0.9994 -0.7396 -0.2903
 8898TIP3    H248110   2.499   3.766  16.750 -0.5066  0.1197 -0.0131
 8899TIP3   OH248111   0.913   4.876  12.622  0.2280 -0.3732 -0.4695
 8899TIP3    H148112   0.942   4.859  12.711 -0.6239 -0.4220 -0.1903
 8899TIP3    H248113   0.848   4.807  12.604  0.2553 -0.2547 -1.0554
 8900TIP3   OH248114   4.030   0.644   1.066  0.5933  0.2199 -0.2912
 8900TIP3    H148115   3.989   0.628   0.981  4.0341 -2.0354 -1.7662
 8900TIP3    H248116   4.070   0.560   1.089  2.7095  1.6767  1.8406
 8901TIP3   OH248117   0.999   4.084   1.493  0.1197  0.1794  0.1410
 8901TIP3    H148118   1.017   3.992   1.513 -1.3961 -0.5149 -1.4231
 8901TIP3    H248119   1.074   4.132   1.528  1.8103 -1.8372 -0.5295
 8902TIP3   OH248120   0.712   3.414   4.132  0.0926  0.3877 -0.5843
 8902TIP3    H148121   0.667   3.415   4.047 -0.3595  2.5222 -0.3778
 8902TIP3    H248122   0.738   3.505   4.146 -2.2785  0.7510  2.8132
 8903TIP3   OH248123   3.480   4.718  14.389 -0.1418  0.6801 -0.2775
 8903TIP3    H148124   3.565   4.760  14.377  0.8750 -1.8536 -4.2452
 8903TIP3    H248125   3.445   4.708  14.300 -2.7306 -1.9065  0.8189
 8904TIP3   OH248126   0.434   2.629  15.498  0.1884 -0.0384 -0.7506
 8904TIP3    H148127   0.452   2.596  15.586 -1.1079 -2.4846 -1.2914
 8904TIP3    H248128   0.339   2.631  15.492  0.1707 -2.3738 -2.8258
 8905TIP3   OH248129   5.701   6.039   5.976  0.1189  0.1852 -0.1724
 8905TIP3    H148130   5.781   6.046   6.029  1.4311 -2.3607 -1.5737
 8905TIP3    H248131   5.717   5.962   5.921 -2.4369  0.8946 -2.0659
 8906TIP3   OH248132   0.388   5.158  16.938  0.2180 -0.2018  0.1372
 8906TIP3    H148133   0.478   5.135  16.916  0.2737  1.3695 -1.4532
 8906TIP3    H248134   0.391   5.253  16.953 -0.8585 -0.3905  1.8652
 8907TIP3   OH248135   5.906   0.244   5.099  0.2154 -0.1326  0.2330
 8907TIP3    H148136   5.897   0.165   5.044 -0.0094  1.2595 -1.8526
 8907TIP3    H248137   5.816   0.274   5.111  0.3976  0.8366 -0.6443
 8908TIP3   OH248138   1.677   1.515  14.255  0.0319 -0.3140 -0.1318
 8908TIP3    H148139   1.635   1.441  14.298  0.2430 -1.7124 -2.1598
 8908TIP3    H248140   1.606   1.562  14.212  0.1127 -0.5254 -0.5032
 8909TIP3   OH248141   3.839   6.203  12.256  0.3456 -0.5203  0.0693
 8909TIP3    H148142   3.895   6.183  12.181  0.4548 -0.5610  0.1604
 8909TIP3    H248143   3.761   6.150  12.243  1.1365 -1.9797  0.9433
 8910TIP3   OH248144   5.891   3.186   0.001  0.1797 -0.4123  0.6402
 8910TIP3    H148145   5.857   3.108  -0.043 -0.9557  1.1167 -1.4283
 8910TIP3    H248146   5.969   3.210  -0.050 -0.6192  0.8797 -0.0186
 8911TIP3   OH248147   1.263   6.266  11.361 -0.5740  0.2533 -0.3444
 8911TIP3    H148148   1.239   6.341  11.307  0.2145  0.6242 -0.1842
 8911TIP3    H248149   1.285   6.303  11.446  1.4211  0.0351 -0.7226
 8912TIP3   OH248150   5.897   6.701   3.775  0.3609 -0.2487 -0.0506
 8912TIP3    H148151   5.833   6.698   3.846 -0.1115 -1.1610 -0.4985
 8912TIP3    H248152   5.875   6.780   3.726  0.2108 -0.0287  0.3672
 8913TIP3   OH248153   2.242   4.593  13.663  0.1305  0.1903 -0.3942
 8913TIP3    H148154   2.299   4.525  13.700  0.3492 -0.1598 -1.3513
 8913TIP3    H248155   2.179   4.544  13.608  0.8310  0.8129 -1.7891
 8914TIP3   OH248156   5.521   6.107   1.850  0.2422 -0.2931 -0.2301
 8914TIP3    H148157   5.501   6.200   1.843  3.0506  0.4430  0.5691
 8914TIP3    H248158   5.529   6.078   1.759  1.1914  0.7138 -0.4901
 8915TIP3   OH248159   0.788   1.794  13.824  0.2404  0.2397 -0.3649
 8915TIP3    H148160   0.710   1.831  13.866 -1.2911  0.5117 -3.2337
 8915TIP3    H248161   0.850   1.867  13.819 -0.5183  0.8660 -0.7848
 8916TIP3   OH248162   4.419   6.530   4.610  0.1328  0.1840  0.1627
 8916TIP3    H148163   4.436   6.438   4.590 -2.9173 -0.3014 -0.7221
 8916TIP3    H248164   4.391   6.568   4.526  1.2924  1.9592  0.5212
 8917TIP3   OH248165   4.065   6.196   2.798  0.2447  0.0883  0.1119
 8917TIP3    H148166   4.025   6.245   2.727 -0.1224  1.2071  1.0659
 8917TIP3    H248167   4.122   6.132   2.754  0.3277  1.0077 -1.1736
 8918TIP3   OH248168   1.283   6.317   6.585  0.2070  0.4820  0.0861
 8918TIP3    H148169   1.197   6.355   6.566  0.2891 -0.1131 -1.7291
 8918TIP3    H248170   1.344   6.390   6.575  0.0652  0.5540 -0.2728
 8919TIP3   OH248171   4.154   5.452  13.203  0.2474 -0.4335  0.1533
 8919TIP3    H148172   4.100   5.522  13.165  0.5266 -0.2314  0.1273
 8919TIP3    H248173   4.102   5.373  13.191 -0.5367 -0.0920  1.0943
 8920TIP3   OH248174   0.335   1.503  12.640  0.0632  0.0366 -0.0231
 8920TIP3    H148175   0.263   1.511  12.704  0.3806  0.5933  0.2700
 8920TIP3    H248176   0.353   1.409  12.637 -0.6463 -0.1022 -0.0608
 8921TIP3   OH248177   3.315   2.208  16.860 -0.0155 -0.0782  0.2977
 8921TIP3    H148178   3.407   2.227  16.878 -0.1647  1.0645 -0.0579
 8921TIP3    H248179   3.284   2.164  16.940  1.5226 -3.1937 -0.6755
 8922TIP3   OH248180   1.719   5.804   2.894 -0.2822  0.5636 -0.4594
 8922TIP3    H148181   1.674   5.784   2.976 -2.5625 -0.3094 -1.8309
 8922TIP3    H248182   1.801   5.844   2.921 -0.7638 -0.0825  2.2445
 8923TIP3   OH248183   1.944   5.136   3.338  0.2094  0.2554  0.2918
 8923TIP3    H148184   1.946   5.075   3.412 -1.5351  0.8919  0.9140
 8923TIP3    H248185   1.894   5.211   3.370 -0.0029  0.8402 -1.3109
 8924TIP3   OH248186   4.144   5.759  12.132 -0.3899 -0.3840  0.5939
 8924TIP3    H148187   4.102   5.778  12.048 -3.2069  0.2972  2.0393
 8924TIP3    H248188   4.110   5.826  12.192  1.5786 -0.8085  2.3115
 8925TIP3   OH248189   0.522   1.810   2.295  0.3715  0.1990  1.1139
 8925TIP3    H148190   0.587   1.827   2.363  0.3530  2.7645  0.6228
 8925TIP3    H248191   0.451   1.871   2.314 -0.5056 -0.3935 -0.1059
 8926TIP3   OH248192   3.520   1.873  14.736 -0.3621 -0.1317  0.2234
 8926TIP3    H148193   3.535   1.932  14.810  0.8775  1.2374 -1.0552
 8926TIP3    H248194   3.548   1.787  14.767 -0.0565  0.3766  1.4031
 8927TIP3   OH248195   6.626   2.285  15.029 -0.0650  0.3006 -0.3027
 8927TIP3    H148196   6.656   2.346  14.962 -0.0131  1.8484  1.0631
 8927TIP3    H248197   6.667   2.202  15.007  1.0365  1.1078 -1.4017
 8928TIP3   OH248198   6.769   3.793   0.976 -0.0028  0.3274 -0.3850
 8928TIP3    H148199   6.793   3.700   0.968 -1.0168  0.1843 -3.0962
 8928TIP3    H248200   6.817   3.824   1.052  0.9941 -2.2310  0.1437
 8929TIP3   OH248201   2.650   1.219  15.049 -0.2565  0.2910 -0.4941
 8929TIP3    H148202   2.700   1.256  15.122 -0.0807 -0.7258 -0.0695
 8929TIP3    H248203   2.698   1.139  15.026  0.1778  1.0047 -2.2913
 8930TIP3   OH248204   4.126   0.058  16.510  0.0507  0.1504 -0.1127
 8930TIP3    H148205   4.081   0.001  16.447  1.3955 -1.6693  0.5009
 8930TIP3    H248206   4.116   0.146  16.473 -0.7337 -0.6387 -1.9330
 8931TIP3   OH248207   6.150   4.893   2.211 -0.2602  0.3517  0.2357
 8931TIP3    H148208   6.137   4.891   2.306 -1.6016  1.0341  0.0900
 8931TIP3    H248209   6.069   4.858   2.175  0.1861  0.2153 -0.6770
 8932TIP3   OH248210   0.980   3.287  14.414  0.6295  0.4814 -0.2768
 8932TIP3    H148211   0.999   3.226  14.343  1.1350  1.2908 -0.8468
 8932TIP3    H248212   0.952   3.231  14.487  0.6915 -0.3943 -0.9165
 8933TIP3   OH248213   3.017   1.024   2.086 -0.2416  0.0754 -0.2207
 8933TIP3    H148214   3.083   0.956   2.070  0.2172  0.5270 -0.3023
 8933TIP3    H248215   2.978   1.001   2.170  0.6371  0.2668  0.2638
 8934TIP3   OH248216   1.503   1.544   3.858  0.0763  0.2967  0.0102
 8934TIP3    H148217   1.582   1.577   3.814  0.8342 -2.7019 -1.0896
 8934TIP3    H248218   1.431   1.580   3.806  0.8406  0.2277 -1.1331
 8935TIP3   OH248219   1.829   4.199   4.142  0.3559 -0.2036  0.0720
 8935TIP3    H148220   1.738   4.208   4.172 -0.1169  0.0410 -1.3553
 8935TIP3    H248221   1.860   4.289   4.133  0.0202 -0.2109 -1.4528
 8936TIP3   OH248222   0.340   4.738   6.460 -0.3924 -0.2754  0.0670
 8936TIP3    H148223   0.387   4.721   6.542  0.3312  0.6209 -0.1432
 8936TIP3    H248224   0.265   4.678   6.462  1.5674 -2.9341 -0.3252
 8937TIP3   OH248225   3.331   5.803   1.875 -0.5284 -0.0304  0.3217
 8937TIP3    H148226   3.364   5.714   1.891 -1.6601 -0.3323  1.1559
 8937TIP3    H248227   3.406   5.850   1.839  0.5054 -0.9563  1.1568
 8938TIP3   OH248228   4.820   2.885   0.561  0.4954 -0.2387  0.4964
 8938TIP3    H148229   4.870   2.953   0.606 -0.9573  0.9146  0.4547
 8938TIP3    H248230   4.743   2.871   0.616 -0.6116  0.1857 -0.8812
 8939TIP3   OH248231   5.893   5.919  15.160  0.0305  0.0604 -0.0546
 8939TIP3    H148232   5.881   5.887  15.071  1.0072 -1.9489  0.4858
 8939TIP3    H248233   5.878   6.014  15.154  1.5859  0.2221 -2.6335
 8940TIP3   OH248234   0.028   6.722  13.557  0.1887  0.2081  0.2896
 8940TIP3    H148235   0.030   6.638  13.512 -0.3069 -1.1222  2.5658
 8940TIP3    H248236  -0.027   6.777  13.503 -0.2957 -1.2482 -0.7645
 8941TIP3   OH248237   1.098   3.589  15.737  0.3060  0.2385 -0.6407
 8941TIP3    H148238   1.105   3.549  15.824 -0.2743 -2.1639 -1.6293
 8941TIP3    H248239   1.186   3.582  15.700 -0.1143 -1.6653 -1.3931
 8942TIP3   OH248240   4.276   4.619  10.914 -0.0729  0.1490  0.2326
 8942TIP3    H148241   4.350   4.680  10.915 -0.5581  0.7816 -1.2099
 8942TIP3    H248242   4.317   4.533  10.926  0.6390  0.6825  2.0889
 8943TIP3   OH248243   2.399   0.875  16.567  0.0407 -0.0399 -0.0338
 8943TIP3    H148244   2.382   0.903  16.657 -0.9952  0.6707 -0.4255
 8943TIP3    H248245   2.468   0.933  16.536  1.1674 -0.9950  0.6355
 8944TIP3   OH248246   0.503   4.034  12.188 -0.1469  0.4404  0.0612
 8944TIP3    H148247   0.469   3.962  12.241  0.8879  0.4210  0.7290
 8944TIP3    H248248   0.463   4.021  12.102 -0.1413 -0.8239  0.2229
 8945TIP3   OH248249   3.650   3.219   1.290  0.7246  0.0534 -0.2507
 8945TIP3    H148250   3.709   3.292   1.274  1.0527 -0.1134  0.1833
 8945TIP3    H248251   3.574   3.258   1.334  1.0225  0.0926  0.2340
 8946TIP3   OH248252   3.820   1.149  15.510  0.0161 -0.4695 -0.1047
 8946TIP3    H148253   3.827   1.116  15.599 -0.3207  1.6662  0.7688
 8946TIP3    H248254   3.757   1.090  15.467 -0.8084 -0.7676  1.4467
 8947TIP3   OH248255   0.625   5.933  11.424 -0.3588 -0.1502  0.4623
 8947TIP3    H148256   0.675   5.982  11.489 -1.0648 -0.8651  1.5870
 8947TIP3    H248257   0.634   5.983  11.343  1.6187  0.0884  0.7745
 8948TIP3   OH248258   6.432   3.719  13.092  0.0018  0.1243 -0.3628
 8948TIP3    H148259   6.472   3.649  13.040 -0.4397  0.1238 -0.7129
 8948TIP3    H248260   6.505   3.776  13.115  0.3057 -0.2381 -0.4169
 8949TIP3   OH248261   1.625   2.713  16.481  0.6061 -0.6241 -0.0102
 8949TIP3    H148262   1.624   2.715  16.385 -1.0616 -1.5153 -0.0529
 8949TIP3    H248263   1.576   2.791  16.506  1.0445 -0.3905  0.1265
 8950TIP3   OH248264   1.761   0.903   6.148  0.3905  0.4772  0.2594
 8950TIP3    H148265   1.821   0.967   6.188  1.2802 -0.1194 -0.0911
 8950TIP3    H248266   1.794   0.818   6.177 -0.4768  0.1494  0.3054
 8951TIP3   OH248267   1.420   0.517   2.477 -0.7141  0.4710  0.3483
 8951TIP3    H148268   1.401   0.434   2.432 -2.1708  1.1432 -0.3264
 8951TIP3    H248269   1.439   0.579   2.406 -1.2853  1.1120  0.7419
 8952TIP3   OH248270   5.081   1.664   0.806  0.0792 -0.3877 -0.0521
 8952TIP3    H148271   5.076   1.655   0.711  2.5184 -1.5130 -0.1547
 8952TIP3    H248272   5.012   1.726   0.828  0.6712  1.4096 -2.7703
 8953TIP3   OH248273   4.191   3.213   1.336  0.1196  0.1660 -0.5065
 8953TIP3    H148274   4.267   3.155   1.336 -0.8720 -1.1708 -0.1070
 8953TIP3    H248275   4.223   3.294   1.377  0.8488 -1.0415  1.4437
 8954TIP3   OH248276   3.730   4.058  16.521 -0.3042  0.4601 -0.2038
 8954TIP3    H148277   3.643   4.068  16.559  0.1447 -2.3741  1.9310
 8954TIP3    H248278   3.786   4.113  16.575 -0.1538 -1.1827  1.4056
 8955TIP3   OH248279   5.759   4.839   3.684  0.3805 -0.2684 -0.0040
 8955TIP3    H148280   5.723   4.789   3.611  1.8604 -1.8061  0.2354
 8955TIP3    H248281   5.683   4.877   3.727 -0.7606 -1.6108 -0.7279
 8956TIP3   OH248282   1.171   2.282  13.595 -0.1123  0.2385 -0.5710
 8956TIP3    H148283   1.190   2.315  13.683 -0.0078  0.1864 -0.5740
 8956TIP3    H248284   1.247   2.227  13.573 -0.3962 -0.2063 -0.4618
 8957TIP3   OH248285   0.894   4.455   0.243 -0.3182  0.3207  0.5621
 8957TIP3    H148286   0.837   4.378   0.253  0.1059 -0.1710 -0.6411
 8957TIP3    H248287   0.875   4.486   0.155 -0.1169  1.3163  0.8641
 8958TIP3   OH248288   0.998   4.401  11.512  0.0030 -0.1989 -0.5017
 8958TIP3    H148289   1.026   4.493  11.506 -1.7812  0.3355 -1.2727
 8958TIP3    H248290   1.071   4.352  11.475  1.9628  0.6571  1.9114
 8959TIP3   OH248291   2.240   5.691   5.768  0.2847  0.1515  0.0152
 8959TIP3    H148292   2.234   5.648   5.854 -2.4540  0.2384 -0.0542
 8959TIP3    H248293   2.149   5.701   5.740  1.1058 -0.1441 -3.0661
 8960TIP3   OH248294   6.136   5.001   4.122  0.3370 -0.2497 -0.2132
 8960TIP3    H148295   6.205   5.065   4.104  1.3309 -0.6149  1.9812
 8960TIP3    H248296   6.103   5.025   4.209 -2.5028  0.0262 -1.2630
 8961TIP3   OH248297   2.937   3.145  10.784 -0.2833 -0.2418  0.3297
 8961TIP3    H148298   3.003   3.210  10.808 -1.0550  0.8281 -0.3344
 8961TIP3    H248299   2.900   3.178  10.702 -0.7949 -1.4538  0.0556
 8962TIP3   OH248300   4.709   1.577   4.717  0.5149  0.3380 -0.3975
 8962TIP3    H148301   4.721   1.609   4.628  0.0435 -0.5702 -0.8013
 8962TIP3    H248302   4.626   1.528   4.715  2.8034 -4.0009 -0.7858
 8963TIP3   OH248303   2.977   0.845  13.215 -0.1236 -0.7829 -0.5155
 8963TIP3    H148304   3.067   0.879  13.220 -0.8417  1.1631 -0.3238
 8963TIP3    H248305   2.960   0.811  13.303  0.0329 -0.0938 -0.2121
 8964TIP3   OH248306   6.637   1.765   2.577 -0.1347 -0.1740  0.2025
 8964TIP3    H148307   6.692   1.835   2.613  1.3560 -1.0667 -0.2404
 8964TIP3    H248308   6.580   1.809   2.515  0.7630  0.6709 -0.0563
 8965TIP3   OH248309   3.454   5.187  16.622  0.7518 -0.1635  0.0345
 8965TIP3    H148310   3.405   5.148  16.694  1.8973 -0.2353  0.8102
 8965TIP3    H248311   3.436   5.132  16.546 -0.4804 -0.0813  0.2489
 8966TIP3   OH248312   2.092   4.579  15.513 -0.0808 -0.0820  0.6584
 8966TIP3    H148313   2.173   4.599  15.467 -1.8117  1.6464 -1.8871
 8966TIP3    H248314   2.101   4.622  15.598  1.8207 -0.3043  0.6005
 8967TIP3   OH248315   4.066   1.324   0.291 -0.9276  0.3412  0.3638
 8967TIP3    H148316   4.017   1.367   0.221  0.1391 -0.3237 -0.8233
 8967TIP3    H248317   4.150   1.302   0.252 -0.7662 -1.1942  1.4837
 8968TIP3   OH248318   1.167   6.429   1.293  0.3608  0.4119 -0.3912
 8968TIP3    H148319   1.089   6.377   1.313 -0.0673  0.8673 -0.8653
 8968TIP3    H248320   1.202   6.454   1.378  0.2388 -0.1551 -0.1683
 8969TIP3   OH248321   3.666   4.690  12.554 -0.8528  0.3551  0.4430
 8969TIP3    H148322   3.649   4.697  12.460 -0.3529 -0.8052  0.2422
 8969TIP3    H248323   3.593   4.637  12.587 -0.7111  0.2568  0.6004
 8970TIP3   OH248324   3.841   6.660  15.197 -0.6701  0.0850  0.3796
 8970TIP3    H148325   3.785   6.734  15.172  0.2938  1.3949  1.8812
 8970TIP3    H248326   3.916   6.666  15.137 -1.3342 -0.6746 -0.5510
 8971TIP3   OH248327   5.295   4.008  13.632 -0.1991 -0.1374 -0.2686
 8971TIP3    H148328   5.336   4.086  13.670  1.0453 -1.1476  0.5487
 8971TIP3    H248329   5.215   3.997  13.683 -1.1207  1.3562 -1.3033
 8972TIP3   OH248330   0.686   1.501   6.100  0.0763  0.3167  0.1828
 8972TIP3    H148331   0.616   1.494   6.164 -1.0335  2.2484 -0.7190
 8972TIP3    H248332   0.647   1.472   6.017  0.4596  0.9970 -0.2471
 8973TIP3   OH248333   3.309   6.283   1.089 -0.2625 -0.1877  0.2065
 8973TIP3    H148334   3.249   6.292   1.015 -0.1955 -0.9886  0.0449
 8973TIP3    H248335   3.258   6.234   1.155  0.9813 -3.2827 -0.9224
 8974TIP3   OH248336   0.912   1.056  16.693 -0.3865  0.1836  0.0752
 8974TIP3    H148337   1.000   1.092  16.702 -0.2120  0.1324 -1.1975
 8974TIP3    H248338   0.912   0.977  16.747 -0.7496  1.9513  2.8413
 8975TIP3   OH248339   4.364   5.318  13.290 -0.3520  0.3739 -0.0729
 8975TIP3    H148340   4.366   5.239  13.236 -1.0911  0.1548  0.2148
 8975TIP3    H248341   4.297   5.374  13.250  0.3134  0.9517 -0.4004
 8976TIP3   OH248342   0.800   2.874  15.890  0.5952  0.4565 -0.5231
 8976TIP3    H148343   0.890   2.874  15.859  1.1202  0.3036  0.9219
 8976TIP3    H248344   0.750   2.914  15.819  1.7560  0.3264 -1.4414
 8977TIP3   OH248345   2.154   4.308  16.482 -0.1473  0.1870 -0.4614
 8977TIP3    H148346   2.205   4.275  16.409  1.8465  0.6371  0.6442
 8977TIP3    H248347   2.063   4.294  16.457  0.4043  1.3088 -3.4851
 8978TIP3   OH248348   2.696   5.504  11.432 -0.4666  0.5453  0.0815
 8978TIP3    H148349   2.654   5.418  11.432  0.1722  0.1956  1.4890
 8978TIP3    H248350   2.750   5.504  11.353 -0.4203 -0.3792  0.0966
 8979TIP3   OH248351   0.568   5.322  14.696 -0.5516  0.0157 -0.0390
 8979TIP3    H148352   0.551   5.288  14.609 -1.8752  1.0639 -0.2250
 8979TIP3    H248353   0.490   5.298  14.747 -0.5392  0.8513  0.3912
 8980TIP3   OH248354   1.728   2.191  16.096  0.5258 -0.1999 -0.3054
 8980TIP3    H148355   1.716   2.286  16.094 -0.6084 -0.3349 -1.0068
 8980TIP3    H248356   1.686   2.163  16.177 -1.3478 -0.3275 -1.2551
 8981TIP3   OH248357   2.405   5.201   1.347 -0.2644  0.0903 -0.1677
 8981TIP3    H148358   2.490   5.162   1.368  0.1044  0.7793 -0.3468
 8981TIP3    H248359   2.375   5.153   1.270 -0.6972 -1.0992  0.7254
 8982TIP3   OH248360   0.608   1.456   2.411  0.7071  0.1404  0.1294
 8982TIP3    H148361   0.653   1.408   2.341  0.3680  0.9095 -0.6458
 8982TIP3    H248362   0.526   1.484   2.371  0.6293  0.8353  0.7520
 8983TIP3   OH248363   3.497   5.015   2.375  0.2901  0.1656 -0.1472
 8983TIP3    H148364   3.561   5.077   2.342  2.5628 -2.1518 -0.4265
 8983TIP3    H248365   3.437   5.001   2.301  1.9800 -0.7022 -1.4422
 8984TIP3   OH248366   2.017   3.968  16.541 -0.2186  0.0487  0.3372
 8984TIP3    H148367   1.928   3.990  16.570  0.2512 -0.0963  1.9448
 8984TIP3    H248368   2.005   3.934  16.452 -1.7457  0.2193  0.4529
 8985TIP3   OH248369   0.190   3.406   4.512 -0.6870 -0.2747  0.5465
 8985TIP3    H148370   0.233   3.485   4.545  0.5383 -0.8795  0.4575
 8985TIP3    H248371   0.096   3.424   4.522 -0.4591  1.3911  0.0384
 8986TIP3   OH248372   3.383   5.654   4.861  0.3226  0.0601 -0.5907
 8986TIP3    H148373   3.361   5.638   4.953  0.0928 -0.3816 -0.7241
 8986TIP3    H248374   3.342   5.739   4.842 -0.2980 -0.2116 -0.5058
 8987TIP3   OH248375   6.721   2.889  16.976 -0.3082 -0.3514 -0.1361
 8987TIP3    H148376   6.730   2.950  16.903  0.5190  0.2112  0.4261
 8987TIP3    H248377   6.794   2.909  17.035 -0.0753 -1.8109  0.1247
 8988TIP3   OH248378   3.430   6.286   2.055 -0.2405 -0.2897 -0.2922
 8988TIP3    H148379   3.402   6.199   2.086 -0.3073 -0.5986 -1.2044
 8988TIP3    H248380   3.523   6.275   2.035  0.3449  0.4611  1.7350
 8989TIP3   OH248381   2.243   5.702  16.714  0.4233  0.1811  0.3953
 8989TIP3    H148382   2.179   5.771  16.731 -0.8638 -0.6674 -0.7360
 8989TIP3    H248383   2.193   5.621  16.725  0.5114 -0.5030 -3.0429
 8990TIP3   OH248384   2.058   6.205   0.663 -0.3574 -0.4661  0.7099
 8990TIP3    H148385   1.971   6.241   0.680 -0.7286 -1.9365  2.2675
 8990TIP3    H248386   2.055   6.178   0.571 -2.0537 -1.6853  1.0697
 8991TIP3   OH248387   3.948   6.358   5.833  0.0845 -0.1904 -0.1698
 8991TIP3    H148388   3.958   6.448   5.865 -0.7174  0.1658 -0.8807
 8991TIP3    H248389   4.037   6.326   5.826  0.3621  0.3529  0.6263
 8992TIP3   OH248390   4.772   6.126  15.120  0.5608  0.3722  0.2029
 8992TIP3    H148391   4.704   6.119  15.186 -0.1728  0.7718 -0.4974
 8992TIP3    H248392   4.833   6.055  15.141 -1.1613 -1.4019 -0.4002
 8993TIP3   OH248393   5.126   2.277  11.802 -0.3299  0.0275 -0.6509
 8993TIP3    H148394   5.053   2.287  11.741 -0.9834  0.0507  0.1191
 8993TIP3    H248395   5.174   2.359  11.797 -1.0351  0.4686 -0.3082
 8994TIP3   OH248396   0.259   1.177   1.740  0.3836  0.1372  0.6445
 8994TIP3    H148397   0.267   1.216   1.653  1.3992  1.9157  1.4865
 8994TIP3    H248398   0.349   1.166   1.771  0.0737 -1.5993  1.0198
 8995TIP3   OH248399   0.527   0.120  12.763 -0.4248  0.3205 -0.4023
 8995TIP3    H148400   0.497   0.192  12.708 -3.0715 -1.2543 -1.1960
 8995TIP3    H248401   0.576   0.062  12.704  0.5905  0.7923 -0.0492
 8996TIP3   OH248402   1.175   5.128   3.649 -0.0917  0.0287  0.1560
 8996TIP3    H148403   1.148   5.164   3.565 -1.6802 -0.2088  0.5282
 8996TIP3    H248404   1.098   5.081   3.681  0.8126 -0.7637  1.2724
 8997TIP3   OH248405   1.103   4.438   3.237  0.0990 -0.1740 -0.3590
 8997TIP3    H148406   1.071   4.512   3.185 -1.9137  0.0657  1.0910
 8997TIP3    H248407   1.076   4.361   3.188 -1.0163  0.0516 -0.1182
 8998TIP3   OH248408   2.434   0.269  16.899  0.0151  0.3490  0.6048
 8998TIP3    H148409   2.454   0.304  16.812 -0.5174  2.3015  1.2049
 8998TIP3    H248410   2.379   0.193  16.882  0.9216 -0.0354 -0.7899
 8999TIP3   OH248411   3.150   5.711   3.091 -0.2669 -0.1169  0.4350
 8999TIP3    H148412   3.089   5.712   3.018 -1.3822 -2.2557  1.2352
 8999TIP3    H248413   3.112   5.649   3.154  2.8159 -1.8132  0.8622
 9000TIP3   OH248414   3.891   4.588   5.289  0.0956  0.0415  0.6799
 9000TIP3    H148415   3.963   4.526   5.280 -0.2234 -0.3493  0.7756
 9000TIP3    H248416   3.830   4.564   5.220  2.0701  3.2401 -2.5244
 9001TIP3   OH248417   4.355   5.622  16.425 -0.1014 -0.3919 -0.1845
 9001TIP3    H148418   4.361   5.526  16.433 -0.7086 -0.3229  1.4524
 9001TIP3    H248419   4.446   5.651  16.431 -0.0283 -0.7877  0.8058
 9002TIP3   OH248420   3.471   1.173  16.088 -0.5197 -0.1569  0.2703
 9002TIP3    H148421   3.528   1.101  16.059  0.2378 -0.4953  2.4305
 9002TIP3    H248422   3.515   1.252  16.056 -1.3649 -0.5566 -2.1464
 9003TIP3   OH248423   0.784   6.774   5.683  0.0979  0.3622  0.7187
 9003TIP3    H148424   0.757   6.791   5.592  2.9628 -3.0259 -1.0061
 9003TIP3    H248425   0.873   6.811   5.688 -0.4340  1.5052  2.6029
 9004TIP3   OH248426   2.970   4.635   4.700 -0.4445 -0.3526 -0.9301
 9004TIP3    H148427   2.940   4.588   4.778  0.9856  0.5669  0.2106
 9004TIP3    H248428   3.013   4.568   4.647 -0.5115 -0.7887 -0.4376
 9005TIP3   OH248429   6.447   4.951   1.630  0.0543  0.0671  0.0465
 9005TIP3    H148430   6.431   5.041   1.658 -1.0366  0.0245 -0.3810
 9005TIP3    H248431   6.366   4.905   1.651 -0.3921 -0.2117 -2.0869
 9006TIP3   OH248432   1.429   3.796  14.314 -0.1274  0.3194 -0.5581
 9006TIP3    H148433   1.384   3.846  14.246  0.5109  1.1705 -0.3632
 9006TIP3    H248434   1.378   3.814  14.393 -0.1014  0.3888 -0.5560
 9007TIP3   OH248435   4.845   2.986   0.264  0.2326 -0.2962  0.0960
 9007TIP3    H148436   4.838   2.926   0.190  1.0646  0.0826 -0.2985
 9007TIP3    H248437   4.836   2.930   0.341 -2.0318 -0.5205 -0.2631
 9008TIP3   OH248438   0.661   2.533  14.290  0.0011  0.3020  0.2825
 9008TIP3    H148439   0.583   2.486  14.320  0.6938  0.2680  2.1423
 9008TIP3    H248440   0.635   2.573  14.206 -1.6076 -0.7037  0.2763
 9009TIP3   OH248441   0.162   5.234  12.161  0.3933  0.3049 -0.0152
 9009TIP3    H148442   0.136   5.244  12.069  0.3150  0.7065  0.0529
 9009TIP3    H248443   0.184   5.322  12.190  1.7020  0.0037 -0.0345
 9010TIP3   OH248444   3.513   0.244   0.113  0.1147  0.0988 -0.2736
 9010TIP3    H148445   3.446   0.290   0.062 -0.5804  0.1228  0.6422
 9010TIP3    H248446   3.503   0.152   0.087  0.5071  0.2465 -0.9883
 9011TIP3   OH248447   1.132   4.666   0.750 -0.4842 -0.1201 -0.0948
 9011TIP3    H148448   1.075   4.637   0.821  1.6338  0.0841  1.8002
 9011TIP3    H248449   1.159   4.754   0.774  0.9184 -0.3452 -0.7119
 9012TIP3   OH248450   0.449   5.335   4.389  0.7192  0.3455  0.2131
 9012TIP3    H148451   0.493   5.325   4.304  1.7818 -0.1750  0.7994
 9012TIP3    H248452   0.356   5.337   4.368  0.8279 -2.0413 -0.7906
 9013TIP3   OH248453   3.565   2.614  12.165  0.3803 -0.5398  0.0148
 9013TIP3    H148454   3.569   2.613  12.260 -1.9343 -1.1524  0.1752
 9013TIP3    H248455   3.575   2.522  12.140 -0.3507 -0.5603 -0.2235
 9014TIP3   OH248456   1.102   5.652  12.873 -0.0760  0.5038  0.1348
 9014TIP3    H148457   1.063   5.571  12.841 -1.8249  0.7434  1.4889
 9014TIP3    H248458   1.116   5.705  12.795  0.1534 -0.6894 -0.6647
 9015TIP3   OH248459   2.048   3.080   3.846 -0.2089 -0.1593  0.1860
 9015TIP3    H148460   1.978   3.059   3.908  0.1693 -0.9356  0.3601
 9015TIP3    H248461   2.121   3.025   3.873  0.1318 -0.1154 -0.6324
 9016TIP3   OH248462   3.346   2.316   6.666  0.7189  0.0518  0.0126
 9016TIP3    H148463   3.275   2.379   6.659  0.3511 -0.4573 -0.9896
 9016TIP3    H248464   3.308   2.242   6.714  0.7542  0.0333  0.0125
 9017TIP3   OH248465   1.270   0.697  14.547 -0.5071 -0.2059 -0.4521
 9017TIP3    H148466   1.345   0.736  14.501 -0.2985  1.0682  0.9034
 9017TIP3    H248467   1.197   0.706  14.485 -0.0476  0.6656 -0.8920
 9018TIP3   OH248468   0.276   3.182  11.744 -0.3183 -0.4431 -0.5611
 9018TIP3    H148469   0.287   3.210  11.835 -0.7569 -0.5507 -0.4721
 9018TIP3    H248470   0.341   3.113  11.732 -0.4963 -0.6721 -0.2224
 9019TIP3   OH248471   3.805   4.496   3.544 -0.5612 -0.7053 -0.2974
 9019TIP3    H148472   3.807   4.469   3.636 -2.9892  2.0128  0.7038
 9019TIP3    H248473   3.712   4.501   3.523 -0.0604 -1.5010 -3.0569
 9020TIP3   OH248474   5.755   4.233  13.212 -0.6418  0.3488 -0.5413
 9020TIP3    H148475   5.754   4.246  13.307 -0.1952  0.2332 -0.5194
 9020TIP3    H248476   5.848   4.235  13.189 -0.7279 -0.0103 -0.9227
 9021TIP3   OH248477   5.802   6.109  13.528  0.5287 -0.1019 -0.0161
 9021TIP3    H148478   5.718   6.109  13.482  0.6798 -0.8330 -0.3022
 9021TIP3    H248479   5.862   6.065  13.469  0.2428 -3.1077  1.7203
 9022TIP3   OH248480   4.295   6.345   1.311 -0.3434  0.1871  0.0794
 9022TIP3    H148481   4.375   6.397   1.302 -0.8842  0.7849 -1.5708
 9022TIP3    H248482   4.224   6.408   1.303 -1.0078 -0.4244  0.9105
 9023TIP3   OH248483   5.227   3.666   1.306 -0.1441 -0.0231 -0.1739
 9023TIP3    H148484   5.183   3.751   1.308 -0.0569  0.0300 -0.4213
 9023TIP3    H248485   5.316   3.686   1.276 -0.1106 -0.1962 -0.1885
 9024TIP3   OH248486   1.176   4.554  13.316 -0.4219 -0.2056 -0.3967
 9024TIP3    H148487   1.229   4.479  13.345 -1.4058 -0.4717  0.8115
 9024TIP3    H248488   1.103   4.515  13.269  0.5904  0.1796 -2.3779
 9025TIP3   OH248489   4.382   2.807   2.895 -0.1967 -0.3975  0.3898
 9025TIP3    H148490   4.331   2.846   2.966  0.1635  1.2973 -0.2559
 9025TIP3    H248491   4.330   2.823   2.817 -0.1136 -1.3906  0.1124
 9026TIP3   OH248492   1.116   3.911   5.144  0.0621 -0.6471 -0.1559
 9026TIP3    H148493   1.205   3.881   5.127  0.9178  1.3335  0.5315
 9026TIP3    H248494   1.091   3.957   5.064  0.6634  0.9636  0.5417
 9027TIP3   OH248495   0.508   1.007   2.590  0.4508  0.2234  0.4375
 9027TIP3    H148496   0.538   1.097   2.575  0.8435 -0.1327 -1.0628
 9027TIP3    H248497   0.586   0.960   2.620  0.2966  0.3186  1.0050
 9028TIP3   OH248498   5.888   3.303  11.678 -0.5753 -0.7578  0.2490
 9028TIP3    H148499   5.978   3.317  11.707 -0.6199 -0.9583  0.4876
 9028TIP3    H248500   5.839   3.376  11.716 -0.5248 -0.6796  0.1653
 9029TIP3   OH248501   1.066   1.260   1.491  0.3284  1.2110 -0.0848
 9029TIP3    H148502   0.990   1.290   1.443 -1.6243  0.7372  2.4538
 9029TIP3    H248503   1.074   1.167   1.468 -1.0375  0.8039  0.9462
 9030TIP3   OH248504   4.005   1.039   4.341 -0.1277 -0.4329  0.0981
 9030TIP3    H148505   4.035   1.058   4.252  0.5806  0.3451  0.4789
 9030TIP3    H248506   3.994   0.944   4.344 -1.7357 -0.3234 -1.2815
 9031TIP3   OH248507   5.671   6.565  11.832  0.2270  0.2426  0.6064
 9031TIP3    H148508   5.593   6.602  11.873 -1.4093 -2.3478  0.0672
 9031TIP3    H248509   5.742   6.589  11.891 -1.2289  1.2831  2.0416
 9032TIP3   OH248510   1.523   5.593   5.995 -0.0579 -0.1437  0.2158
 9032TIP3    H148511   1.439   5.577   6.038 -0.6966 -3.3672 -1.8607
 9032TIP3    H248512   1.503   5.649   5.921 -0.5989 -1.5302 -0.7235
 9033TIP3   OH248513   0.670   5.771   2.990  0.1229 -0.1404  0.2459
 9033TIP3    H148514   0.677   5.676   2.999 -1.5813 -0.2093  1.3185
 9033TIP3    H248515   0.671   5.804   3.080  1.4351  0.9578 -0.1306
 9034TIP3   OH248516   0.456   0.085  11.943 -0.6037  0.1706 -0.4982
 9034TIP3    H148517   0.403   0.155  11.906 -0.7074  1.9394  2.6962
 9034TIP3    H248518   0.546   0.120  11.942 -0.6173  0.2726  0.8777
 9035TIP3   OH248519   3.210   6.602   1.127  0.2888  0.0689  0.0485
 9035TIP3    H148520   3.225   6.529   1.187  1.0407 -0.2798 -0.5451
 9035TIP3    H248521   3.218   6.680   1.181  2.0015 -0.1953  0.2308
 9036TIP3   OH248522   3.078   1.295   2.071  0.3329  0.0389 -0.4392
 9036TIP3    H148523   3.021   1.347   2.128  0.2656 -0.4437 -0.0614
 9036TIP3    H248524   3.023   1.221   2.044  0.7962 -0.4607 -0.0262
 9037TIP3   OH248525   2.306   2.773  13.480 -0.3712 -0.4985  0.1363
 9037TIP3    H148526   2.295   2.861  13.443  0.5948 -0.7227 -0.7382
 9037TIP3    H248527   2.298   2.714  13.404 -2.2830 -1.2952  0.8854
 9038TIP3   OH248528   4.670   2.833   2.912 -0.6493 -0.6735 -0.1234
 9038TIP3    H148529   4.694   2.901   2.849 -1.1265  0.2590  0.6758
 9038TIP3    H248530   4.582   2.806   2.885  0.0126 -1.8716 -1.1763
 9039TIP3   OH248531   3.926   0.436   5.223  0.0907  0.1339  0.5994
 9039TIP3    H148532   3.871   0.435   5.302  0.1003  1.4245  0.6349
 9039TIP3    H248533   4.009   0.397   5.252  0.2926  1.1069  1.3971
 9040TIP3   OH248534   0.058   1.554  14.353  0.3763 -0.7640 -0.0687
 9040TIP3    H148535   0.057   1.539  14.448 -2.6382 -1.0885 -0.0635
 9040TIP3    H248536   0.105   1.479  14.318  2.4971 -0.1040  1.1842
 9041TIP3   OH248537   6.661   5.621   4.862 -0.7579  0.0901  0.0782
 9041TIP3    H148538   6.749   5.631   4.826  0.0749  0.2363  1.9844
 9041TIP3    H248539   6.633   5.710   4.881 -0.5401 -0.0485  1.1274
 9042TIP3   OH248540   2.382   2.716  14.437  0.8890  0.3457 -0.3416
 9042TIP3    H148541   2.379   2.769  14.517 -0.5013  1.2295 -0.9233
 9042TIP3    H248542   2.355   2.629  14.465  1.7695  0.2939  0.3815
 9043TIP3   OH248543   2.131   0.144   0.490 -0.5493 -0.3578 -0.1899
 9043TIP3    H148544   2.133   0.214   0.555  1.9737 -0.0839 -0.4656
 9043TIP3    H248545   2.204   0.087   0.513 -0.9899 -1.5132 -1.4780
 9044TIP3   OH248546   3.242   6.003  17.158 -0.0930 -0.5104 -0.1276
 9044TIP3    H148547   3.334   6.027  17.171 -0.7514  2.5902 -0.2849
 9044TIP3    H248548   3.239   5.965  17.070  1.0547 -0.7451 -0.0804
 9045TIP3   OH248549   6.570   0.086   5.200 -0.1108  0.4812 -0.0162
 9045TIP3    H148550   6.486   0.040   5.200  0.3731 -0.4422 -1.3955
 9045TIP3    H248551   6.634   0.020   5.228  0.2212  1.0930  0.7187
 9046TIP3   OH248552   0.212   5.297  14.157 -0.0232  0.8114 -0.2052
 9046TIP3    H148553   0.278   5.228  14.152  2.5752  3.0227  0.9816
 9046TIP3    H248554   0.151   5.278  14.085  1.1008 -2.0932 -0.5058
 9047TIP3   OH248555   4.093   2.302   2.039  0.2728  0.0291 -0.5044
 9047TIP3    H148556   4.153   2.295   2.113  1.1663 -0.2859 -1.2324
 9047TIP3    H248557   4.035   2.227   2.048  0.1191  0.2205  0.1015
 9048TIP3   OH248558   6.740   1.014  16.324  0.5368 -0.3847 -0.0570
 9048TIP3    H148559   6.790   1.055  16.395  0.6421 -1.1363  0.3186
 9048TIP3    H248560   6.780   0.928  16.313 -0.7395 -1.0643  0.3429
 9049TIP3   OH248561   4.621   5.130  12.443 -0.6726 -0.8950  0.9326
 9049TIP3    H148562   4.711   5.121  12.413 -0.8195 -0.1559  0.2196
 9049TIP3    H248563   4.578   5.180  12.374 -2.2875 -3.3741 -0.0017
 9050TIP3   OH248564   1.140   1.708  15.884 -0.0253  0.5467 -0.2491
 9050TIP3    H148565   1.103   1.672  15.965  0.9882 -0.3954 -0.1915
 9050TIP3    H248566   1.234   1.707  15.898  0.1726  0.1986 -1.5086
 9051TIP3   OH248567   3.716   4.174  15.509 -0.0160  0.1565 -0.0603
 9051TIP3    H148568   3.694   4.205  15.597  0.6345  1.8343 -0.4515
 9051TIP3    H248569   3.639   4.196  15.457 -0.6508 -1.3937  0.1857
 9052TIP3   OH248570   5.537   3.150  12.099 -0.4404  0.3499 -0.0262
 9052TIP3    H148571   5.575   3.100  12.171  1.4602  1.2197 -0.3423
 9052TIP3    H248572   5.452   3.178  12.131 -0.7505 -1.4661  0.8622
 9053TIP3   OH248573   0.041   3.138  12.200 -0.5306  0.6526  0.8380
 9053TIP3    H148574   0.014   3.223  12.165 -0.3938  0.3467 -0.0470
 9053TIP3    H248575   0.094   3.159  12.277  0.1149  1.4043  0.2068
 9054TIP3   OH248576   5.537   2.096  11.473 -0.2915  0.3410  0.0926
 9054TIP3    H148577   5.541   2.031  11.543 -0.6910 -0.2060 -0.3852
 9054TIP3    H248578   5.446   2.093  11.441 -0.0695  0.4430 -0.5799
 9055TIP3   OH248579   4.721   5.918  14.410 -0.4711 -0.3560 -0.2413
 9055TIP3    H148580   4.702   5.998  14.361  0.1141  0.2104  0.4288
 9055TIP3    H248581   4.815   5.922  14.427 -0.2659 -1.6212 -0.9257
 9056TIP3   OH248582   1.972   1.166   5.367 -0.5598  0.1818  0.6352
 9056TIP3    H148583   2.006   1.082   5.398  0.6977  1.0505  1.7031
 9056TIP3    H248584   1.992   1.166   5.273  0.9480 -0.0402  0.9251
 9057TIP3   OH248585   6.432   1.232   1.726 -0.7783  0.0431  0.4710
 9057TIP3    H148586   6.429   1.142   1.760 -1.3824 -0.6946 -1.3901
 9057TIP3    H248587   6.506   1.232   1.665  0.5690  1.4562  2.0037
 9058TIP3   OH248588   3.866   5.381  14.592  0.1985 -0.2093  0.0917
 9058TIP3    H148589   3.896   5.328  14.519 -0.9199 -0.6918 -0.0509
 9058TIP3    H248590   3.839   5.464  14.553  1.2860  0.2106  0.2165
 9059TIP3   OH248591   4.901   1.304  16.991  0.0189 -0.1269 -0.6297
 9059TIP3    H148592   4.946   1.228  17.029 -0.0617 -0.2184 -0.7205
 9059TIP3    H248593   4.848   1.338  17.063  1.0827  0.6497 -0.1782
 9060TIP3   OH248594   1.937   2.967  11.226  0.2177  0.7456  0.3604
 9060TIP3    H148595   1.855   3.014  11.241 -1.1481 -0.9502 -1.2510
 9060TIP3    H248596   1.982   3.017  11.158 -0.4571  0.5731 -0.2125
 9061TIP3   OH248597   5.132   4.364  12.099  0.2988  0.2800  0.2366
 9061TIP3    H148598   5.220   4.351  12.134  0.4383 -1.3251 -0.5890
 9061TIP3    H248599   5.133   4.317  12.016 -1.5152 -0.3070  0.5102
 9062TIP3   OH248600   0.009   2.481  16.630  0.1355  0.6198 -0.0467
 9062TIP3    H148601   0.036   2.489  16.539 -1.2059  2.3607 -0.3548
 9062TIP3    H248602  -0.026   2.392  16.637  2.7599 -0.5214 -0.4520
 9063TIP3   OH248603   1.565   6.772  12.547  0.3476 -0.6617 -0.2551
 9063TIP3    H148604   1.599   6.790  12.460  0.4249 -0.7887 -0.2517
 9063TIP3    H248605   1.559   6.676  12.551  0.1903 -0.6501 -0.1797
 9064TIP3   OH248606   1.390   4.665  11.436 -0.0590  0.2749 -0.6062
 9064TIP3    H148607   1.414   4.747  11.480 -1.4253  0.1969  0.3575
 9064TIP3    H248608   1.450   4.600  11.472 -1.7615  0.0165  1.9753
 9065TIP3   OH248609   0.901   0.156  12.734 -0.2987 -0.2991  0.0460
 9065TIP3    H148610   0.997   0.160  12.738 -0.2937 -1.0662  1.2404
 9065TIP3    H248611   0.874   0.152  12.826 -1.4429 -0.7015 -0.2978
 9066TIP3   OH248612   2.714   3.368  14.190 -0.6386 -0.3273 -0.2114
 9066TIP3    H148613   2.731   3.459  14.164  0.5024 -0.1704  0.9798
 9066TIP3    H248614   2.650   3.375  14.260 -2.3311 -0.6338 -1.6555
 9067TIP3   OH248615   5.567   4.263  11.286  0.2564  0.0902  0.1672
 9067TIP3    H148616   5.602   4.176  11.305 -0.7238 -0.2779  0.3741
 9067TIP3    H248617   5.496   4.274  11.350  0.0909  0.8532 -0.1436
 9068TIP3   OH248618   4.127   3.381   0.498 -0.0414 -0.1963 -0.3550
 9068TIP3    H148619   4.095   3.470   0.514  0.8188 -0.0300  0.5216
 9068TIP3    H248620   4.182   3.389   0.420 -1.4177 -0.3273 -1.3732
 9069TIP3   OH248621   3.853   3.397  13.478  0.1586 -0.2525  0.1781
 9069TIP3    H148622   3.793   3.469  13.459 -0.0122 -0.2414  0.7450
 9069TIP3    H248623   3.862   3.397  13.574 -0.6618 -1.6294  0.2805
 9070TIP3   OH248624   0.624   2.735   1.433 -0.2652  0.1628 -0.5971
 9070TIP3    H148625   0.651   2.644   1.440  2.4201  0.9341  0.2546
 9070TIP3    H248626   0.531   2.735   1.457 -0.0997 -2.1971  0.2448
 9071TIP3   OH248627   5.206   0.306  14.776 -0.1962  0.3403 -0.4926
 9071TIP3    H148628   5.285   0.351  14.748  0.5632  0.5656  1.8063
 9071TIP3    H248629   5.149   0.374  14.811  0.2120 -0.2255  1.3597
 9072TIP3   OH248630   1.003   4.472   5.956  0.1701  0.2189 -0.1275
 9072TIP3    H148631   1.030   4.563   5.968  3.0601 -0.4580 -0.7597
 9072TIP3    H248632   0.952   4.473   5.875 -0.0016  1.2917 -0.0236
 9073TIP3   OH248633   3.572   0.763   6.599 -0.2497 -0.2898  0.3653
 9073TIP3    H148634   3.658   0.765   6.641  0.2241  0.2659 -0.6149
 9073TIP3    H248635   3.545   0.671   6.607  1.3955 -0.9751 -1.1798
 9074TIP3   OH248636   3.198   1.076   3.591  0.4963  0.5361  0.5715
 9074TIP3    H148637   3.158   1.144   3.537  1.2753  1.5035  1.1797
 9074TIP3    H248638   3.160   0.994   3.558  1.8075  0.9492 -2.2423
 9075TIP3   OH248639   6.055   1.047  16.598 -0.3164  0.0341  0.5443
 9075TIP3    H148640   6.105   1.120  16.634  0.9679 -1.0158  0.9370
 9075TIP3    H248641   6.072   1.049  16.504  1.0063 -0.6963  0.7524
 9076TIP3   OH248642   1.946   0.850   1.244  0.6065  0.0692 -0.5603
 9076TIP3    H148643   1.912   0.793   1.313 -1.9459  1.1112 -0.8702
 9076TIP3    H248644   2.024   0.891   1.283 -0.6026  0.4127  1.6182
 9077TIP3   OH248645   3.826   3.537   4.161 -0.2757 -0.4963  0.0657
 9077TIP3    H148646   3.868   3.505   4.081 -1.0475 -0.2567 -0.4414
 9077TIP3    H248647   3.880   3.611   4.187  0.1807 -0.7838 -0.0365
 9078TIP3   OH248648   1.900   3.166   1.654  0.4432 -0.4928  0.3158
 9078TIP3    H148649   1.825   3.160   1.713 -0.4059 -1.2295 -0.7993
 9078TIP3    H248650   1.922   3.075   1.635  1.6098 -0.2846  0.5844
 9079TIP3   OH248651   3.795   1.207  12.078 -0.7092  0.1684 -0.1265
 9079TIP3    H148652   3.828   1.121  12.102 -1.8572 -0.0408  0.7926
 9079TIP3    H248653   3.701   1.196  12.069 -0.5936  0.6879 -2.9634
 9080TIP3   OH248654   2.254   5.434  11.837 -0.4135 -0.1518  0.1392
 9080TIP3    H148655   2.159   5.430  11.844 -0.3454 -2.0295  0.3082
 9080TIP3    H248656   2.277   5.518  11.877 -1.8981 -0.1995  1.1530
 9081TIP3   OH248657   1.406   1.075  15.880  0.3164 -0.2067  0.1410
 9081TIP3    H148658   1.321   1.118  15.877  0.4172 -0.0196 -0.0596
 9081TIP3    H248659   1.386   0.981  15.876  0.2201 -0.1369 -2.2497
 9082TIP3   OH248660   1.973   4.693   3.414  0.3838 -0.3723 -0.1925
 9082TIP3    H148661   1.895   4.729   3.373 -0.1134 -1.8128 -0.5751
 9082TIP3    H248662   2.001   4.623   3.354  1.6527 -0.2296  0.2115
 9083TIP3   OH248663   6.005   6.067   4.947 -0.5835 -0.4968 -0.1098
 9083TIP3    H148664   6.076   6.026   4.997 -0.0926  1.0680  0.5556
 9083TIP3    H248665   6.021   6.040   4.857  0.9783 -0.0573  0.0005
 9084TIP3   OH248666   4.499   3.750  13.842  0.0279 -0.2682  0.1129
 9084TIP3    H148667   4.467   3.720  13.757  0.4153 -0.2117 -0.0549
 9084TIP3    H248668   4.583   3.706  13.853 -0.1858 -0.5593  0.6354
 9085TIP3   OH248669   2.543   1.194  14.564  0.8760  0.2670 -0.4591
 9085TIP3    H148670   2.569   1.102  14.572  0.2973 -0.0054 -1.5175
 9085TIP3    H248671   2.604   1.241  14.621 -0.0753 -0.9539  1.7053
 9086TIP3   OH248672   3.399   2.863  12.350  0.4893 -0.0023  0.1039
 9086TIP3    H148673   3.472   2.876  12.290  0.5652  0.5726  0.3144
 9086TIP3    H248674   3.321   2.884  12.298  0.5108 -0.0985  0.0329
 9087TIP3   OH248675   5.870   6.713  15.701 -0.0525 -0.7635 -0.0838
 9087TIP3    H148676   5.838   6.726  15.790  1.3683 -0.6140  0.4217
 9087TIP3    H248677   5.963   6.696  15.711  0.2727 -0.0166 -1.5882
 9088TIP3   OH248678   4.082   3.490  13.971  0.2269 -0.7631 -0.0405
 9088TIP3    H148679   4.105   3.401  13.943  0.4422 -0.0827 -2.2142
 9088TIP3    H248680   4.166   3.535  13.979  0.2094 -1.0240  2.2788
 9089TIP3   OH248681   4.181   3.106   3.734  0.1951  0.3612  0.6698
 9089TIP3    H148682   4.167   3.021   3.693  0.9057  1.2292 -1.5355
 9089TIP3    H248683   4.269   3.100   3.771  1.0097  0.6758 -1.1000
 9090TIP3   OH248684   5.113   1.957   4.117 -0.2254  0.3455 -0.1178
 9090TIP3    H148685   5.044   2.022   4.101 -2.0097 -1.5411 -0.4299
 9090TIP3    H248686   5.099   1.890   4.051  1.7407 -0.2734  0.0395
 9091TIP3   OH248687   5.975   0.073   4.210  0.1219  0.5338 -1.1431
 9091TIP3    H148688   6.065   0.053   4.185  0.5042  1.3684 -0.4880
 9091TIP3    H248689   5.959   0.017   4.286  0.1067  0.4317 -1.2213
 9092TIP3   OH248690   4.255   6.537  14.680 -0.4277  0.0638  0.0320
 9092TIP3    H148691   4.300   6.621  14.677 -1.9337  0.9549  1.1669
 9092TIP3    H248692   4.308   6.483  14.738 -0.2342  0.7322  0.4904
 9093TIP3   OH248693   3.443   0.863   2.527 -0.1727 -0.1367 -0.1485
 9093TIP3    H148694   3.490   0.912   2.459  2.4611 -0.9958  0.9340
 9093TIP3    H248695   3.367   0.827   2.482  0.0153  1.5467 -1.9470
 9094TIP3   OH248696   4.962   0.799   0.080 -0.0028  0.1240 -0.1564
 9094TIP3    H148697   5.047   0.761   0.057 -0.1344 -0.3230  0.0976
 9094TIP3    H248698   4.936   0.754   0.160  1.0260  2.5066  1.6363
 9095TIP3   OH248699   1.235   3.772   4.519  0.3307  0.5958 -0.1079
 9095TIP3    H148700   1.315   3.776   4.466  2.5196  0.5528  2.9052
 9095TIP3    H248701   1.218   3.679   4.529  1.6413  0.4810  1.4939
 9096TIP3   OH248702   3.968   5.215  11.135 -0.3950  0.4348 -0.3120
 9096TIP3    H148703   3.966   5.225  11.231 -0.3430 -3.8796  0.3134
 9096TIP3    H248704   4.056   5.244  11.111  0.4850 -0.6367  1.3749
 9097TIP3   OH248705   3.477   5.711  15.003  0.0347  0.4061  0.2951
 9097TIP3    H148706   3.527   5.741  14.927 -0.8723 -0.6899 -0.7753
 9097TIP3    H248707   3.414   5.781  15.019  1.7265  1.7316  1.5606
 9098TIP3   OH248708   6.601   2.047  11.224 -0.0410  0.1465 -0.0676
 9098TIP3    H148709   6.519   1.997  11.229 -0.0447 -0.0092 -1.4068
 9098TIP3    H248710   6.666   1.990  11.265  0.3011 -1.7978 -3.0251
 9099TIP3   OH248711   4.916   3.435  16.045  0.0453 -0.0086 -0.1434
 9099TIP3    H148712   4.936   3.484  15.965 -0.0856 -1.0673 -0.8404
 9099TIP3    H248713   4.973   3.474  16.112 -0.6782  1.6738 -0.4588
 9100TIP3   OH248714   2.154   6.649   3.315  0.0713  0.1381  0.1082
 9100TIP3    H148715   2.212   6.574   3.300  0.3602  0.6163 -1.3223
 9100TIP3    H248716   2.066   6.613   3.307  0.2082 -0.0754 -0.5374
 9101TIP3   OH248717   0.297   4.107  14.559 -0.3547  0.0882 -0.1239
 9101TIP3    H148718   0.290   4.089  14.465 -0.1205 -0.3232 -0.0678
 9101TIP3    H248719   0.298   4.020  14.600  0.5119  0.2275  0.1862
 9102TIP3   OH248720   2.163   2.935  15.529  0.1165 -0.1308  0.0157
 9102TIP3    H148721   2.084   2.914  15.579 -0.2775  3.3933  1.1576
 9102TIP3    H248722   2.234   2.930  15.593  0.1700  0.7590  0.0348
 9103TIP3   OH248723   0.411   3.431   4.815 -0.2997 -0.0961 -0.0943
 9103TIP3    H148724   0.364   3.514   4.822  1.0858  0.8400 -1.4109
 9103TIP3    H248725   0.437   3.426   4.723  2.3963 -0.4261  0.6129
 9104TIP3   OH248726   1.142   0.547  12.330  0.1005 -0.1281 -0.3821
 9104TIP3    H148727   1.157   0.506  12.415  0.8359 -0.9847 -0.9078
 9104TIP3    H248728   1.144   0.475  12.268 -0.3502  0.4987 -1.1452
 9105TIP3   OH248729   0.269   1.724   4.479  0.3525  0.4228  0.5810
 9105TIP3    H148730   0.331   1.728   4.551 -0.3649  1.0481  1.1882
 9105TIP3    H248731   0.313   1.767   4.406  1.1881 -0.4500  0.5519
 9106TIP3   OH248732   4.134   3.944  16.620 -0.1328 -0.0141  0.1071
 9106TIP3    H148733   4.154   3.852  16.601  1.4266  0.3069  0.0986
 9106TIP3    H248734   4.055   3.962  16.569 -1.3807 -1.7609  1.3010
 9107TIP3   OH248735   1.400   2.137  11.254 -0.1826 -0.4355 -0.3899
 9107TIP3    H148736   1.464   2.113  11.187 -0.0308 -1.4121  0.0937
 9107TIP3    H248737   1.319   2.153  11.206  0.3972  0.7845 -1.0080
 9108TIP3   OH248738   3.904   3.405  11.603 -0.0714 -0.0128  0.0590
 9108TIP3    H148739   3.856   3.484  11.580  1.1681  0.1453 -2.2166
 9108TIP3    H248740   3.911   3.409  11.699 -1.4231  1.7708  0.1387
 9109TIP3   OH248741   1.845   4.185   3.621 -0.0293 -0.9022 -0.4415
 9109TIP3    H148742   1.799   4.258   3.579 -0.4027 -0.5183  0.5959
 9109TIP3    H248743   1.859   4.214   3.711 -1.1534 -2.5115  0.3166
 9110TIP3   OH248744   6.098   0.478   6.389  0.4543 -0.6618 -0.1034
 9110TIP3    H148745   6.069   0.562   6.424 -0.2704 -0.7235 -0.5252
 9110TIP3    H248746   6.149   0.439   6.459  2.0339  0.7431 -0.4165
 9111TIP3   OH248747   1.733   4.194  13.625  0.0473 -0.0473  0.2344
 9111TIP3    H148748   1.783   4.266  13.664 -0.9320  0.7617  0.0368
 9111TIP3    H248749   1.743   4.206  13.531 -2.2669  1.4560  0.1128
 9112TIP3   OH248750   5.575   0.474   6.095 -0.4907 -0.2891  0.3236
 9112TIP3    H148751   5.620   0.475   6.179 -0.6799  1.0599  0.4363
 9112TIP3    H248752   5.580   0.383   6.066  2.0638 -0.2766  0.4633
 9113TIP3   OH248753   6.510   2.864  15.885  0.5081  0.1667  0.1475
 9113TIP3    H148754   6.557   2.938  15.922 -0.4275  0.4999  0.7110
 9113TIP3    H248755   6.535   2.790  15.940 -2.0550  0.9226  2.6160
 9114TIP3   OH248756   3.835   3.017  13.860  0.5082 -0.0520 -0.0664
 9114TIP3    H148757   3.886   3.098  13.868 -0.9759  0.7853  1.5262
 9114TIP3    H248758   3.857   2.967  13.938  0.3881 -0.5801 -0.3666
 9115TIP3   OH248759   0.227   1.982  16.072 -0.1629  0.5503  0.4152
 9115TIP3    H148760   0.223   1.932  15.991 -0.9552 -1.2901  1.5141
 9115TIP3    H248761   0.313   1.961  16.108 -0.2579  0.4514  0.5869
 9116TIP3   OH248762   3.569   0.662   4.589  0.0002 -0.1654 -0.0237
 9116TIP3    H148763   3.604   0.699   4.670 -0.0421 -0.8145  0.2962
 9116TIP3    H248764   3.487   0.620   4.616 -0.1141 -0.2087 -0.4419
 9117TIP3   OH248765   4.499   5.731   4.248 -0.5774 -0.1348 -0.1259
 9117TIP3    H148766   4.494   5.754   4.155  1.1829 -0.3920 -0.3062
 9117TIP3    H248767   4.550   5.802   4.287 -0.9758 -0.2307  0.5859
 9118TIP3   OH248768   2.277   1.882  10.898 -0.3386  0.0706  0.3397
 9118TIP3    H148769   2.304   1.882  10.806  0.6733 -0.3390  0.6255
 9118TIP3    H248770   2.204   1.944  10.901 -1.6301 -1.2934 -1.0766
 9119TIP3   OH248771   6.621   4.832   2.853  0.1904  0.0208  0.1894
 9119TIP3    H148772   6.684   4.777   2.899  1.0940  0.0231 -0.9903
 9119TIP3    H248773   6.670   4.912   2.833  0.3308 -0.5721 -2.0553
 9120TIP3   OH248774   5.032   0.031  11.919 -0.1546 -0.0331  0.5070
 9120TIP3    H148775   5.076   0.115  11.933  0.4538 -0.2109 -0.3046
 9120TIP3    H248776   5.055  -0.021  11.996 -0.7881  0.6377  1.1660
 9121TIP3   OH248777   2.524   1.399   0.029  0.6090 -0.0544 -0.0261
 9121TIP3    H148778   2.498   1.411   0.120  0.4936  1.3319 -0.2216
 9121TIP3    H248779   2.444   1.368  -0.015  0.2726  0.6207  0.0895
 9122TIP3   OH248780   2.059   3.771   3.797 -0.0050 -0.0091 -0.1712
 9122TIP3    H148781   2.021   3.708   3.736 -1.1421  0.5142 -0.0295
 9122TIP3    H248782   2.060   3.854   3.748 -1.5709  0.5724  0.7015
 9123TIP3   OH248783   0.612   0.209  13.626  0.1167 -0.2725 -0.4503
 9123TIP3    H148784   0.699   0.249  13.633  0.0320 -0.3735  2.6840
 9123TIP3    H248785   0.612   0.141  13.693 -1.7044 -1.7415 -1.8359
 9124TIP3   OH248786   6.001   3.912  10.472 -0.2982 -0.4277 -0.1271
 9124TIP3    H148787   5.931   3.848  10.461 -0.9578  0.3847 -0.8825
 9124TIP3    H248788   6.080   3.860  10.480 -1.1300 -1.4492  2.4912
 9125TIP3   OH248789   1.491   2.323  14.999 -0.0499 -0.9066 -0.5933
 9125TIP3    H148790   1.395   2.319  14.991 -0.1569  0.3564 -0.1229
 9125TIP3    H248791   1.506   2.381  15.074  1.0955 -0.9836 -0.7552
 9126TIP3   OH248792   5.989   1.377   3.910 -0.2813  0.8551  0.5833
 9126TIP3    H148793   6.057   1.420   3.859 -0.9167  1.1340 -0.0408
 9126TIP3    H248794   6.018   1.286   3.918  0.5801  1.1606  1.0573
 9127TIP3   OH248795   6.020   6.442  14.455 -0.2878  0.3509  0.2084
 9127TIP3    H148796   6.010   6.372  14.520 -0.6660  0.3752  0.1795
 9127TIP3    H248797   5.951   6.425  14.391  0.2555  0.1649 -0.3413
 9128TIP3   OH248798   3.608   1.225  16.791 -0.0371 -0.1092  0.3269
 9128TIP3    H148799   3.650   1.289  16.848  0.9542 -1.3073  0.9728
 9128TIP3    H248800   3.659   1.227  16.711 -0.7525  0.7656 -0.1276
 9129TIP3   OH248801   6.281   2.428   4.171 -0.6501 -0.0196 -0.2549
 9129TIP3    H148802   6.344   2.497   4.148  0.1737 -0.4858  0.5222
 9129TIP3    H248803   6.308   2.353   4.118 -1.7484  0.3283 -1.3467
 9130TIP3   OH248804   4.879   6.673  11.486  0.4551 -0.0136 -0.7325
 9130TIP3    H148805   4.836   6.661  11.571 -1.0190 -0.7884 -1.5448
 9130TIP3    H248806   4.971   6.651  11.503 -0.2190 -2.4565  0.2059
 9131TIP3   OH248807   1.869   2.654  12.995 -0.0671  0.0834 -0.0358
 9131TIP3    H148808   1.924   2.576  13.004 -0.5988 -0.2884  0.0679
 9131TIP3    H248809   1.825   2.643  12.911 -0.1056  0.2959 -0.0437
 9132TIP3   OH248810   3.242   0.013  11.508 -0.1799 -0.2338 -0.2329
 9132TIP3    H148811   3.191  -0.065  11.487  0.3825 -0.7425  0.2862
 9132TIP3    H248812   3.333  -0.016  11.509  0.1991  0.7735 -1.6645
 9133TIP3   OH248813   1.275   0.527   1.926  0.5204 -0.8559 -0.9311
 9133TIP3    H148814   1.209   0.520   1.995 -1.4668 -0.5326 -2.6966
 9133TIP3    H248815   1.356   0.552   1.972 -0.8626 -0.0256  1.1850
 9134TIP3   OH248816   1.773   2.317  13.692  0.2336  0.1140  0.3076
 9134TIP3    H148817   1.846   2.357  13.739  0.3744  0.8775 -0.5134
 9134TIP3    H248818   1.770   2.227  13.723  1.3610  0.1460  0.5508
 9135TIP3   OH248819   0.175   0.409   2.561  0.2814  0.9050  0.2161
 9135TIP3    H148820   0.118   0.439   2.491  0.2278 -1.3307 -0.7791
 9135TIP3    H248821   0.115   0.374   2.627  0.4093  1.3973  0.6021
 9136TIP3   OH248822   4.003   2.151   0.074 -0.0832 -0.1612 -0.5639
 9136TIP3    H148823   4.097   2.142   0.060  0.2811  0.3831  1.2393
 9136TIP3    H248824   3.981   2.236   0.036  0.3252  0.0735 -0.2821
 9137TIP3   OH248825   1.108   0.038  16.118 -0.3799 -0.1597  0.2636
 9137TIP3    H148826   1.070   0.070  16.201  0.5482 -0.8015  0.9616
 9137TIP3    H248827   1.165   0.110  16.089  1.3225 -0.8807  1.5775
 9138TIP3   OH248828   3.739   3.665   6.683  0.4687 -0.0578 -0.0929
 9138TIP3    H148829   3.802   3.637   6.750 -0.4119 -0.9660  0.3862
 9138TIP3    H248830   3.782   3.644   6.600  1.3271  0.5343  0.1883
 9139TIP3   OH248831   5.701   5.071  11.544 -0.4324 -0.6909  0.0408
 9139TIP3    H148832   5.641   5.026  11.604  0.2145 -1.6639 -0.0198
 9139TIP3    H248833   5.670   5.047  11.457 -0.0609 -1.0599  0.0078
 9140TIP3   OH248834   1.853   2.131   2.555  0.3234 -0.1344 -0.9660
 9140TIP3    H148835   1.845   2.053   2.500  0.6134  0.0902 -1.3247
 9140TIP3    H248836   1.942   2.163   2.540  0.7566 -0.6235  0.3608
 9141TIP3   OH248837   5.305   5.116   4.923 -0.3434  0.0429 -0.3932
 9141TIP3    H148838   5.305   5.117   4.827 -1.0334 -0.8212 -0.4053
 9141TIP3    H248839   5.392   5.149   4.946 -0.5497  1.3301 -1.2893
 9142TIP3   OH248840   3.899   0.332   4.960 -0.4910  0.3099 -0.2432
 9142TIP3    H148841   3.880   0.380   5.041 -1.3262 -0.9917  0.3558
 9142TIP3    H248842   3.934   0.399   4.900  1.3758  1.0823  1.5816
 9143TIP3   OH248843   3.765   2.177  11.371  0.1307 -0.0028  0.1998
 9143TIP3    H148844   3.677   2.141  11.360  0.6922 -1.4005  0.0121
 9143TIP3    H248845   3.782   2.224  11.289  0.1377 -1.0771 -0.4413
 9144TIP3   OH248846   2.794   1.384   3.163  0.0813  0.1945  0.0685
 9144TIP3    H148847   2.763   1.469   3.134  0.3246 -0.0202 -0.8702
 9144TIP3    H248848   2.888   1.396   3.177  0.0764  0.1369  0.1530
 9145TIP3   OH248849   1.945   6.150   1.183  0.0910 -0.5626  0.5562
 9145TIP3    H148850   1.855   6.183   1.183  0.7273  1.3075  1.4843
 9145TIP3    H248851   1.944   6.078   1.120 -1.4429  1.1166 -1.4966
 9146TIP3   OH248852   3.547   0.915  16.578  0.2194  0.0258  0.1300
 9146TIP3    H148853   3.516   0.968  16.651 -0.2428  0.6240 -0.5008
 9146TIP3    H248854   3.541   0.825  16.611 -0.1281  0.2739  0.7740
 9147TIP3   OH248855   0.404   4.036  11.640  0.1013 -0.0585  0.1689
 9147TIP3    H148856   0.343   4.075  11.703 -0.7095  0.3933 -0.8762
 9147TIP3    H248857   0.446   3.964  11.689 -2.2140 -1.2559  0.5439
 9148TIP3   OH248858   0.322   4.076  15.345 -0.5816 -0.2287 -0.0436
 9148TIP3    H148859   0.332   4.095  15.439 -1.2880 -0.0403  0.0019
 9148TIP3    H248860   0.361   3.990  15.334  0.3330  0.1352  0.2514
 9149TIP3   OH248861   5.461   0.343   0.615  0.4124 -0.3548 -0.4156
 9149TIP3    H148862   5.488   0.252   0.627  3.4577  0.7035  2.1436
 9149TIP3    H248863   5.479   0.384   0.700 -3.0317  2.2197 -0.7318
 9150TIP3   OH248864   0.194   0.690   5.973 -0.9137 -0.3916  0.2979
 9150TIP3    H148865   0.115   0.639   5.989 -0.1532 -2.0517 -0.9219
 9150TIP3    H248866   0.245   0.682   6.053 -1.0446 -1.1231  0.3158
 9151TIP3   OH248867   0.046   1.843   4.229 -0.5049 -0.0857  0.3609
 9151TIP3    H148868   0.038   1.836   4.324 -1.6381  2.6561  0.5629
 9151TIP3    H248869   0.107   1.915   4.215  1.7818 -2.1587 -1.0979
 9152TIP3   OH248870   3.833   4.760   3.302 -0.3699  0.3852  0.2480
 9152TIP3    H148871   3.796   4.848   3.309 -0.3953  0.4835 -1.0268
 9152TIP3    H248872   3.774   4.706   3.355  0.7227  1.4061  2.6415
 9153TIP3   OH248873   0.840   6.191   2.404 -0.3285 -0.5204 -0.6588
 9153TIP3    H148874   0.933   6.177   2.419 -0.1828 -0.9106 -1.7920
 9153TIP3    H248875   0.800   6.185   2.491  0.9942  2.4186  0.2802
 9154TIP3   OH248876   2.821   4.741  12.520  0.7680 -0.7339  0.3375
 9154TIP3    H148877   2.802   4.775  12.433 -0.9792  0.2565  1.0393
 9154TIP3    H248878   2.891   4.798  12.553  0.2326  0.0295  0.2018
 9155TIP3   OH248879   1.845   5.500   6.145 -0.3885 -0.3102  0.0696
 9155TIP3    H148880   1.795   5.418   6.139 -0.2938 -0.3880  0.3470
 9155TIP3    H248881   1.921   5.478   6.198 -0.3976 -0.0240  0.2024
 9156TIP3   OH248882   2.282   2.613   0.282 -0.6310 -0.0120 -0.2048
 9156TIP3    H148883   2.245   2.692   0.244  0.9254  0.8761  0.0194
 9156TIP3    H248884   2.339   2.578   0.214  0.4981  0.3843  0.5078
 9157TIP3   OH248885   5.833   5.326  11.042 -0.1261  0.2769  0.2549
 9157TIP3    H148886   5.829   5.419  11.020  0.8086  0.4781  0.8925
 9157TIP3    H248887   5.779   5.317  11.120  0.9899  0.5754  1.0841
 9158TIP3   OH248888   5.705   6.767  14.305 -0.5449 -0.1713  0.3700
 9158TIP3    H148889   5.630   6.810  14.263 -1.4450  2.0019  3.7899
 9158TIP3    H248890   5.778   6.827  14.291  0.0130 -1.1161 -0.9083
 9159TIP3   OH248891   6.476   5.150  16.818 -0.7447 -0.2018 -0.6707
 9159TIP3    H148892   6.412   5.138  16.747 -1.1460  0.9767 -0.5345
 9159TIP3    H248893   6.556   5.177  16.773 -0.1519 -2.1816 -0.8831
 9160TIP3   OH248894   0.247   1.993  15.214  0.7752  0.2565 -0.0838
 9160TIP3    H148895   0.283   2.015  15.128  0.5886  2.0907  0.2615
 9160TIP3    H248896   0.293   2.052  15.274 -1.2427  1.1438  0.6531
 9161TIP3   OH248897   5.112   5.627   0.468  0.6467 -0.8518 -0.0707
 9161TIP3    H148898   5.076   5.689   0.405 -0.2680 -1.3724 -0.0666
 9161TIP3    H248899   5.207   5.633   0.455  0.5923  0.6537  0.0440
 9162TIP3   OH248900   0.506   0.988   0.604  0.3629 -0.6642 -0.8334
 9162TIP3    H148901   0.544   0.945   0.680  0.8348  0.5612 -0.3557
 9162TIP3    H248902   0.422   1.023   0.635  0.7113  0.1386 -0.7486
 9163TIP3   OH248903   0.363   2.243  13.335  0.4566  0.2654  0.0185
 9163TIP3    H148904   0.348   2.184  13.261  0.4084  0.4399 -0.1115
 9163TIP3    H248905   0.454   2.271  13.326  0.5505  0.0220  0.2162
 9164TIP3   OH248906   0.252   5.775  14.732  0.3277 -0.2816  0.2081
 9164TIP3    H148907   0.281   5.816  14.650  0.3318  1.4149  1.0075
 9164TIP3    H248908   0.157   5.771  14.724  0.1329  1.6902  0.8440
 9165TIP3   OH248909   2.890   4.003  13.239 -0.4660 -0.4080 -0.5510
 9165TIP3    H148910   2.917   3.945  13.168 -0.8906 -0.4365 -0.6902
 9165TIP3    H248911   2.833   3.949  13.294  2.7855 -1.6197  1.9472
 9166TIP3   OH248912   0.191   5.668   5.017 -0.8042  0.5402  0.3964
 9166TIP3    H148913   0.213   5.641   4.928 -1.3966 -0.8255  0.6360
 9166TIP3    H248914   0.215   5.760   5.021 -3.5331  1.4937 -2.1462
 9167TIP3   OH248915   3.462   5.695  15.328  0.2372  0.0472  0.8577
 9167TIP3    H148916   3.461   5.675  15.234  1.0932 -1.2068  1.0886
 9167TIP3    H248917   3.486   5.788  15.332 -0.4009  0.2733 -0.1708
 9168TIP3   OH248918   3.016   3.993   3.781 -0.2073  0.4075 -0.5604
 9168TIP3    H148919   3.029   3.948   3.697 -0.5256  1.2735 -1.0930
 9168TIP3    H248920   2.930   4.034   3.773  0.8055  2.6209 -0.8503
 9169TIP3   OH248921   5.427   0.592  15.540  0.5408  0.9610 -0.5172
 9169TIP3    H148922   5.350   0.535  15.545  1.3139 -0.0580  0.1066
 9169TIP3    H248923   5.399   0.673  15.582  0.1617  0.1709  0.8195
 9170TIP3   OH248924   0.033   1.758  16.591  0.1766 -0.2232  0.1625
 9170TIP3    H148925  -0.010   1.699  16.653 -1.3619  1.0053  0.3116
 9170TIP3    H248926   0.071   1.699  16.525  1.7173 -1.5686  2.0998
 9171TIP3   OH248927   4.235   0.141  15.363  0.3138  0.1582 -0.2644
 9171TIP3    H148928   4.284   0.139  15.445  0.2566  0.3334 -0.2242
 9171TIP3    H248929   4.279   0.207  15.310  0.3658  0.0269 -0.3847
 9172TIP3   OH248930   3.105   5.387  13.781 -0.7974  0.3878  0.4063
 9172TIP3    H148931   3.034   5.332  13.749 -0.2398 -0.5258  0.7299
 9172TIP3    H248932   3.088   5.396  13.875 -0.2171 -0.2526  0.5795
 9173TIP3   OH248933   2.793   5.020  12.943  0.2589 -0.1992  0.3104
 9173TIP3    H148934   2.849   4.969  12.884 -3.8530 -0.9862 -3.4348
 9173TIP3    H248935   2.773   4.960  13.015  0.1445 -1.8209 -1.0097
 9174TIP3   OH248936   2.826   6.403   0.196 -0.0069  0.4349 -0.6744
 9174TIP3    H148937   2.793   6.354   0.120  0.2199  0.2760 -0.6706
 9174TIP3    H248938   2.747   6.436   0.239 -0.1507  0.2634 -0.8055
 9175TIP3   OH248939   4.225   1.057   0.944 -0.1914 -0.1241 -0.1894
 9175TIP3    H148940   4.152   1.110   0.975  1.2742  1.5931  0.5078
 9175TIP3    H248941   4.222   0.978   0.998 -0.2017  0.9415  1.4265
 9176TIP3   OH248942   2.939   0.664   1.924  0.4300  0.2823 -0.2803
 9176TIP3    H148943   2.980   0.632   1.844 -0.3198  1.0847 -1.0117
 9176TIP3    H248944   2.862   0.712   1.893 -0.7741 -0.7463  0.9969
 9177TIP3   OH248945   1.713   3.900   2.666 -0.4950  0.1943 -0.2957
 9177TIP3    H148946   1.807   3.921   2.668 -0.8216  1.8255  1.3759
 9177TIP3    H248947   1.706   3.817   2.713 -0.0458  1.1162  1.4881
 9178TIP3   OH248948   3.544   3.489   0.460 -0.2235 -0.0450  0.0936
 9178TIP3    H148949   3.540   3.450   0.372 -0.4829 -1.8852  0.8833
 9178TIP3    H248950   3.457   3.527   0.474 -0.0835  0.5445 -0.5344
 9179TIP3   OH248951   1.399   6.391   1.810  0.5884  0.1918  0.0524
 9179TIP3    H148952   1.348   6.390   1.729 -2.5965 -0.8681  1.9013
 9179TIP3    H248953   1.371   6.471   1.854 -1.2106 -1.3997  2.0032
 9180TIP3   OH248954   4.526   3.750   5.587 -0.0963  0.5769  0.3154
 9180TIP3    H148955   4.601   3.708   5.544  0.8769  3.0996 -0.6018
 9180TIP3    H248956   4.449   3.715   5.542  0.5761 -0.8386  0.1965
 9181TIP3   OH248957   3.085   1.374   4.144  0.6368 -0.3928 -0.4300
 9181TIP3    H148958   3.068   1.341   4.056  0.3156 -2.0279  0.2180
 9181TIP3    H248959   3.162   1.327   4.173  0.6359  0.0081  0.2409
 9182TIP3   OH248960   5.238   1.072   3.212 -0.0333  0.1557 -0.8952
 9182TIP3    H148961   5.174   1.141   3.229 -0.4320  0.0345 -1.8324
 9182TIP3    H248962   5.192   1.012   3.153 -0.8537 -2.6206  2.2785
 9183TIP3   OH248963   0.507   5.060  11.400  0.0816 -0.1934  0.1345
 9183TIP3    H148964   0.431   5.114  11.423 -0.4859 -0.5828 -0.7530
 9183TIP3    H248965   0.481   5.015  11.319  1.7731  0.7132 -0.9654
 9184TIP3   OH248966   5.153   3.331   1.391 -0.5579  0.5016  0.4927
 9184TIP3    H148967   5.091   3.266   1.425 -0.4786 -0.0243 -0.3461
 9184TIP3    H248968   5.100   3.390   1.338 -0.4749  0.5520  0.4656
 9185TIP3   OH248969   6.312   0.507  15.102  0.2281 -0.1175  0.0212
 9185TIP3    H148970   6.395   0.461  15.099  0.3772  0.1493 -0.0313
 9185TIP3    H248971   6.247   0.440  15.121  0.4640 -0.3168  0.1252
 9186TIP3   OH248972   3.483   2.861   4.325 -0.1545 -0.4498 -0.2543
 9186TIP3    H148973   3.579   2.863   4.324 -0.1472 -0.4116 -1.7440
 9186TIP3    H248974   3.461   2.819   4.408  1.1472 -0.5957  0.0443
 9187TIP3   OH248975   1.154   2.044   5.623 -0.5658 -0.1494 -0.0484
 9187TIP3    H148976   1.219   2.109   5.595 -1.8461  1.2026  0.0246
 9187TIP3    H248977   1.164   1.973   5.560  1.0708 -0.0495  0.0415
 9188TIP3   OH248978   5.411   5.781   3.186 -0.0076 -0.6012  0.2082
 9188TIP3    H148979   5.498   5.745   3.203 -0.0374 -0.4465  0.7029
 9188TIP3    H248980   5.421   5.834   3.107  0.9759  1.5340  1.6576
 9189TIP3   OH248981   3.251   4.364  12.218 -0.1925  0.6711  0.3953
 9189TIP3    H148982   3.318   4.311  12.261  0.0744  0.0635 -0.7126
 9189TIP3    H248983   3.220   4.424  12.285  0.0582 -0.3746  1.4743
 9190TIP3   OH248984   2.887   4.410  13.017 -0.1487  0.2561 -0.2817
 9190TIP3    H148985   2.859   4.351  13.087 -0.6826  1.3715  0.4754
 9190TIP3    H248986   2.964   4.369  12.980 -0.0321 -0.5054  0.7791
 9191TIP3   OH248987   1.212   4.321  12.209 -0.1766  0.1835 -0.2315
 9191TIP3    H148988   1.243   4.355  12.125 -4.2540  1.0060 -1.6077
 9191TIP3    H248989   1.185   4.398  12.258  0.0618 -0.4505  0.9427
 9192TIP3   OH248990   0.918   6.717   3.783 -0.3451  0.1753  0.3489
 9192TIP3    H148991   0.949   6.787   3.839 -0.9298  0.8331 -0.1231
 9192TIP3    H248992   0.959   6.734   3.698 -0.9714  0.3061  0.0684
 9193TIP3   OH248993   4.466   5.013   2.245 -0.6834  0.4472 -0.0322
 9193TIP3    H148994   4.509   5.054   2.321 -0.9251  0.8258 -0.0964
 9193TIP3    H248995   4.513   5.048   2.169 -0.3382 -0.0549 -0.0546
 9194TIP3   OH248996   3.562   3.683   0.747  0.1955 -0.0424  0.0016
 9194TIP3    H148997   3.562   3.590   0.725 -2.0866 -0.0932  0.0358
 9194TIP3    H248998   3.598   3.727   0.669 -0.2310 -0.8216 -0.6379
 9195TIP3   OH248999   2.183   0.556   4.863 -0.2217 -0.3911 -0.7128
 9195TIP3    H149000   2.116   0.619   4.889 -1.6753 -1.5875 -1.3940
 9195TIP3    H249001   2.136   0.492   4.809  1.4694 -1.3039 -1.1682
 9196TIP3   OH249002   1.766   3.240  15.887 -0.0605  0.5261  0.6664
 9196TIP3    H149003   1.711   3.256  15.964  0.1109  0.0206  0.8950
 9196TIP3    H249004   1.703   3.227  15.816 -0.2346  0.1150  0.8928
 9197TIP3   OH249005   0.009   0.866   0.877  0.1460  0.3580  0.0489
 9197TIP3    H149006  -0.026   0.787   0.836  0.1319 -0.2149  1.1350
 9197TIP3    H249007   0.093   0.880   0.834 -0.1143  0.0951 -0.5578
 9198TIP3   OH249008   6.310   3.398  15.754  1.0524 -0.7715  0.1501
 9198TIP3    H149009   6.265   3.416  15.671 -3.8590 -1.8716  2.1901
 9198TIP3    H249010   6.320   3.303  15.755  2.0341 -0.6695  0.4059
 9199TIP3   OH249011   1.778   4.133  14.717 -0.0063 -0.1371 -0.3851
 9199TIP3    H149012   1.807   4.157  14.629  1.3298 -0.6375 -0.1040
 9199TIP3    H249013   1.829   4.056  14.739  0.7194  0.7791  1.3640
 9200TIP3   OH249014   3.406   4.436  14.102 -0.0769 -0.0116  0.1147
 9200TIP3    H149015   3.445   4.524  14.098 -1.3757  0.5301 -2.4014
 9200TIP3    H249016   3.330   4.447  14.159 -0.2391  0.5240 -0.1919
 9201TIP3   OH249017   4.882   4.596   0.654  0.1021  0.1317  0.4232
 9201TIP3    H149018   4.798   4.603   0.608  0.7933 -0.3738 -0.9821
 9201TIP3    H249019   4.942   4.651   0.602  1.2745 -1.6868 -0.2355
 9202TIP3   OH249020   2.392   6.330  12.562  0.1041 -0.0927  0.1031
 9202TIP3    H149021   2.374   6.340  12.655 -1.9736 -0.7913 -0.1633
 9202TIP3    H249022   2.330   6.390  12.519 -0.1650 -1.0333 -0.8701
 9203TIP3   OH249023   3.395   2.620   6.354 -0.1469  0.1230  0.1414
 9203TIP3    H149024   3.391   2.600   6.447 -0.5661 -1.0912 -0.1172
 9203TIP3    H249025   3.304   2.617   6.325  0.0777 -0.6946 -0.5260
 9204TIP3   OH249026   1.452   2.388   2.061  0.2276 -0.1522  0.1486
 9204TIP3    H149027   1.456   2.477   2.028 -0.1098 -0.8889 -1.9931
 9204TIP3    H249028   1.542   2.369   2.088  0.3362  0.7605  0.4676
 9205TIP3   OH249029   6.059   3.972   1.904 -0.0470  0.2236 -0.7424
 9205TIP3    H149030   6.018   3.993   1.820  3.2920 -0.4198 -2.7162
 9205TIP3    H249031   6.111   3.894   1.886  2.9769  1.6525  1.1219
 9206TIP3   OH249032   2.771   6.745   2.557  0.3990  0.2463  0.1197
 9206TIP3    H149033   2.788   6.678   2.623  0.2891  0.1305  0.0318
 9206TIP3    H249034   2.837   6.812   2.573  0.7131 -0.0339  0.0016
 9207TIP3   OH249035   4.845   6.188   2.580 -0.3516  0.1918  0.4027
 9207TIP3    H149036   4.872   6.185   2.672 -1.3901  1.4451  0.7672
 9207TIP3    H249037   4.768   6.244   2.579 -0.3756  0.1739 -1.2401
 9208TIP3   OH249038   1.618   0.153  14.160 -0.0530 -0.4465  0.2603
 9208TIP3    H149039   1.630   0.151  14.065 -1.8113 -1.0656  0.0124
 9208TIP3    H249040   1.668   0.079  14.193 -0.3453 -0.9105 -0.3238
 9209TIP3   OH249041   2.316   0.708   4.192  0.1666  0.6710  0.4751
 9209TIP3    H149042   2.220   0.703   4.191  0.2071 -0.1285 -0.1182
 9209TIP3    H249043   2.335   0.797   4.221 -0.7551  0.7148  0.9731
 9210TIP3   OH249044   3.444   0.588  11.425  0.5400 -0.1253 -0.0887
 9210TIP3    H149045   3.517   0.564  11.482  2.2580 -0.2793 -2.2598
 9210TIP3    H249046   3.425   0.509  11.375 -0.4204  0.2259 -0.3079
 9211TIP3   OH249047   6.571   1.879  16.534 -0.4221 -0.0702  0.0570
 9211TIP3    H149048   6.648   1.843  16.579  0.2152 -0.2601 -1.1600
 9211TIP3    H249049   6.607   1.932  16.464 -1.4094  0.2446 -0.2219
 9212TIP3   OH249050   2.109   1.225   5.732  0.2710 -0.8386 -0.2400
 9212TIP3    H149051   2.028   1.214   5.782 -0.2407 -0.3469 -0.9467
 9212TIP3    H249052   2.167   1.157   5.767 -1.1523 -2.6517 -1.1760
 9213TIP3   OH249053   1.136   5.134   1.876  0.5259  0.2914  0.4966
 9213TIP3    H149054   1.170   5.142   1.966  1.5679  2.5652 -0.0360
 9213TIP3    H249055   1.041   5.133   1.887  0.6098 -1.6927  1.7215
 9214TIP3   OH249056   6.740   5.021  15.420 -0.2722  0.1490  0.4345
 9214TIP3    H149057   6.655   5.063  15.406 -1.1332 -1.4961  0.4616
 9214TIP3    H249058   6.725   4.959  15.492  0.3707 -1.6387 -0.8841
 9215TIP3   OH249059   4.822   1.166  12.573 -0.4687 -0.3011 -0.4055
 9215TIP3    H149060   4.901   1.180  12.521 -2.4627  1.4241 -3.2156
 9215TIP3    H249061   4.759   1.130  12.511 -2.6889  0.8287  1.0861
 9216TIP3   OH249062   3.155   6.336   2.588 -0.3199 -0.3348  0.0518
 9216TIP3    H149063   3.106   6.317   2.508 -1.6331 -0.4127  0.8435
 9216TIP3    H249064   3.129   6.425   2.612 -1.1016 -0.8532  1.1853
 9217TIP3   OH249065   6.175   4.593  15.713  0.0383 -0.2282 -0.3656
 9217TIP3    H149066   6.155   4.501  15.694 -1.5207 -0.0232  0.0990
 9217TIP3    H249067   6.099   4.641  15.680  0.7284  0.8789 -0.3858
 9218TIP3   OH249068   2.270   1.911   5.213  0.0613  0.5445 -1.0748
 9218TIP3    H149069   2.323   1.981   5.174 -1.3100  1.3192 -1.6116
 9218TIP3    H249070   2.182   1.948   5.218 -0.5241 -0.8655 -0.5868
 9219TIP3   OH249071   6.484   1.224   0.995  0.1439  0.3619  0.2770
 9219TIP3    H149072   6.438   1.155   0.947  1.3112 -1.2770  1.4159
 9219TIP3    H249073   6.576   1.209   0.975  0.4134  1.6487  0.5017
 9220TIP3   OH249074   2.706   1.556   1.000 -0.2157  0.3104  0.2917
 9220TIP3    H149075   2.773   1.606   0.953 -0.8147  2.6104  1.7090
 9220TIP3    H249076   2.750   1.525   1.079 -0.0481 -0.8065 -0.2271
 9221TIP3   OH249077   1.328   5.591  16.304 -0.5713 -0.2590 -0.2915
 9221TIP3    H149078   1.338   5.544  16.387  0.8432  1.5803  0.6427
 9221TIP3    H249079   1.242   5.633  16.311 -0.8207 -0.7788 -0.1413
 9222TIP3   OH249080   0.797   2.589   4.972 -0.1589 -1.0860 -0.0155
 9222TIP3    H149081   0.800   2.658   4.906 -2.1147 -0.4301  0.5001
 9222TIP3    H249082   0.887   2.583   5.005  0.0435  1.4622  0.1367
 9223TIP3   OH249083   3.235   0.228   5.080  0.0629  0.0445 -0.1765
 9223TIP3    H149084   3.142   0.206   5.088 -0.4885  2.7317  2.2322
 9223TIP3    H249085   3.273   0.202   5.163  0.6360  2.2265  0.2987
 9224TIP3   OH249086   0.802   3.414   5.178  0.3553  0.7949  0.7187
 9224TIP3    H149087   0.819   3.377   5.091  0.0357  0.8623  0.6278
 9224TIP3    H249088   0.862   3.489   5.184  0.3311  0.8290  0.5311
 9225TIP3   OH249089   0.161   3.093   2.999 -0.1382  0.4155 -0.0142
 9225TIP3    H149090   0.128   3.180   2.978  0.5263  0.1247 -2.5813
 9225TIP3    H249091   0.243   3.109   3.047 -0.1712  1.2061 -0.2113
 9226TIP3   OH249092   0.240   5.370   0.682  0.2739  0.9457  0.3178
 9226TIP3    H149093   0.217   5.342   0.593 -0.9864  2.6023  0.0818
 9226TIP3    H249094   0.157   5.396   0.721  0.7985  0.1332  2.0513
 9227TIP3   OH249095   3.486   1.449  12.842  0.0205  0.0729  0.0462
 9227TIP3    H149096   3.424   1.376  12.830  0.4700 -0.2971 -0.0436
 9227TIP3    H249097   3.552   1.436  12.774 -0.3687  1.0762 -0.5350
 9228TIP3   OH249098   2.562   4.833   4.330 -0.3961 -0.1609 -0.0500
 9228TIP3    H149099   2.505   4.801   4.400 -0.4778  1.8488  0.8631
 9228TIP3    H249100   2.515   4.907   4.293  0.7571  0.3244 -0.5816
 9229TIP3   OH249101   1.504   3.391   2.239 -0.0131  0.7513  0.2109
 9229TIP3    H149102   1.496   3.344   2.322  0.3732  0.3643  0.0365
 9229TIP3    H249103   1.531   3.479   2.264 -1.0700  0.9957  0.5628
 9230TIP3   OH249104   3.752   6.466  11.563 -0.5682 -0.0886 -0.1570
 9230TIP3    H149105   3.677   6.524  11.569 -0.2298  0.3538 -0.1750
 9230TIP3    H249106   3.716   6.383  11.531 -0.8198  0.5946 -1.7638
 9231TIP3   OH249107   6.161   1.694  10.523  0.3996 -0.2908  0.1778
 9231TIP3    H149108   6.074   1.703  10.483  0.2063  0.1756  0.6801
 9231TIP3    H249109   6.220   1.676  10.450  0.0993  0.8028 -0.3579
 9232TIP3   OH249110   2.213   3.799   2.508  0.3823  0.2486 -0.3529
 9232TIP3    H149111   2.176   3.720   2.470 -1.5692  0.4279  1.0163
 9232TIP3    H249112   2.282   3.767   2.566 -1.8859 -0.7830  1.9776
 9233TIP3   OH249113   6.467   4.983  14.431 -0.2846  0.3187 -0.0438
 9233TIP3    H149114   6.388   4.970  14.378  0.7083 -0.8079 -1.3263
 9233TIP3    H249115   6.533   5.014  14.368  1.0322 -1.3579  0.4208
 9234TIP3   OH249116   2.885   3.584  16.770  0.4512  0.0601 -0.4278
 9234TIP3    H149117   2.974   3.593  16.804 -0.1782  0.4210  1.2535
 9234TIP3    H249118   2.844   3.669  16.786  0.5587  0.8455 -3.7350
 9235TIP3   OH249119   2.364   5.005   0.311 -0.1650  0.1176  0.4071
 9235TIP3    H149120   2.315   4.930   0.277  0.6313  0.1544 -0.8808
 9235TIP3    H249121   2.312   5.081   0.286 -0.7291  0.0350  1.2926
 9236TIP3   OH249122   5.889   0.622  15.993 -0.4092 -0.4273 -0.5573
 9236TIP3    H149123   5.814   0.574  15.959  0.6035 -1.2483 -1.7096
 9236TIP3    H249124   5.927   0.664  15.916  0.3848 -0.1213 -0.0083
 9237TIP3   OH249125   0.303   4.894   4.418 -0.4739 -0.0523  0.1671
 9237TIP3    H149126   0.270   4.963   4.476  1.4917  1.7057 -0.6956
 9237TIP3    H249127   0.320   4.938   4.335 -0.2201 -1.8398 -0.7755
 9238TIP3   OH249128   6.380   2.898  16.170  0.2796 -0.0879  0.1695
 9238TIP3    H149129   6.341   2.936  16.091  0.9781  1.3585  0.4846
 9238TIP3    H249130   6.468   2.873  16.143  0.5278  0.4338  0.4905
 9239TIP3   OH249131   3.707   2.180   3.818 -0.2537 -0.1441  0.2251
 9239TIP3    H149132   3.687   2.212   3.730 -0.4093 -0.8344  0.0031
 9239TIP3    H249133   3.625   2.190   3.866  0.2878  1.9107  0.8336
 9240TIP3   OH249134   0.169   2.849  11.148  0.6804 -0.2921  0.3639
 9240TIP3    H149135   0.091   2.885  11.189 -0.1924 -2.1335  0.4380
 9240TIP3    H249136   0.137   2.774  11.098  2.4524 -1.4968  0.9259
 9241TIP3   OH249137   1.764   4.952  15.547 -0.3121  0.2131 -0.1762
 9241TIP3    H149138   1.844   4.988  15.586  0.1972 -1.3780  0.3174
 9241TIP3    H249139   1.706   4.937  15.622 -0.2593 -0.6031 -0.2971
 9242TIP3   OH249140   3.471   3.709   1.766 -0.3577 -0.2868 -0.3010
 9242TIP3    H149141   3.432   3.629   1.731 -0.0101 -0.9097  0.6720
 9242TIP3    H249142   3.450   3.777   1.702 -1.5136 -0.9549 -0.6596
 9243TIP3   OH249143   0.688   4.295  11.578 -0.5466  0.2452 -0.4157
 9243TIP3    H149144   0.693   4.222  11.640 -1.7614  0.9496  0.5536
 9243TIP3    H249145   0.775   4.297  11.537 -0.1629 -1.1014  0.2586
 9244TIP3   OH249146   5.343   1.284  11.676 -0.6419 -0.4603 -0.4136
 9244TIP3    H149147   5.308   1.341  11.607 -0.4974 -1.1315 -1.0613
 9244TIP3    H249148   5.266   1.257  11.726 -0.8305 -0.4787 -0.7122
 9245TIP3   OH249149   4.934   1.827   3.112 -0.2566 -0.4179  0.3427
 9245TIP3    H149150   4.888   1.909   3.098 -0.8159 -0.7068  0.4442
 9245TIP3    H249151   5.005   1.849   3.173 -0.0941  0.0853 -0.0278
 9246TIP3   OH249152   5.282   3.424  11.492  0.2525 -0.2906 -0.2420
 9246TIP3    H149153   5.316   3.470  11.415 -2.0061  1.2391 -0.4563
 9246TIP3    H249154   5.211   3.369  11.458 -0.6698  0.2833  0.6698
 9247TIP3   OH249155   5.185   0.332  12.977  0.3913  0.9821  0.1852
 9247TIP3    H149156   5.106   0.381  12.998  0.9033  2.1970 -0.6366
 9247TIP3    H249157   5.253   0.399  12.966  1.2729  0.0415 -0.2648
 9248TIP3   OH249158   3.085   5.513   4.039  0.0049 -0.2503  0.0947
 9248TIP3    H149159   3.033   5.457   3.981  0.4850  0.9975 -1.5898
 9248TIP3    H249160   3.019   5.559   4.091 -0.4051 -2.2237  1.4611
 9249TIP3   OH249161   5.291   5.861  15.099 -0.6006 -0.0054 -0.7003
 9249TIP3    H149162   5.248   5.921  15.161 -0.9014 -1.2116  0.3182
 9249TIP3    H249163   5.223   5.838  15.037 -0.6127  0.3511 -0.8194
 9250TIP3   OH249164   1.467   1.997   0.506  0.1808 -0.2649  0.5162
 9250TIP3    H149165   1.405   2.068   0.491  0.1050 -0.7567 -1.8445
 9250TIP3    H249166   1.553   2.039   0.502  0.1232  0.3209  3.2513
 9251TIP3   OH249167   0.108   5.334   2.593 -0.3726  0.3979  0.6421
 9251TIP3    H149168   0.066   5.412   2.631 -1.0541 -1.2697  3.6193
 9251TIP3    H249169   0.177   5.312   2.655 -0.5488 -1.6767  0.1592
 9252TIP3   OH249170   1.143   4.820  13.396  0.2212  0.2320  0.1651
 9252TIP3    H149171   1.148   4.824  13.492  2.8420  0.5334  0.1109
 9252TIP3    H249172   1.134   4.727  13.376  0.9567  0.0293  0.7090
 9253TIP3   OH249173   6.552   3.179   5.127  0.2999 -0.3398 -0.6939
 9253TIP3    H149174   6.636   3.140   5.100 -0.3278 -0.5059 -2.5497
 9253TIP3    H249175   6.570   3.273   5.129  0.6393 -0.4008 -0.7298
 9254TIP3   OH249176   5.397   2.902  15.886  0.9572 -0.2138 -0.2001
 9254TIP3    H149177   5.478   2.954  15.887  1.6187 -1.1974  1.2721
 9254TIP3    H249178   5.382   2.880  15.978  0.0828 -1.6765 -0.6695
 9255TIP3   OH249179   2.556   2.964   0.212  0.0584 -0.2761  0.1570
 9255TIP3    H149180   2.468   2.982   0.180 -0.6111  0.7938  2.3916
 9255TIP3    H249181   2.586   2.889   0.160 -1.4257  0.4619 -1.8831
 9256TIP3   OH249182   5.074   0.023   5.562 -0.0833  0.7321 -0.2609
 9256TIP3    H149183   5.090   0.117   5.570  1.7832  0.3666  1.0029
 9256TIP3    H249184   5.080  -0.010   5.652 -2.3238 -0.4134 -0.4643
 9257TIP3   OH249185   0.393   6.737  11.645  0.0289  0.2621  0.5881
 9257TIP3    H149186   0.320   6.713  11.589 -1.1220  1.7466  1.3517
 9257TIP3    H249187   0.453   6.785  11.588 -1.4185  2.3023  0.6516
 9258TIP3   OH249188   0.859   0.098  15.079 -0.6328 -0.1370 -0.7783
 9258TIP3    H149189   0.874   0.156  15.004 -0.6474 -0.0973 -0.7499
 9258TIP3    H249190   0.889   0.147  15.155 -0.8193 -0.0948 -0.7324
 9259TIP3   OH249191   4.220   1.697  16.632  0.1970  0.1590  0.5656
 9259TIP3    H149192   4.149   1.725  16.690 -0.6926  0.2381 -0.5238
 9259TIP3    H249193   4.257   1.620  16.675 -0.6054  0.0674  1.1103
 9260TIP3   OH249194   2.323   5.099  15.637  0.5222  0.4753  0.4250
 9260TIP3    H149195   2.367   5.128  15.717  0.5743  1.9842 -0.1203
 9260TIP3    H249196   2.278   5.177  15.605 -2.3200 -0.9128  0.7714
 9261TIP3   OH249197   1.854   3.418   0.513 -0.4407  0.0997 -0.4445
 9261TIP3    H149198   1.917   3.349   0.496 -0.5039 -0.0542 -0.0573
 9261TIP3    H249199   1.908   3.496   0.531 -0.3108 -0.4043  1.5328
 9262TIP3   OH249200   1.100   0.525  11.260 -0.1184  0.6223  0.3629
 9262TIP3    H149201   1.168   0.586  11.286  1.0093 -0.1944 -0.5797
 9262TIP3    H249202   1.040   0.522  11.335  0.2041  2.2704  0.7206
 9263TIP3   OH249203   3.277   5.951  12.770  0.1973  0.1284  0.2534
 9263TIP3    H149204   3.244   6.034  12.736 -1.0382  0.0438  1.1799
 9263TIP3    H249205   3.223   5.933  12.847  1.2480 -0.9363  0.7724
 9264TIP3   OH249206   0.680   0.626  13.802 -0.3107  0.1996 -0.2416
 9264TIP3    H149207   0.679   0.595  13.892  0.3174  2.6354  0.6861
 9264TIP3    H249208   0.765   0.600  13.768  0.0594  0.5682  0.3850
 9265TIP3   OH249209   2.871   5.876   0.125  0.0894  0.6006  0.0793
 9265TIP3    H149210   2.902   5.792   0.090 -1.3247 -0.9976  2.3817
 9265TIP3    H249211   2.921   5.887   0.206 -1.1403  0.9290  0.8176
 9266TIP3   OH249212   4.606   6.063   0.606 -0.3558 -0.1329  0.3710
 9266TIP3    H149213   4.570   6.146   0.575 -0.7705 -0.5341 -0.2486
 9266TIP3    H249214   4.701   6.073   0.597 -0.4294  0.0805 -0.2096
 9267TIP3   OH249215   3.117   1.753  12.395  0.3177 -0.0525 -0.0075
 9267TIP3    H149216   3.085   1.708  12.316  0.4600 -0.2962  0.0746
 9267TIP3    H249217   3.081   1.703  12.468  0.4553 -0.0181  0.0841
 9268TIP3   OH249218   3.149   2.878  12.598 -0.7791  0.3170  0.2782
 9268TIP3    H149219   3.175   2.926  12.676  1.8016  0.7156 -0.7386
 9268TIP3    H249220   3.208   2.803  12.595 -0.9381  0.2295 -1.2198
 9269TIP3   OH249221   1.018   1.374   5.578  0.3561 -0.7884  0.2172
 9269TIP3    H149222   1.031   1.451   5.522 -0.0396  0.4760  1.7772
 9269TIP3    H249223   1.086   1.313   5.552  0.4970 -0.0394 -1.2783
 9270TIP3   OH249224   5.550   5.502   6.400 -0.3225 -0.0412  0.7061
 9270TIP3    H149225   5.455   5.510   6.393 -0.1780  1.9826  0.4090
 9270TIP3    H249226   5.564   5.441   6.472 -1.8580  0.8493  1.8153
 9271TIP3   OH249227   4.207   6.216  16.148 -0.1777  0.2472 -0.1470
 9271TIP3    H149228   4.220   6.309  16.167 -0.3991  0.1201  0.6595
 9271TIP3    H249229   4.295   6.179  16.154 -0.3974 -0.0371  2.0995
 9272TIP3   OH249230   6.281   4.533   4.317 -0.4859 -0.1807  0.5322
 9272TIP3    H149231   6.200   4.561   4.359 -0.5161 -1.4784  1.4073
 9272TIP3    H249232   6.344   4.604   4.335 -1.4980  1.0212 -0.4995
 9273TIP3   OH249233   1.652   5.576  13.171  0.5373  1.0454  0.0389
 9273TIP3    H149234   1.621   5.489  13.196  1.0797  0.6140 -0.7379
 9273TIP3    H249235   1.648   5.627  13.252 -0.1934  0.4261  0.4143
 9274TIP3   OH249236   5.674   3.613   2.278 -0.0294  0.6694 -0.4706
 9274TIP3    H149237   5.761   3.640   2.246  0.1196  1.9810  0.8942
 9274TIP3    H249238   5.637   3.693   2.315 -1.4105 -0.1070 -0.1117
 9275TIP3   OH249239   5.124   4.405   6.019  0.6138 -0.3863  0.5850
 9275TIP3    H149240   5.084   4.436   6.101  0.8931 -1.5006  1.1618
 9275TIP3    H249241   5.217   4.424   6.029  0.3473  1.9606 -0.6479
 9276TIP3   OH249242   1.035   1.816  14.097 -0.2837 -0.6004  0.1438
 9276TIP3    H149243   1.109   1.865  14.060  0.7517 -0.6148  2.0334
 9276TIP3    H249244   1.020   1.744  14.036  3.2829 -2.3549  1.0663
 9277TIP3   OH249245   1.889   1.846   0.048 -0.2540 -0.4702 -0.1038
 9277TIP3    H149246   1.861   1.879  -0.037 -2.9758  0.5400  1.0618
 9277TIP3    H249247   1.933   1.920   0.089  0.1307 -0.6310 -0.2202
 9278TIP3   OH249248   0.917   6.121  11.899 -0.2177  0.3321  0.0837
 9278TIP3    H149249   0.946   6.210  11.920  0.0773 -0.0948  1.5928
 9278TIP3    H249250   0.998   6.070  11.898 -0.5038 -0.1241  0.3096
 9279TIP3   OH249251   4.449   1.743   3.745 -0.4704 -0.4827  0.2206
 9279TIP3    H149252   4.423   1.834   3.734 -0.3404 -0.2494  1.6177
 9279TIP3    H249253   4.376   1.692   3.710  1.0757  0.0146 -4.4130
 9280TIP3   OH249254   4.426   2.174   4.888 -0.0504 -0.6396  0.2428
 9280TIP3    H149255   4.436   2.124   4.969 -0.3034 -0.2419  0.5225
 9280TIP3    H249256   4.336   2.155   4.860 -0.5538  0.5565  0.9701
 9281TIP3   OH249257   3.606   1.713  13.819  0.6144 -0.4662  0.1198
 9281TIP3    H149258   3.527   1.762  13.797  0.6461 -0.4704 -0.0056
 9281TIP3    H249259   3.575   1.626  13.845  0.5451 -0.3241  0.5120
 9282TIP3   OH249260   1.262   0.186  11.590  0.5232  0.6731  0.1294
 9282TIP3    H149261   1.251   0.103  11.636  2.6797 -0.6101 -1.4936
 9282TIP3    H249262   1.184   0.192  11.534 -0.7722  0.9267  1.8881
 9283TIP3   OH249263   2.529   6.389   4.602 -0.2052  0.3835  0.1755
 9283TIP3    H149264   2.535   6.461   4.540  0.0159  0.6173  0.4648
 9283TIP3    H249265   2.529   6.430   4.688 -2.8874  0.2287  0.3374
 9284TIP3   OH249266   0.774   4.108   4.989 -0.1732  0.2702  0.3783
 9284TIP3    H149267   0.713   4.054   4.938 -2.7456  2.6621  0.6628
 9284TIP3    H249268   0.759   4.081   5.080  0.1670 -0.0328  0.3460
 9285TIP3   OH249269   1.647   5.244  14.027  0.1226  0.0614  0.9199
 9285TIP3    H149270   1.628   5.222  14.118 -1.8418  0.8583  0.7387
 9285TIP3    H249271   1.708   5.318  14.033 -0.3211  0.3860  1.6029
 9286TIP3   OH249272   1.796   2.387  11.397 -0.3321  0.0394  0.0789
 9286TIP3    H149273   1.708   2.380  11.360 -0.7981  1.3592  0.8374
 9286TIP3    H249274   1.784   2.440  11.476  0.7044 -2.2068  1.8405
 9287TIP3   OH249275   0.068   6.599  11.671  0.4111 -0.1829  0.5440
 9287TIP3    H149276   0.110   6.587  11.586  0.6862  0.5142  0.5770
 9287TIP3    H249277  -0.003   6.535  11.672  0.7715 -0.5923  0.0292
 9288TIP3   OH249278   0.731   4.545   2.948  0.0897 -0.4694  0.0144
 9288TIP3    H149279   0.768   4.633   2.944  1.6857 -1.1067 -0.1855
 9288TIP3    H249280   0.711   4.523   2.857 -1.0365 -0.0308  0.1507
 9289TIP3   OH249281   3.835   0.042   4.477 -0.1326 -0.8623  0.8027
 9289TIP3    H149282   3.923   0.051   4.441 -0.2945  1.4098  0.8473
 9289TIP3    H249283   3.786  -0.004   4.409  0.2166  1.0784 -0.8567
 9290TIP3   OH249284   0.989   2.331   5.926  1.0158 -0.3633  0.1330
 9290TIP3    H149285   1.014   2.265   5.990  1.2728  1.7980  2.4457
 9290TIP3    H249286   0.951   2.402   5.978 -3.0235 -0.2388 -2.5152
 9291TIP3   OH249287   0.297   5.208   2.739  0.4850  0.1128  0.5347
 9291TIP3    H149288   0.260   5.120   2.740  0.0665  0.2875  1.1247
 9291TIP3    H249289   0.355   5.209   2.663 -0.4269 -0.2894 -0.1822
 9292TIP3   OH249290   6.649   1.274  16.278  0.0858 -0.4830  0.3508
 9292TIP3    H149291   6.700   1.194  16.288  1.3460  0.4261  1.8256
 9292TIP3    H249292   6.578   1.265  16.342  1.2775  0.2818  1.8613
 9293TIP3   OH249293   2.030   3.416   1.880 -0.2372  0.0441 -1.0348
 9293TIP3    H149294   2.030   3.461   1.795  2.5508  0.7793 -0.7653
 9293TIP3    H249295   1.993   3.480   1.941 -0.4372  0.2725 -1.3896
 9294TIP3   OH249296   2.565   2.913   1.393 -0.5534  1.0848 -0.3762
 9294TIP3    H149297   2.584   3.002   1.423 -0.5268  1.2908 -0.9910
 9294TIP3    H249298   2.649   2.868   1.397 -0.8487  0.6411  1.3864
 9295TIP3   OH249299   1.880   2.354   5.654  0.4539 -0.3504  0.3249
 9295TIP3    H149300   1.877   2.277   5.598  1.5015  0.5290 -0.9816
 9295TIP3    H249301   1.970   2.386   5.646 -0.1078  1.3133  0.4215
 9296TIP3   OH249302   4.953   0.390  10.052  0.3493  0.5528  0.5426
 9296TIP3    H149303   4.872   0.341  10.063  0.5904  0.0155  0.0024
 9296TIP3    H249304   4.979   0.415  10.140  0.9796 -1.5251  0.9890
 9297TIP3   OH249305   3.675   0.554   5.075  0.6700  0.3012 -0.4826
 9297TIP3    H149306   3.631   0.506   5.145  0.5744  1.4897  0.2901
 9297TIP3    H249307   3.739   0.609   5.120  0.5997  1.0945 -1.3191
 9298TIP3   OH249308   1.142   2.947  15.154 -0.5744 -0.8631 -0.3776
 9298TIP3    H149309   1.140   3.042  15.146  0.9144 -0.7681  0.0922
 9298TIP3    H249310   1.052   2.923  15.178 -0.2636  0.7908  3.0603
 9299TIP3   OH249311   3.209   4.858   4.636  0.2327 -0.0329  0.2867
 9299TIP3    H149312   3.300   4.833   4.621  0.0176 -0.0807 -1.0633
 9299TIP3    H249313   3.161   4.820   4.562 -0.4692  2.3216 -0.5524
 9300TIP3   OH249314   3.242   0.032   4.193  0.0415 -0.3461 -0.0081
 9300TIP3    H149315   3.282   0.118   4.189  0.1914 -0.4255 -0.2486
 9300TIP3    H249316   3.315  -0.027   4.214  0.4559 -0.7554 -2.3462
 9301TIP3   OH249317   5.759   4.344   5.508  0.3096  0.4383  0.2526
 9301TIP3    H149318   5.758   4.358   5.413  0.2016 -1.0768 -0.0033
 9301TIP3    H249319   5.834   4.287   5.524 -1.0555 -1.3737  0.6926
 9302TIP3   OH249320   4.734   2.687  11.351  0.2576 -0.1079 -0.0251
 9302TIP3    H149321   4.690   2.650  11.428 -1.3133 -1.3578 -1.4564
 9302TIP3    H249322   4.804   2.741  11.388  0.5932 -1.9286  2.2614
 9303TIP3   OH249323   4.353   3.976   1.682 -0.0821  0.1767 -0.5385
 9303TIP3    H149324   4.260   3.983   1.662 -0.2397 -1.6142 -0.5125
 9303TIP3    H249325   4.397   4.000   1.600 -0.5804  0.0697 -0.8370
 9304TIP3   OH249326   3.189   6.390   3.941 -0.6739  0.2218 -0.5188
 9304TIP3    H149327   3.280   6.420   3.942 -0.1290 -1.2607 -1.6160
 9304TIP3    H249328   3.152   6.422   4.023  0.5160  1.7690 -0.5309
 9305TIP3   OH249329   0.488   2.537  15.746  0.9634  0.1800 -0.4705
 9305TIP3    H149330   0.494   2.590  15.825 -0.4646 -0.7230  0.2942
 9305TIP3    H249331   0.574   2.496  15.737  0.7468 -0.7871  1.4297
 9306TIP3   OH249332   4.906   5.333   1.842  0.0445 -0.0723 -0.3058
 9306TIP3    H149333   4.814   5.347   1.867  0.4181  0.3350  0.8994
 9306TIP3    H249334   4.901   5.273   1.767 -1.2582  1.0499 -1.1601
 9307TIP3   OH249335   1.016   2.349   6.521  0.6070 -0.3785 -0.3440
 9307TIP3    H149336   1.106   2.369   6.546  1.1866 -1.2345 -1.7022
 9307TIP3    H249337   1.022   2.272   6.465 -0.9892 -0.5332 -0.3585
 9308TIP3   OH249338   6.126   3.083   1.228 -0.2700 -0.7598 -0.0304
 9308TIP3    H149339   6.094   3.019   1.292  1.2144 -2.1365 -0.5920
 9308TIP3    H249340   6.207   3.116   1.266 -0.4162 -0.0879 -0.2956
 9309TIP3   OH249341   2.694   2.605   1.159 -0.1209 -0.2522 -0.0582
 9309TIP3    H149342   2.669   2.692   1.192 -2.2832 -0.3546 -1.2724
 9309TIP3    H249343   2.674   2.546   1.232 -0.4694  0.0565  0.1058
 9310TIP3   OH249344   3.655   3.462   1.625  0.1873  0.0434  0.2773
 9310TIP3    H149345   3.600   3.422   1.557  0.1529  0.3320  0.1365
 9310TIP3    H249346   3.704   3.388   1.662  0.9879  0.0278 -0.7673
 9311TIP3   OH249347   4.347   1.032  11.631 -0.0299 -0.7099 -0.2763
 9311TIP3    H149348   4.364   1.081  11.712 -0.3595 -0.0690 -0.5925
 9311TIP3    H249349   4.319   1.098  11.568 -1.7840 -1.4735 -0.3432
 9312TIP3   OH249350   4.010   6.129  10.499 -0.4338 -0.5921 -0.5678
 9312TIP3    H149351   3.978   6.182  10.572  1.8944 -0.4757  0.4765
 9312TIP3    H249352   4.029   6.192  10.429  0.8163 -0.1844  0.1006
 9313TIP3   OH249353   3.598   1.448   1.987  0.6953 -0.3282 -0.2563
 9313TIP3    H149354   3.556   1.374   1.943  0.9088 -0.3330 -0.4555
 9313TIP3    H249355   3.687   1.419   2.003  0.4348 -0.5781  0.7931
 9314TIP3   OH249356   0.244   2.222  14.529  0.5479 -0.2297 -0.1608
 9314TIP3    H149357   0.316   2.162  14.550 -1.7184 -2.9754  0.2621
 9314TIP3    H249358   0.226   2.267  14.612  0.6481 -0.8117  0.1805
 9315TIP3   OH249359   6.016   6.743   4.457  0.3780 -0.3809  0.2014
 9315TIP3    H149360   6.022   6.664   4.511  2.0453 -0.0260  0.5864
 9315TIP3    H249361   6.038   6.815   4.517 -1.2120  0.4072 -0.1215
 9316TIP3   OH249362   0.394   2.654   2.150  0.0379  1.0821 -0.3754
 9316TIP3    H149363   0.377   2.643   2.056 -1.5583  0.0435 -0.0155
 9316TIP3    H249364   0.309   2.639   2.191  0.7415  1.3720  1.2520
 9317TIP3   OH249365   4.821   6.178  16.673  0.2051 -0.0455 -0.0736
 9317TIP3    H149366   4.806   6.186  16.579  0.7393  0.7278 -0.0959
 9317TIP3    H249367   4.763   6.244  16.713  0.9096  0.5060  0.0551
 9318TIP3   OH249368   1.628   5.777  14.041  0.0291 -0.3016  0.4593
 9318TIP3    H149369   1.621   5.690  14.081  1.4962 -0.8844 -0.4569
 9318TIP3    H249370   1.720   5.802  14.054 -0.6851  1.7868  1.9876
 9319TIP3   OH249371   1.957   4.730  15.037 -0.5044 -0.0252  0.0493
 9319TIP3    H149372   1.983   4.662  15.099  1.4631  1.7757  1.3680
 9319TIP3    H249373   1.929   4.803  15.092  0.5284  1.3440 -1.1648
 9320TIP3   OH249374   6.250   4.985  14.273 -0.0194  0.0812 -0.1288
 9320TIP3    H149375   6.183   5.051  14.256 -0.4056 -0.0820  0.7068
 9320TIP3    H249376   6.245   4.925  14.199 -0.0253  0.7003 -0.6264
 9321TIP3   OH249377   6.045   2.255  13.535 -0.0128  0.1445  0.2273
 9321TIP3    H149378   6.008   2.327  13.484 -1.0330  0.8973  1.9205
 9321TIP3    H249379   5.971   2.196  13.549  0.4183 -0.3919  0.2616
 9322TIP3   OH249380   3.200   3.258  15.393  0.3311 -0.2344 -0.0192
 9322TIP3    H149381   3.242   3.172  15.397  1.2746  0.1794 -0.7731
 9322TIP3    H249382   3.116   3.245  15.437  0.6592 -1.4226  0.2980
 9323TIP3   OH249383   0.287   3.255  14.451  0.0407  0.4404 -0.5250
 9323TIP3    H149384   0.286   3.222  14.361 -1.9787 -2.0785  0.3024
 9323TIP3    H249385   0.195   3.256  14.477  0.6698 -0.6104  2.0758
 9324TIP3   OH249386   3.470   2.731  13.079 -0.8465  0.3825 -0.3880
 9324TIP3    H149387   3.488   2.770  13.165 -1.7303 -0.7692  0.3525
 9324TIP3    H249388   3.466   2.806  13.019 -2.0575  1.4190  0.9033
 9325TIP3   OH249389   3.787   4.799  13.386 -0.2737  0.0165 -0.3462
 9325TIP3    H149390   3.794   4.748  13.306  0.8167  1.6148 -1.3276
 9325TIP3    H249391   3.816   4.739  13.455  0.4824 -0.8487 -1.3777
 9326TIP3   OH249392   2.209   3.280   4.071  0.3235 -0.0790  0.0264
 9326TIP3    H149393   2.187   3.367   4.037  1.0463  0.3397  0.5950
 9326TIP3    H249394   2.275   3.246   4.011  1.4135  0.5552  0.8228
 9327TIP3   OH249395   2.790   0.049  14.603 -0.0006 -0.0648 -0.6521
 9327TIP3    H149396   2.716   0.088  14.649 -0.9817 -2.4641 -0.0976
 9327TIP3    H249397   2.758  -0.035  14.571  2.8891 -1.9709  1.0193
 9328TIP3   OH249398   6.192   2.824   4.599 -0.4395  0.1573  0.0757
 9328TIP3    H149399   6.163   2.914   4.585  2.1375  0.8827 -1.2461
 9328TIP3    H249400   6.243   2.803   4.522 -0.8087 -2.4278  0.4421
 9329TIP3   OH249401   5.171   2.472   4.541 -0.7715 -0.5707 -0.3332
 9329TIP3    H149402   5.246   2.421   4.511  1.1560  0.8870  1.6505
 9329TIP3    H249403   5.179   2.472   4.636 -2.2642  1.1381 -0.1604
 9330TIP3   OH249404   0.086   5.645   5.337  0.9592  0.1017 -0.0736
 9330TIP3    H149405   0.156   5.583   5.315  0.1459 -1.0636  0.4934
 9330TIP3    H249406   0.078   5.700   5.259  2.9062  0.6718  0.0852
 9331TIP3   OH249407   3.511   5.552  13.608  0.3393  0.2236  0.3724
 9331TIP3    H149408   3.436   5.493  13.607 -0.7145  1.5179 -0.4365
 9331TIP3    H249409   3.580   5.504  13.562 -0.5743 -0.2887 -0.5191
 9332TIP3   OH249410   3.064   0.355   4.286  0.4818 -0.1012 -0.2776
 9332TIP3    H149411   2.982   0.380   4.330  0.1766 -2.0045  0.3279
 9332TIP3    H249412   3.096   0.280   4.337  0.2415 -2.2803 -3.0791
 9333TIP3   OH249413   0.597   6.284  16.599 -0.2447  0.0840  0.1993
 9333TIP3    H149414   0.520   6.231  16.619 -1.9100  2.1846 -0.2385
 9333TIP3    H249415   0.660   6.223  16.562 -2.0727 -1.5628 -0.3492
 9334TIP3   OH249416   2.325   0.122  15.343 -0.1909  0.1020  0.2960
 9334TIP3    H149417   2.299   0.158  15.428 -0.6842  1.3655 -0.3581
 9334TIP3    H249418   2.387   0.053  15.364  0.4265  1.0237  1.6447
 9335TIP3   OH249419   5.809   1.309  13.995  0.2476 -0.4117  0.5992
 9335TIP3    H149420   5.774   1.374  14.057  0.3551 -1.1259  1.4246
 9335TIP3    H249421   5.732   1.271  13.954 -0.0006 -1.8524  2.2796
 9336TIP3   OH249422   2.478   0.610  14.639  0.2432  0.0560 -0.1295
 9336TIP3    H149423   2.510   0.633  14.551  0.7608 -1.3190 -0.3151
 9336TIP3    H249424   2.535   0.539  14.668 -0.9374 -0.5996  0.6614
 9337TIP3   OH249425   4.162   3.747   3.788  0.6512 -0.4659  0.2761
 9337TIP3    H149426   4.092   3.778   3.730  0.1014 -0.6639  0.8213
 9337TIP3    H249427   4.243   3.763   3.739  0.2586  0.2183 -0.1637
 9338TIP3   OH249428   4.247   1.469   2.952 -0.3210 -0.3234  0.6214
 9338TIP3    H149429   4.295   1.515   2.882 -1.2281  0.8961  0.7641
 9338TIP3    H249430   4.297   1.389   2.966 -0.7268 -1.2224 -2.2597
 9339TIP3   OH249431   4.755   3.116   1.197  0.0435 -0.5766 -0.0913
 9339TIP3    H149432   4.674   3.144   1.241  0.1867 -2.9150  1.8880
 9339TIP3    H249433   4.724   3.063   1.123 -0.2692 -1.1436  0.4313
 9340TIP3   OH249434   0.411   0.669  12.009  0.3916 -0.6870  0.0240
 9340TIP3    H149435   0.396   0.756  11.973 -1.9207 -1.3174 -0.7120
 9340TIP3    H249436   0.416   0.682  12.103  2.1101  0.4471 -0.1754
 9341TIP3   OH249437   1.410   4.622  12.569  0.2658 -0.2694  0.4065
 9341TIP3    H149438   1.438   4.587  12.654 -0.7066 -1.2318  0.3543
 9341TIP3    H249439   1.318   4.647  12.582  0.1012 -0.4386 -0.3537
 9342TIP3   OH249440   0.252   0.925  17.098 -0.3608  0.4209  0.5017
 9342TIP3    H149441   0.189   0.855  17.085 -0.5595  0.6043  0.4698
 9342TIP3    H249442   0.199   1.000  17.125 -0.3009  0.9165 -0.6922
 9343TIP3   OH249443   0.671   1.101   1.364  0.4550  0.4026 -0.0781
 9343TIP3    H149444   0.633   1.165   1.424 -1.7395 -0.7410 -0.1451
 9343TIP3    H249445   0.751   1.142   1.332  0.4390  2.0272  1.7949
 9344TIP3   OH249446   3.363   3.558  13.459  0.0166 -0.1565 -0.3697
 9344TIP3    H149447   3.359   3.581  13.551 -1.9764  1.3408 -0.7731
 9344TIP3    H249448   3.274   3.572  13.426  0.6598 -0.6700 -2.5149
 9345TIP3   OH249449   3.260   3.431   3.530 -0.5894  0.1680  0.0790
 9345TIP3    H149450   3.202   3.505   3.545  0.1876  1.4133 -2.5389
 9345TIP3    H249451   3.202   3.359   3.506 -1.1555  0.8779 -0.7047
 9346TIP3   OH249452   4.236   2.324   4.025 -0.3534  0.0989  0.0276
 9346TIP3    H149453   4.264   2.282   4.107  1.6722  0.5736 -0.3682
 9346TIP3    H249454   4.177   2.260   3.985  1.0406 -1.5301  0.4219
 9347TIP3   OH249455   5.488   0.951   5.407 -0.3495 -0.5488 -0.5526
 9347TIP3    H149456   5.445   0.867   5.388  0.8520 -1.1574 -0.6859
 9347TIP3    H249457   5.579   0.927   5.424 -0.2301  0.6079  0.5594
 9348TIP3   OH249458   2.415   6.628   2.919 -0.6055 -0.1684  0.0515
 9348TIP3    H149459   2.486   6.597   2.975  0.3111  1.1063 -0.3509
 9348TIP3    H249460   2.410   6.722   2.937 -1.5762 -0.0734 -0.6198
 9349TIP3   OH249461   0.562   0.857   5.607  0.4273 -0.0740  0.1227
 9349TIP3    H149462   0.570   0.897   5.520 -1.3836 -0.6143 -0.3593
 9349TIP3    H249463   0.558   0.930   5.668  0.1062  0.3823 -0.4352
 9350TIP3   OH249464   3.890   2.040  15.830  0.2579 -0.6131 -0.4011
 9350TIP3    H149465   3.897   1.981  15.905  0.6797  1.8531  1.6361
 9350TIP3    H249466   3.962   2.016  15.773  0.7955 -1.6351  0.6692
 9351TIP3   OH249467   3.255   5.981  14.637  0.4473  0.1554 -0.0423
 9351TIP3    H149468   3.305   5.988  14.556  1.0544  1.1550  0.4030
 9351TIP3    H249469   3.260   6.068  14.676  1.7084 -0.7498  1.9706
 9352TIP3   OH249470   4.030   1.279  10.731 -0.0152 -0.6300 -0.3794
 9352TIP3    H149471   4.064   1.193  10.705  0.4347  0.0394 -2.2200
 9352TIP3    H249472   3.943   1.283  10.692 -0.3052 -0.5095  0.2783
 9353TIP3   OH249473   1.956   0.201  11.174 -0.5162 -0.2743 -0.1745
 9353TIP3    H149474   2.014   0.169  11.242  0.0615  0.5083 -0.2893
 9353TIP3    H249475   1.868   0.190  11.210 -0.2975 -1.2004  0.1086
 9354TIP3   OH249476   3.320   0.742   3.956  0.6201  0.2076 -0.1529
 9354TIP3    H149477   3.392   0.695   3.914  0.6122 -0.1142  0.1892
 9354TIP3    H249478   3.333   0.834   3.931  0.4541 -0.0120 -1.0905
 9355TIP3   OH249479   5.509   4.552  12.944 -0.0432 -0.4376 -0.3203
 9355TIP3    H149480   5.437   4.595  12.991 -0.0845 -1.6945  0.8457
 9355TIP3    H249481   5.566   4.520  13.014  1.2851 -0.1098 -1.2179
 9356TIP3   OH249482   2.322   5.707   0.991  1.0238 -0.2391  0.4583
 9356TIP3    H149483   2.339   5.798   0.968 -0.5593  0.4030  1.7183
 9356TIP3    H249484   2.358   5.698   1.079  0.9469 -0.7822  0.4363
 9357TIP3   OH249485   5.371   1.615   2.896 -0.1284  0.3915 -0.6321
 9357TIP3    H149486   5.363   1.711   2.902  2.7858  0.7192 -0.1387
 9357TIP3    H249487   5.293   1.587   2.849 -1.2391  2.9736 -0.5101
 9358TIP3   OH249488   0.604   5.950   3.791 -0.0489 -0.2715 -0.1859
 9358TIP3    H149489   0.592   6.044   3.808 -2.6972 -0.8731  1.9846
 9358TIP3    H249490   0.524   5.909   3.823  0.6450 -3.2471 -1.8487
 9359TIP3   OH249491   6.193   3.169   1.919 -0.2744  0.5114  0.0570
 9359TIP3    H149492   6.247   3.125   1.984 -1.4957  0.3822  1.0312
 9359TIP3    H249493   6.202   3.116   1.840 -0.4993 -0.6229  0.7700
 9360TIP3   OH249494   5.008   1.623  14.976  0.0562  0.0834 -0.1087
 9360TIP3    H149495   5.085   1.615  15.032  1.6951  1.7999 -1.9615
 9360TIP3    H249496   5.034   1.584  14.892 -1.6296 -0.6229 -0.3608
 9361TIP3   OH249497   5.184   4.468  15.546  0.2325 -0.0729  0.2570
 9361TIP3    H149498   5.160   4.476  15.454  0.5092 -0.0658  0.1863
 9361TIP3    H249499   5.138   4.390  15.576  0.9524 -0.6643 -0.1481
 9362TIP3   OH249500   5.219   6.248   3.645 -0.0793 -0.2537 -0.0904
 9362TIP3    H149501   5.253   6.284   3.564 -0.1234  0.2266  0.1017
 9362TIP3    H249502   5.170   6.169   3.619 -2.1540  1.1923 -0.8198
 9363TIP3   OH249503   4.067   1.081   4.985 -0.4050 -0.1078 -0.2007
 9363TIP3    H149504   4.025   1.145   4.928 -2.7431 -0.8900  0.5012
 9363TIP3    H249505   4.029   1.099   5.072 -1.3488 -2.5414 -0.0338
 9364TIP3   OH249506   3.328   4.009  15.280 -0.1087  0.7544 -0.1892
 9364TIP3    H149507   3.325   4.033  15.372 -0.7484  1.0226 -0.2723
 9364TIP3    H249508   3.345   3.915  15.280 -0.9545  0.5958  0.2298
 9365TIP3   OH249509   4.457   3.075   3.830 -0.2528 -0.8413 -0.0695
 9365TIP3    H149510   4.548   3.089   3.802  0.9647 -2.3354  2.6843
 9365TIP3    H249511   4.442   3.143   3.895 -1.2138 -0.4818 -0.6547
 9366TIP3   OH249512   0.535   6.226   1.073 -0.1236  0.2592  0.0494
 9366TIP3    H149513   0.558   6.297   1.013 -0.9668 -0.2565 -0.9149
 9366TIP3    H249514   0.440   6.220   1.067  0.0025 -1.6313 -0.6863
 9367TIP3   OH249515   4.062   6.473   5.026  0.5153  0.0867  0.6783
 9367TIP3    H149516   3.968   6.483   5.009  1.0320  1.9451 -1.6246
 9367TIP3    H249517   4.098   6.442   4.942  2.2060  1.3202  0.8946
 9368TIP3   OH249518   2.824   2.450  17.107 -0.1148  0.1121 -0.2995
 9368TIP3    H149519   2.894   2.449  17.042 -1.5445 -0.0983 -1.9028
 9368TIP3    H249520   2.860   2.500  17.180  0.8142  2.2520 -2.1103
 9369TIP3   OH249521   5.683   0.542   0.106 -0.2661 -0.1111  0.3610
 9369TIP3    H149522   5.690   0.448   0.120 -1.4460 -0.1750  0.6122
 9369TIP3    H249523   5.614   0.570   0.166 -0.2665  0.8364 -0.0612
 9370TIP3   OH249524   4.718   5.504   3.735  0.0181 -0.4098  0.3953
 9370TIP3    H149525   4.754   5.518   3.822 -0.2242 -1.6715  0.7057
 9370TIP3    H249526   4.787   5.457   3.688 -0.3873 -0.9467  0.3335
 9371TIP3   OH249527   0.601   0.742   6.126  1.0239 -0.0306 -0.0772
 9371TIP3    H149528   0.595   0.668   6.065 -1.2646 -1.0137  1.2211
 9371TIP3    H249529   0.528   0.729   6.187  1.7725  2.2265  1.4227
 9372TIP3   OH249530   1.979   2.684  15.225  0.1558  0.7694 -0.4282
 9372TIP3    H149531   1.985   2.596  15.188  1.3456  1.4557 -2.0196
 9372TIP3    H249532   1.943   2.737  15.154 -2.0441  1.3429  1.0105
 9373TIP3   OH249533   0.463   4.927  11.853 -0.0078  0.2245 -0.2227
 9373TIP3    H149534   0.403   4.935  11.926 -0.5715  0.2347 -0.6839
 9373TIP3    H249535   0.458   5.012  11.809 -0.0338  0.0560 -0.5493
 9374TIP3   OH249536   4.716   4.190  17.016  0.1724  1.0636 -0.2817
 9374TIP3    H149537   4.695   4.114  16.962  1.2277  0.2667  0.3978
 9374TIP3    H249538   4.751   4.154  17.097 -1.0047  2.2488  0.8123
 9375TIP3   OH249539   6.165   2.717   0.796 -0.2090 -0.0689  0.2684
 9375TIP3    H149540   6.170   2.807   0.829 -0.8947 -0.5939  1.9093
 9375TIP3    H249541   6.128   2.667   0.869 -0.3791 -1.5841 -0.8181
 9376TIP3   OH249542   3.665   1.156  14.324 -0.2175  0.9969 -0.5669
 9376TIP3    H149543   3.719   1.193  14.395 -0.2753  0.7523 -0.3978
 9376TIP3    H249544   3.582   1.203  14.332  0.4419  2.4624 -1.7514
 9377TIP3   OH249545   4.742   6.699  11.777 -0.2886  0.2081  0.1312
 9377TIP3    H149546   4.665   6.687  11.722 -0.7514  1.2207  0.5406
 9377TIP3    H249547   4.725   6.645  11.854 -0.0600 -0.4618 -0.2694
 9378TIP3   OH249548   4.936   3.315   4.102 -0.0716 -0.2057  0.0561
 9378TIP3    H149549   4.863   3.255   4.116  0.2502 -0.7071 -0.3460
 9378TIP3    H249550   5.014   3.259   4.102  0.3535  0.3703  0.8624
 9379TIP3   OH249551   3.928   6.046  15.920  0.5256  0.1644 -0.7793
 9379TIP3    H149552   3.832   6.037  15.923  0.5569  0.0040  0.7370
 9379TIP3    H249553   3.959   5.987  15.988  1.6451  0.9145 -0.6142
 9380TIP3   OH249554   4.448   3.422  14.757 -0.0476  0.1346  0.1039
 9380TIP3    H149555   4.473   3.404  14.848 -1.5506  0.4642  0.6069
 9380TIP3    H249556   4.464   3.340  14.711  0.1844 -0.2098  0.7915
 9381TIP3   OH249557   4.202   2.428  15.293  0.3624 -0.3341 -0.0049
 9381TIP3    H149558   4.217   2.509  15.341 -0.1166  0.6073 -1.3847
 9381TIP3    H249559   4.109   2.409  15.306  0.7424 -1.4035  1.3812
 9382TIP3   OH249560   0.896   4.496   1.623  0.0743 -0.4672 -0.2615
 9382TIP3    H149561   0.937   4.446   1.693  0.0920 -0.5457 -0.3271
 9382TIP3    H249562   0.913   4.587   1.645  2.4110 -0.5151 -1.5449
 9383TIP3   OH249563   0.687   1.100  17.225 -0.4991  0.1084 -0.0283
 9383TIP3    H149564   0.597   1.071  17.239  0.0533 -1.5221  0.4251
 9383TIP3    H249565   0.715   1.135  17.309 -1.4831  3.0467 -0.8312
 9384TIP3   OH249566   2.930   3.816  12.108  0.2032  0.0166 -0.0794
 9384TIP3    H149567   2.937   3.747  12.042  3.1024  1.0304 -0.9813
 9384TIP3    H249568   2.837   3.817  12.131 -0.2264 -3.0997 -1.1385
 9385TIP3   OH249569   0.188   3.140  10.988  0.0695  0.1391 -0.1058
 9385TIP3    H149570   0.111   3.175  10.944  0.0002  0.8496  0.5526
 9385TIP3    H249571   0.262   3.174  10.937 -0.0517 -1.1510 -1.1758
 9386TIP3   OH249572   4.233   2.823   3.685 -0.1747  0.2077 -0.1714
 9386TIP3    H149573   4.177   2.822   3.607  0.5718 -1.7689 -0.7453
 9386TIP3    H249574   4.194   2.756   3.742 -0.8624  1.7993  1.3195
 9387TIP3   OH249575   4.081   4.061  11.639 -0.2219 -0.2501 -0.2673
 9387TIP3    H149576   4.114   4.076  11.728  1.0757 -1.0493 -0.5866
 9387TIP3    H249577   4.037   3.976  11.644  1.8827 -1.4407 -0.8680
 9388TIP3   OH249578   4.328   1.653   5.141  0.0896 -0.5553  0.1355
 9388TIP3    H149579   4.264   1.582   5.146 -0.7802  0.2059 -0.0039
 9388TIP3    H249580   4.412   1.609   5.136 -0.4634 -1.5827 -0.2910
 9389TIP3   OH249581   5.378   1.765  12.013  0.1134 -0.2003  0.3969
 9389TIP3    H149582   5.416   1.740  11.929 -0.2369 -0.1719  0.2284
 9389TIP3    H249583   5.284   1.750  12.002  0.1310 -0.7682  0.9867
 9390TIP3   OH249584   5.309   1.877   2.929  0.1861 -0.0025 -0.1338
 9390TIP3    H149585   5.344   1.962   2.958  1.2902 -0.1237 -1.0247
 9390TIP3    H249586   5.219   1.896   2.904  1.0669  1.4983 -2.5803
 9391TIP3   OH249587   0.995   2.943   2.711  0.1441 -0.0436 -0.1036
 9391TIP3    H149588   1.048   2.973   2.637 -1.9400  0.7838 -1.3721
 9391TIP3    H249589   0.920   2.899   2.670  1.0315 -3.5185  1.6425
 9392TIP3   OH249590   4.896   5.385  11.095  0.0248 -0.2167  0.7209
 9392TIP3    H149591   4.936   5.334  11.166  1.2245  1.8714  1.6240
 9392TIP3    H249592   4.908   5.476  11.121 -2.2488  0.5864 -0.7132
 9393TIP3   OH249593   0.020   3.128   5.006 -0.0986 -0.6095 -0.2532
 9393TIP3    H149594   0.079   3.054   5.019  0.4516  0.1831  2.2458
 9393TIP3    H249595   0.039   3.159   4.917  2.0360 -1.4212 -0.1181
 9394TIP3   OH249596   1.259   2.088   3.235 -0.2598 -0.7362 -0.0780
 9394TIP3    H149597   1.307   2.058   3.312 -2.0649 -0.0255  1.3936
 9394TIP3    H249598   1.191   2.022   3.222 -1.7077  0.5260  0.7003
 9395TIP3   OH249599   3.467   1.527   2.625  0.8019  0.4501  0.3303
 9395TIP3    H149600   3.405   1.569   2.566  0.5452 -2.2410 -1.4607
 9395TIP3    H249601   3.552   1.566   2.603  0.3742  1.0467 -0.2769
 9396TIP3   OH249602   5.284   1.306  12.533 -0.5833 -0.1559 -0.8117
 9396TIP3    H149603   5.276   1.271  12.621  0.4894 -0.9249 -1.0093
 9396TIP3    H249604   5.245   1.394  12.538 -4.1422 -1.5774 -0.5094
 9397TIP3   OH249605   2.330   1.283  11.743 -0.0829  0.5157  0.3783
 9397TIP3    H149606   2.410   1.247  11.706  0.3210  0.9370  0.8347
 9397TIP3    H249607   2.331   1.375  11.718 -0.3544  0.5582  0.5151
 9398TIP3   OH249608   5.535   2.008  15.595 -0.1367  0.0536 -0.7984
 9398TIP3    H149609   5.532   2.098  15.561  3.3044  0.7796  0.3939
 9398TIP3    H249610   5.557   1.955  15.518 -2.4557  0.1185 -1.5659
 9399TIP3   OH249611   2.458   3.260   4.406  0.1726  0.3156 -0.2998
 9399TIP3    H149612   2.471   3.276   4.499  0.7331  0.4624 -0.4028
 9399TIP3    H249613   2.389   3.321   4.380 -0.6634 -0.3777  0.2183
 9400TIP3   OH249614   4.169   1.170  14.574 -0.4346 -0.1665 -0.1125
 9400TIP3    H149615   4.208   1.086  14.599  0.0317  0.1091  0.1001
 9400TIP3    H249616   4.125   1.152  14.491 -0.0747 -0.5497 -0.2238
 9401TIP3   OH249617   3.537   4.934  13.293 -0.3838  0.2920  0.5420
 9401TIP3    H149618   3.613   4.940  13.351 -0.6416 -0.3734  0.9616
 9401TIP3    H249619   3.501   4.847  13.310 -1.0426  0.4741  0.1051
 9402TIP3   OH249620   1.643   5.892  11.857 -0.3067 -0.1267  0.6269
 9402TIP3    H149621   1.624   5.929  11.943 -1.1096  1.5085 -0.2085
 9402TIP3    H249622   1.622   5.963  11.795 -1.7397 -1.9265 -1.0658
 9403TIP3   OH249623   3.766   6.210  12.551  0.5984 -0.1991  0.2638
 9403TIP3    H149624   3.811   6.279  12.600 -1.7829  2.0131 -0.4277
 9403TIP3    H249625   3.803   6.217  12.463  0.2105  0.3646  0.1407
 9404TIP3   OH249626   5.514   4.819  14.756 -0.6050 -0.1854 -0.8212
 9404TIP3    H149627   5.422   4.799  14.773 -0.7002  1.2700  0.5963
 9404TIP3    H249628   5.561   4.781  14.831 -0.5831  2.8260  0.8362
 9405TIP3   OH249629   0.848   4.989   4.075 -0.5830 -0.4457 -0.4575
 9405TIP3    H149630   0.848   4.984   4.170 -2.2156 -1.1857 -0.4536
 9405TIP3    H249631   0.928   4.944   4.048  1.6886  2.6378  0.5973
 9406TIP3   OH249632   5.211   0.933  17.018 -0.7019  0.3381 -0.3007
 9406TIP3    H149633   5.132   0.980  17.043 -2.1100 -1.7148 -0.6196
 9406TIP3    H249634   5.216   0.944  16.923 -0.5637  0.5201 -0.2725
 9407TIP3   OH249635   2.275   3.399   0.678  0.0114  0.0482  0.2564
 9407TIP3    H149636   2.264   3.416   0.771  0.9949  0.6486  0.2698
 9407TIP3    H249637   2.368   3.378   0.668 -0.0969 -0.0695 -0.5775
 9408TIP3   OH249638   2.517   3.595  16.535 -0.1884 -0.2785  0.0630
 9408TIP3    H149639   2.489   3.539  16.463 -1.6683 -0.6744  0.9028
 9408TIP3    H249640   2.446   3.590  16.599  0.4938  1.0807  0.9938
 9409TIP3   OH249641   0.119   2.925   0.034 -0.2768  0.1881  0.3423
 9409TIP3    H149642   0.108   2.931   0.129  1.2164  1.2079  0.4800
 9409TIP3    H249643   0.151   2.836   0.019  0.2760  0.2884  0.8857
 9410TIP3   OH249644   3.960   6.510  13.333 -0.1022 -0.0840  0.2861
 9410TIP3    H149645   3.904   6.588  13.334 -1.2245 -0.8630  1.8367
 9410TIP3    H249646   3.933   6.460  13.410  0.5412 -2.0488 -0.6979
 9411TIP3   OH249647   5.892   0.061   1.018 -0.0290 -0.4122 -0.7115
 9411TIP3    H149648   5.935   0.143   1.039 -0.0186 -0.7411  0.6080
 9411TIP3    H249649   5.814   0.087   0.969 -1.5257  0.6412  2.0157
 9412TIP3   OH249650   4.458   3.625   3.087 -0.6615 -0.4060 -0.3790
 9412TIP3    H149651   4.370   3.616   3.052 -0.5268 -0.5900 -0.6838
 9412TIP3    H249652   4.512   3.570   3.030 -0.5286 -1.1983  0.4776
 9413TIP3   OH249653   5.966   2.200   1.293 -0.0813 -0.5379 -0.2030
 9413TIP3    H149654   5.978   2.114   1.252  0.9156 -2.4093  3.4595
 9413TIP3    H249655   5.878   2.195   1.331 -0.4804  0.5906 -0.9516
 9414TIP3   OH249656   2.907   4.448  16.612  0.0469 -0.3581 -0.0580
 9414TIP3    H149657   2.842   4.406  16.668  0.3069 -0.8079 -0.0900
 9414TIP3    H249658   2.911   4.394  16.533 -0.7926  0.6338 -0.8202
 9415TIP3   OH249659   4.643   2.719  17.071 -0.0183 -0.7055  0.2339
 9415TIP3    H149660   4.588   2.794  17.045  1.8723  0.3234 -0.9920
 9415TIP3    H249661   4.581   2.647  17.082 -1.6095  0.3534 -1.2700
 9416TIP3   OH249662   0.797   5.214   0.715 -0.0395  0.3530  0.2380
 9416TIP3    H149663   0.830   5.277   0.780 -0.2844  1.8063 -0.9746
 9416TIP3    H249664   0.707   5.242   0.700  0.2626  0.5660 -1.2973
 9417TIP3   OH249665   2.320   1.534  15.727  0.6817 -0.1059  0.0740
 9417TIP3    H149666   2.395   1.542  15.785 -0.3619 -1.7953  1.7916
 9417TIP3    H249667   2.297   1.624  15.704  1.2353  0.6190  2.1656
 9418TIP3   OH249668   0.518   6.504   3.270  0.3328 -0.0993 -0.5384
 9418TIP3    H149669   0.542   6.456   3.349  1.2359  0.2184 -0.6069
 9418TIP3    H249670   0.432   6.470   3.247  0.1914 -0.4197  0.4012
 9419TIP3   OH249671   2.212   5.147  17.165 -0.0188  0.4404 -0.3566
 9419TIP3    H149672   2.273   5.196  17.220 -0.6617 -2.6600  3.5287
 9419TIP3    H249673   2.268   5.090  17.112  0.5753 -0.2570  0.9789
 9420TIP3   OH249674   3.674   4.485  13.293 -0.3274 -0.3026 -0.1491
 9420TIP3    H149675   3.647   4.468  13.202  1.5415 -0.9041 -0.6194
 9420TIP3    H249676   3.769   4.491  13.289 -0.3259  1.7289  1.4506
 9421TIP3   OH249677   2.054   3.080  13.156 -0.1981  0.0436  0.2033
 9421TIP3    H149678   2.030   3.001  13.204 -0.1496 -0.9522 -1.3659
 9421TIP3    H249679   2.077   3.050  13.069  3.6004  1.2789  0.5954
 9422TIP3   OH249680   6.394   2.533  11.675 -0.1039 -0.0325 -0.5524
 9422TIP3    H149681   6.325   2.473  11.703  0.7510 -0.6946  0.2086
 9422TIP3    H249682   6.347   2.610  11.643 -1.2579 -1.3536 -2.2455
 9423TIP3   OH249683   3.394   1.725  11.666 -0.0750 -0.1460  0.4161
 9423TIP3    H149684   3.487   1.748  11.662 -0.1494  0.0280 -0.6341
 9423TIP3    H249685   3.371   1.736  11.758  0.8336  0.2619  0.6125
 9424TIP3   OH249686   1.006   1.643   1.465  0.2545  0.5278  0.9238
 9424TIP3    H149687   1.075   1.614   1.405  1.1220  0.6115  1.8408
 9424TIP3    H249688   1.051   1.703   1.525 -0.6299  0.5959  1.5347
 9425TIP3   OH249689   1.565   3.970  15.462  0.3821  0.1466 -0.3147
 9425TIP3    H149690   1.529   3.903  15.403  0.9555  0.4164 -0.9857
 9425TIP3    H249691   1.657   3.976  15.437  0.1430  1.8832 -0.9533
 9426TIP3   OH249692   4.892   2.822   0.901 -0.1952  0.1790 -0.4459
 9426TIP3    H149693   4.837   2.859   0.970  0.2334  0.1866 -0.1082
 9426TIP3    H249694   4.961   2.886   0.888  0.7742 -0.6469  0.4124
 9427TIP3   OH249695   3.133   3.677   3.571 -0.2740  0.1559 -0.3426
 9427TIP3    H149696   3.117   3.701   3.479  0.7584 -0.9598 -0.8255
 9427TIP3    H249697   3.133   3.761   3.617 -1.3497  0.6940 -1.2596
 9428TIP3   OH249698   3.293   4.868   1.289 -0.1816  0.1707  0.1412
 9428TIP3    H149699   3.352   4.883   1.363 -1.1706 -0.2201  1.0165
 9428TIP3    H249700   3.297   4.950   1.240  2.8068 -0.5803 -1.1007
 9429TIP3   OH249701   2.431   1.735  14.775  0.9737  0.4587 -0.8386
 9429TIP3    H149702   2.383   1.810  14.813 -0.6442 -0.6854 -0.5248
 9429TIP3    H249703   2.482   1.773  14.704 -0.4769  1.7606 -1.2429
 9430TIP3   OH249704   5.947   5.231  10.813  0.0769  0.2776  0.3004
 9430TIP3    H149705   5.888   5.263  10.882 -2.0064 -0.0485 -1.2167
 9430TIP3    H249706   5.888   5.193  10.748  1.8791  1.3615 -2.1005
 9431TIP3   OH249707   4.451   2.893  15.224 -0.0293  0.3780 -0.9080
 9431TIP3    H149708   4.467   2.900  15.318  1.4244  0.3682 -1.1396
 9431TIP3    H249709   4.381   2.956  15.207 -1.6529 -0.9423  0.4679
 9432TIP3   OH249710   3.701   4.329  16.933  0.2080  0.0809  0.7159
 9432TIP3    H149711   3.725   4.313  16.842 -0.4914  0.8310  0.3964
 9432TIP3    H249712   3.780   4.304  16.982  0.5868 -0.3512 -0.0783
 9433TIP3   OH249713   5.725   2.591  13.131 -0.3330 -0.2227  0.2356
 9433TIP3    H149714   5.643   2.550  13.159 -0.5911 -0.0750 -0.2888
 9433TIP3    H249715   5.794   2.538  13.173 -0.6851  1.6030  3.4589
 9434TIP3   OH249716   1.468   3.214  14.835  0.3729  0.1555  0.1280
 9434TIP3    H149717   1.454   3.290  14.778 -1.4784  0.6760  1.1644
 9434TIP3    H249718   1.380   3.177  14.846  1.0012 -1.1172  1.0138
 9435TIP3   OH249719   3.163   0.725   0.708  0.4264 -0.1087 -0.6651
 9435TIP3    H149720   3.117   0.684   0.635 -1.5363  0.5452  0.1216
 9435TIP3    H249721   3.164   0.658   0.776  1.3220 -0.3584 -0.9041
 9436TIP3   OH249722   1.572   2.589   3.672  0.1283 -0.7283  0.0373
 9436TIP3    H149723   1.543   2.593   3.763  0.0101  0.3968 -0.0367
 9436TIP3    H249724   1.634   2.516   3.669  0.9217 -0.1379  1.2609
 9437TIP3   OH249725   4.097   1.289  15.901  0.3822  0.1528 -0.0846
 9437TIP3    H149726   4.016   1.327  15.868 -0.2563 -0.3239  0.9143
 9437TIP3    H249727   4.158   1.363  15.904  0.7868  0.0966 -3.1220
 9438TIP3   OH249728   4.202   4.624   5.113 -0.3981 -0.2269  0.2795
 9438TIP3    H149729   4.294   4.645   5.098 -0.3018  0.4967  1.6667
 9438TIP3    H249730   4.154   4.696   5.071 -0.4576 -1.5040 -1.9866
 9439TIP3   OH249731   4.667   2.062   6.462 -0.2402 -0.9858 -0.1434
 9439TIP3    H149732   4.625   2.147   6.448  1.0031 -0.3572 -0.2031
 9439TIP3    H249733   4.602   1.998   6.434 -1.1535 -0.0490 -0.2171
 9440TIP3   OH249734   2.024   1.531  14.717 -0.3900  0.1828  0.4150
 9440TIP3    H149735   2.118   1.510  14.714 -0.0747  1.5455 -0.0650
 9440TIP3    H249736   1.981   1.455  14.677  0.6341  0.1163 -0.6278
 9441TIP3   OH249737   6.710   1.227   2.834 -0.2682 -0.6139 -0.0896
 9441TIP3    H149738   6.679   1.196   2.750  0.7511 -0.8082 -0.4168
 9441TIP3    H249739   6.660   1.178   2.899  0.0878 -1.6761 -0.5972
 9442TIP3   OH249740   5.319   3.934  11.206 -0.2313 -0.5322 -0.3503
 9442TIP3    H149741   5.338   3.856  11.154 -0.3913 -1.2966  0.7093
 9442TIP3    H249742   5.264   3.989  11.149  1.8681 -0.0383 -2.0328
 9443TIP3   OH249743   5.746   2.107  17.135 -0.4723  0.5458 -0.2308
 9443TIP3    H149744   5.816   2.166  17.164 -0.8978  0.8917  0.1134
 9443TIP3    H249745   5.672   2.129  17.191 -0.3385 -1.0509  0.6103
 9444TIP3   OH249746   2.316   3.694   3.214  0.1984  0.0503 -0.4979
 9444TIP3    H149747   2.381   3.733   3.273  1.0487 -0.8062 -0.8397
 9444TIP3    H249748   2.239   3.680   3.269  0.6346  0.1678  0.1595
 9445TIP3   OH249749   6.634   2.257  16.966 -0.0913 -0.1065 -0.0533
 9445TIP3    H149750   6.708   2.214  17.008  1.2449  0.7525 -1.4295
 9445TIP3    H249751   6.601   2.194  16.902 -1.1894 -0.8443  1.1863
 9446TIP3   OH249752   4.486   1.638   0.128  0.0872  0.1258  0.7147
 9446TIP3    H149753   4.486   1.559   0.182  0.2583  0.5245  1.3040
 9446TIP3    H249754   4.554   1.622   0.062 -0.1442 -0.3754  0.5924
 9447TIP3   OH249755   0.469   5.574  16.744 -0.0983 -0.2422  0.5811
 9447TIP3    H149756   0.560   5.567  16.714 -0.2643 -0.7134  0.1619
 9447TIP3    H249757   0.462   5.662  16.781  0.2741  0.1491 -0.2510
 9448TIP3   OH249758   5.181   6.431  12.632 -0.1956  0.1976 -0.1427
 9448TIP3    H149759   5.142   6.387  12.708 -2.5005  0.0066 -1.3561
 9448TIP3    H249760   5.224   6.361  12.583 -2.5107 -0.5190 -1.2547
 9449TIP3   OH249761   1.471   0.692   1.610  0.2992 -0.1405  0.3662
 9449TIP3    H149762   1.391   0.640   1.620  0.5876 -0.8057 -0.7422
 9449TIP3    H249763   1.443   0.781   1.632 -0.4117 -0.5804  1.3645
 9450TIP3   OH249764   6.061   5.725  13.100 -0.3888 -0.2678 -0.2203
 9450TIP3    H149765   6.124   5.766  13.040  1.6989  0.1893  2.1325
 9450TIP3    H249766   6.034   5.645  13.055  2.9729 -1.1915 -0.8241
 9451TIP3   OH249767   1.978   0.615  15.094 -0.1259 -0.0700  0.2178
 9451TIP3    H149768   1.956   0.639  15.184 -2.2542  1.5280 -0.6610
 9451TIP3    H249769   2.001   0.697  15.052 -1.6645 -0.3826 -1.3254
 9452TIP3   OH249770   2.646   5.552   5.671  0.3967 -0.3630  0.3542
 9452TIP3    H149771   2.632   5.641   5.703 -1.1478  0.3088 -1.8794
 9452TIP3    H249772   2.639   5.496   5.749  2.2268  1.4694  1.9329
 9453TIP3   OH249773   6.083   2.621  13.758 -0.7289 -0.3889  0.5660
 9453TIP3    H149774   6.169   2.586  13.736 -1.1351  0.0412 -2.0639
 9453TIP3    H249775   6.029   2.543  13.775 -0.3560 -0.8018 -0.0831
 9454TIP3   OH249776   4.157   5.734   0.147  0.6972  0.1625 -0.1996
 9454TIP3    H149777   4.216   5.732   0.072 -1.0477 -1.1732 -1.6353
 9454TIP3    H249778   4.109   5.651   0.143 -0.8712  0.9170  1.2101
 9455TIP3   OH249779   0.195   2.045   2.594  0.1658 -0.9319  0.4254
 9455TIP3    H149780   0.176   2.120   2.538  0.7937 -1.3783 -0.4151
 9455TIP3    H249781   0.114   1.994   2.593  0.2689 -1.0953 -0.3459
 9456TIP3   OH249782   0.479   3.879   0.422 -0.0169 -0.1810  0.2274
 9456TIP3    H149783   0.566   3.890   0.461  1.5502 -2.6846 -2.2144
 9456TIP3    H249784   0.420   3.876   0.497  1.9148  1.8757  1.9661
 9457TIP3   OH249785   6.285   1.437  11.399 -0.4010 -0.0508  0.3727
 9457TIP3    H149786   6.265   1.401  11.486  1.3316 -1.5374  0.2093
 9457TIP3    H249787   6.210   1.411  11.345 -1.4010  0.7105  1.3262
 9458TIP3   OH249788   0.070   1.051   3.397  0.4917  0.1814  0.0510
 9458TIP3    H149789   0.006   1.114   3.431  0.6523  0.4937 -0.2260
 9458TIP3    H249790   0.101   1.005   3.475 -1.4617 -1.3072  0.0085
 9459TIP3   OH249791   4.382   3.162   4.390  0.5904 -0.0201 -0.3907
 9459TIP3    H149792   4.431   3.211   4.324 -3.2307  1.9915 -2.0955
 9459TIP3    H249793   4.337   3.094   4.340  0.6784 -1.0556  0.8867
 9460TIP3   OH249794   4.326   2.522  10.676 -0.3213  0.1448 -0.1757
 9460TIP3    H149795   4.281   2.472  10.608 -0.5641  2.2329 -1.6383
 9460TIP3    H249796   4.419   2.502  10.663 -0.1633  1.9106 -2.4409
 9461TIP3   OH249797   0.230   3.264  14.988 -0.7081 -0.3700  0.5800
 9461TIP3    H149798   0.298   3.330  14.976 -1.2339  0.2012  0.7217
 9461TIP3    H249799   0.148   3.312  14.977 -1.0973 -0.9437  0.9748
 9462TIP3   OH249800   5.433   3.224   4.212  0.2876  0.7404  0.1453
 9462TIP3    H149801   5.482   3.148   4.244 -1.2156 -0.1550  0.4021
 9462TIP3    H249802   5.438   3.288   4.283  1.9650  1.1218 -0.2612
 9463TIP3   OH249803   6.229   1.844  16.612 -0.3415  0.5776 -0.0111
 9463TIP3    H149804   6.230   1.801  16.698  0.7164  2.5535  1.0434
 9463TIP3    H249805   6.321   1.861  16.593 -0.4255 -1.1775 -2.3186
 9464TIP3   OH249806   5.091   2.027  17.188 -0.3816  0.0331 -0.2492
 9464TIP3    H149807   5.103   1.999  17.278  0.6148 -0.3923 -0.4996
 9464TIP3    H249808   5.063   1.948  17.142  2.3642 -0.6576 -0.9438
 9465TIP3   OH249809   1.233   0.844  16.378 -0.0892 -0.4234 -0.4851
 9465TIP3    H149810   1.269   0.771  16.328 -1.6699 -1.3003 -0.3993
 9465TIP3    H249811   1.139   0.843  16.358 -0.3974  0.5761  0.7824
 9466TIP3   OH249812   4.197   6.157   1.141  0.2333 -0.3485  0.4265
 9466TIP3    H149813   4.281   6.113   1.128  0.0896 -0.6318  0.4283
 9466TIP3    H249814   4.219   6.241   1.181  0.7010  0.5457 -1.5670
 9467TIP3   OH249815   2.506   3.223  14.036 -0.5813 -0.0874 -0.1005
 9467TIP3    H149816   2.572   3.261  14.094  1.3543 -0.1735 -2.1106
 9467TIP3    H249817   2.453   3.297  14.007  0.6401  0.4935 -0.8922
 9468TIP3   OH249818   2.096   6.052  13.254  0.0300 -0.3113 -0.2665
 9468TIP3    H149819   2.067   6.056  13.345 -0.4571 -1.3431 -0.3586
 9468TIP3    H249820   2.147   6.131  13.241 -1.7974  1.0121  0.2343
 9469TIP3   OH249821   4.961   4.083  16.188  0.0534  0.1245 -0.5366
 9469TIP3    H149822   4.930   4.166  16.153 -1.2230 -0.2952 -0.4234
 9469TIP3    H249823   5.057   4.090  16.184  0.0010  1.9455  0.2863
 9470TIP3   OH249824   5.771   0.910   5.376 -0.7693  0.0324 -1.0360
 9470TIP3    H149825   5.740   0.857   5.302 -0.4308  1.2188 -2.0743
 9470TIP3    H249826   5.866   0.913   5.364 -0.9689  3.4716 -2.9501
 9471TIP3   OH249827   1.766   0.058  13.431 -0.0160  0.2392  0.4782
 9471TIP3    H149828   1.776   0.133  13.491 -0.5690  0.8249 -0.1426
 9471TIP3    H249829   1.787   0.094  13.345 -1.3069 -0.0555  0.0264
 9472TIP3   OH249830   3.851   6.482  15.828 -0.2451  0.3380 -0.0327
 9472TIP3    H149831   3.909   6.506  15.755 -0.0072 -0.5778 -0.1683
 9472TIP3    H249832   3.906   6.429  15.885  0.1235  2.6014  1.8393
 9473TIP3   OH249833   4.449   0.586  14.777  0.2262 -0.7094  0.1548
 9473TIP3    H149834   4.482   0.543  14.857  0.4524  0.0347  0.4740
 9473TIP3    H249835   4.422   0.673  14.807  2.2573  0.3789 -0.9112
 9474TIP3   OH249836   3.817   5.104   2.301  0.3560  0.7674 -0.0796
 9474TIP3    H149837   3.752   5.139   2.241 -0.9009 -0.1516  0.6909
 9474TIP3    H249838   3.793   5.142   2.386  1.0603  0.7028  0.1545
 9475TIP3   OH249839   0.840   2.329   2.931 -0.2847 -0.1767 -0.3418
 9475TIP3    H149840   0.847   2.233   2.928 -0.0906 -0.1898  0.3881
 9475TIP3    H249841   0.869   2.358   2.844  1.5850 -0.6710  0.0785
 9476TIP3   OH249842   3.009   3.351   2.723  0.0318 -0.5039  0.0107
 9476TIP3    H149843   2.987   3.440   2.695  0.1678 -0.4112  0.1920
 9476TIP3    H249844   2.932   3.322   2.772  1.2388  0.8175  2.9674
 9477TIP3   OH249845   5.069   3.156  15.188 -0.1406  0.1312  0.2442
 9477TIP3    H149846   5.017   3.167  15.108 -4.4000  1.8361  2.8861
 9477TIP3    H249847   5.041   3.072  15.223  1.0063 -0.1928  0.4017
 9478TIP3   OH249848   3.445   0.162   2.308  0.8598 -0.3284 -0.4083
 9478TIP3    H149849   3.472   0.219   2.381  0.7613 -0.6459 -0.1189
 9478TIP3    H249850   3.514   0.173   2.243 -0.3078  1.9526 -1.3877
 9479TIP3   OH249851   0.227   5.028   4.191  0.1186 -0.0630  0.3080
 9479TIP3    H149852   0.303   5.044   4.136 -0.7839 -0.4063 -1.0954
 9479TIP3    H249853   0.153   5.062   4.141 -0.6825  0.1031  1.5502
 9480TIP3   OH249854   4.721   1.248   4.970  0.4394  0.3237 -0.0910
 9480TIP3    H149855   4.742   1.157   4.991  0.5388  0.4746  0.4618
 9480TIP3    H249856   4.684   1.244   4.881  2.2375 -0.0301 -0.8634
 9481TIP3   OH249857   2.951   3.256   0.991 -0.0333  0.2270 -0.4379
 9481TIP3    H149858   2.878   3.202   0.958 -1.5461  0.4012  2.3327
 9481TIP3    H249859   2.926   3.345   0.968  0.1272  0.1599 -0.8895
 9482TIP3   OH249860   5.613   4.200  15.448  0.1762 -0.2593 -0.2456
 9482TIP3    H149861   5.549   4.269  15.459 -0.5022 -0.9196  0.0425
 9482TIP3    H249862   5.643   4.179  15.537  1.0741  0.2937 -0.4027
 9483TIP3   OH249863   6.648   1.297   3.191 -0.0669 -0.0485  0.8025
 9483TIP3    H149864   6.576   1.318   3.250  0.5460  1.4667  1.0523
 9483TIP3    H249865   6.614   1.227   3.135 -1.3301 -0.1337  1.6458
 9484TIP3   OH249866   3.934   5.446   4.161 -0.2127  0.0969  0.1455
 9484TIP3    H149867   3.949   5.442   4.067 -0.3931 -1.7671  0.1539
 9484TIP3    H249868   4.006   5.395   4.199 -0.8624 -0.2732  0.9142
 9485TIP3   OH249869   2.597   1.462  11.651 -0.0123 -0.5112 -0.5030
 9485TIP3    H149870   2.665   1.512  11.605 -1.1405 -0.5392 -2.3242
 9485TIP3    H249871   2.585   1.384  11.597 -1.3594 -0.5891 -0.1152
 9486TIP3   OH249872   6.085   5.188   0.248  0.2659 -0.4118 -0.0410
 9486TIP3    H149873   6.029   5.126   0.296 -0.4915 -0.6419 -1.1764
 9486TIP3    H249874   6.040   5.272   0.258  0.9412 -0.1566  0.9429
 9487TIP3   OH249875   6.543   0.192   2.031 -0.3484 -0.4384 -0.1673
 9487TIP3    H149876   6.532   0.223   2.121 -1.8164  3.2402 -1.4236
 9487TIP3    H249877   6.637   0.189   2.018 -0.1094 -0.9989  1.4528
 9488TIP3   OH249878   3.873   4.087   1.989 -0.2108 -0.0404 -0.0721
 9488TIP3    H149879   3.873   4.048   1.901 -0.3895  0.0903 -0.1299
 9488TIP3    H249880   3.790   4.134   1.995 -1.1550 -1.7409  0.9175
 9489TIP3   OH249881   6.180   4.162  11.018 -1.0800  0.0418 -0.2047
 9489TIP3    H149882   6.253   4.172  11.080 -0.0937 -0.2508 -1.2697
 9489TIP3    H249883   6.153   4.252  10.998 -2.4242  0.1309  1.7465
 9490TIP3   OH249884   3.348   3.742   1.139 -0.1904 -0.7678  0.2354
 9490TIP3    H149885   3.429   3.713   1.098 -1.2299 -2.3333 -0.8406
 9490TIP3    H249886   3.375   3.774   1.225  1.4369 -2.4258  0.4227
 9491TIP3   OH249887   6.706   1.580   3.393 -0.7474  0.0615 -0.1530
 9491TIP3    H149888   6.751   1.599   3.311 -0.8633 -1.3300 -0.5621
 9491TIP3    H249889   6.614   1.574   3.369 -0.5242 -3.4605 -0.6121
 9492TIP3   OH249890   3.385   5.091  14.712 -0.1440 -0.9582 -0.1548
 9492TIP3    H149891   3.411   5.183  14.719 -1.3140 -0.6723  0.8394
 9492TIP3    H249892   3.455   5.050  14.661 -1.0122  1.0268 -3.1896
 9493TIP3   OH249893   5.933   0.748   4.914 -0.0289  0.7000  0.2453
 9493TIP3    H149894   5.983   0.708   4.986 -0.4156 -0.0751  0.0997
 9493TIP3    H249895   5.997   0.756   4.843  0.1274  0.5916  0.3714
 9494TIP3   OH249896   0.758   4.185   4.503  0.5762 -0.0746  0.0481
 9494TIP3    H149897   0.697   4.240   4.552  1.0887 -0.6481  1.3648
 9494TIP3    H249898   0.790   4.242   4.433  0.1383  0.9111  0.6251
 9495TIP3   OH249899   2.652   1.631   3.092  0.6186 -0.0600  0.7328
 9495TIP3    H149900   2.562   1.654   3.069  1.1576  0.0460 -1.4246
 9495TIP3    H249901   2.694   1.613   3.009  2.4141 -0.8558  1.7678
 9496TIP3   OH249902   3.427   4.413  16.883 -0.1979  0.2022  0.0650
 9496TIP3    H149903   3.407   4.399  16.791  0.9000  0.4638 -0.2242
 9496TIP3    H249904   3.510   4.367  16.897  0.9544  2.2206  0.2948
 9497TIP3   OH249905   1.022   6.351  11.566  0.4449 -0.1266 -0.1621
 9497TIP3    H149906   0.941   6.344  11.516 -0.9813  0.0502  1.9698
 9497TIP3    H249907   1.011   6.431  11.618  2.0829 -0.0069  0.0529
 9498TIP3   OH249908   6.429   5.332   3.748 -0.2886  0.3496  0.0561
 9498TIP3    H149909   6.517   5.295   3.755 -0.2116  0.6150  0.4996
 9498TIP3    H249910   6.372   5.260   3.776 -0.1823  0.3408  0.2539
 9499TIP3   OH249911   4.869   0.393  11.440 -0.5295 -0.0914 -0.3589
 9499TIP3    H149912   4.902   0.387  11.351 -0.3451  2.3007 -0.5130
 9499TIP3    H249913   4.790   0.446  11.434 -1.5910 -1.4697  0.6893
 9500TIP3   OH249914   6.479   2.284  11.271  0.6962 -0.0831  0.0715
 9500TIP3    H149915   6.499   2.332  11.352  0.1019 -1.5850  1.1647
 9500TIP3    H249916   6.546   2.216  11.267  0.4794 -0.2627 -0.4783
 9501TIP3   OH249917   6.308   5.155   5.882 -0.0478  0.3007  0.0113
 9501TIP3    H149918   6.357   5.236   5.864 -0.1618  0.7304  1.5108
 9501TIP3    H249919   6.245   5.180   5.949  0.1581 -1.1213  0.7633
 9502TIP3   OH249920   3.681   3.898  11.884  0.0431 -0.0310  0.2597
 9502TIP3    H149921   3.625   3.918  11.960 -0.2081  0.3586 -0.0283
 9502TIP3    H249922   3.769   3.889  11.921 -0.1684 -0.4148  0.6818
 9503TIP3   OH249923   5.188   0.404   3.809 -0.5000 -0.0072 -0.2561
 9503TIP3    H149924   5.278   0.434   3.793 -0.4204 -0.7368 -1.2989
 9503TIP3    H249925   5.186   0.383   3.902  0.8896 -1.4312 -0.4926
 9504TIP3   OH249926   5.532   5.551  10.440 -0.2744 -0.5359 -0.2442
 9504TIP3    H149927   5.518   5.477  10.499 -1.0384 -1.4562 -1.5182
 9504TIP3    H249928   5.612   5.530  10.392  1.2423  0.9529  1.4772
 9505TIP3   OH249929   4.111   5.076   0.009 -0.2294 -0.0860 -0.2346
 9505TIP3    H149930   4.185   5.017   0.025 -1.2462 -1.8204 -1.5550
 9505TIP3    H249931   4.074   5.093   0.095  1.1967  0.1468  0.3533
 9506TIP3   OH249932   1.468   6.633   5.055  0.0845  0.1032  0.1300
 9506TIP3    H149933   1.410   6.586   4.994 -1.1200  1.9401 -0.2410
 9506TIP3    H249934   1.551   6.585   5.051 -0.5020 -0.8806 -1.6286
 9507TIP3   OH249935   3.690   2.709   1.182  0.0226 -0.1724 -0.1595
 9507TIP3    H149936   3.760   2.713   1.117 -0.2431  0.1620 -0.4322
 9507TIP3    H249937   3.689   2.797   1.220  0.2513 -0.3995  0.3805
 9508TIP3   OH249938   4.512   3.975   3.115 -0.0813 -0.0347  0.4132
 9508TIP3    H149939   4.534   3.971   3.022  1.4907  1.7376  0.6521
 9508TIP3    H249940   4.434   3.921   3.123 -0.1159 -0.4361 -1.8864
 9509TIP3   OH249941   5.904   2.695  12.517  0.0363 -0.2331 -0.1733
 9509TIP3    H149942   5.834   2.639  12.484 -2.3535  1.8022  1.1056
 9509TIP3    H249943   5.948   2.642  12.583 -2.1018 -0.7615  0.9384
 9510TIP3   OH249944   3.096   5.840  12.389  0.4072 -0.1515 -0.4812
 9510TIP3    H149945   3.112   5.746  12.397  1.8794 -0.0398 -1.6550
 9510TIP3    H249946   3.054   5.850  12.303  0.1249  0.2678 -0.3022
 9511TIP3   OH249947   2.292   1.018  13.713 -0.0133 -0.1166  0.0340
 9511TIP3    H149948   2.272   0.970  13.633  0.5904  0.3840 -0.4136
 9511TIP3    H249949   2.293   1.110  13.688 -3.6912  0.4679  1.3633
 9512TIP3   OH249950   6.487   5.921  11.655  0.0752  0.3368 -0.0674
 9512TIP3    H149951   6.475   5.899  11.748  0.7649 -1.0799 -0.2887
 9512TIP3    H249952   6.568   5.877  11.631  0.9673  2.3233 -0.8598
 9513TIP3   OH249953   3.483   2.159   3.992 -0.0545 -0.0862 -0.2890
 9513TIP3    H149954   3.431   2.179   4.069  0.3696 -1.4506  0.3828
 9513TIP3    H249955   3.485   2.064   3.988  1.2445 -0.0568 -1.0796
 9514TIP3   OH249956   2.747   1.473   1.292  0.7450 -0.0575 -0.4590
 9514TIP3    H149957   2.676   1.411   1.314 -0.1052 -0.1508 -3.1064
 9514TIP3    H249958   2.823   1.417   1.276  0.7999 -0.1483  0.0895
 9515TIP3   OH249959   2.009   5.410   1.625 -0.0310 -0.0888 -0.0781
 9515TIP3    H149960   2.075   5.341   1.616  0.1642 -0.2846  2.1368
 9515TIP3    H249961   2.055   5.490   1.599  0.5958 -0.4321 -0.0588
 9516TIP3   OH249962   1.754   4.004   3.070 -0.9345  0.7242  0.4297
 9516TIP3    H149963   1.660   4.006   3.052 -0.9573 -0.1372  0.3865
 9516TIP3    H249964   1.764   4.056   3.150 -1.1422  2.6336 -0.7437
 9517TIP3   OH249965   4.577   5.863   6.854 -0.3469  0.3007  0.2063
 9517TIP3    H149966   4.567   5.792   6.791 -1.9317 -1.4045  2.2237
 9517TIP3    H249967   4.577   5.943   6.801  1.5632 -1.1195 -2.1542
 9518TIP3   OH249968   0.561   3.642  16.578  0.1534 -0.0942 -0.2689
 9518TIP3    H149969   0.619   3.618  16.506  1.7233  0.9213  0.5899
 9518TIP3    H249970   0.477   3.659  16.537  0.7386 -0.5443 -1.7086
 9519TIP3   OH249971   3.467   6.636  16.087  0.0746  0.1024  0.1250
 9519TIP3    H149972   3.448   6.549  16.051  2.6375 -1.0095  1.2361
 9519TIP3    H249973   3.557   6.654  16.062  1.0087  0.5554  3.3299
 9520TIP3   OH249974   0.861   2.482   6.147  0.1125 -0.4617  0.3779
 9520TIP3    H149975   0.949   2.517   6.163  0.1432 -0.1459 -0.4288
 9520TIP3    H249976   0.859   2.399   6.194  1.5640 -1.4691 -1.2216
 9521TIP3   OH249977   4.989   4.450   2.031  0.3312  0.1831  0.3939
 9521TIP3    H149978   4.978   4.386   1.960  0.2128  2.1644 -1.4789
 9521TIP3    H249979   5.084   4.455   2.044  0.4203  0.4608 -0.3007
 9522TIP3   OH249980   3.928   2.394  11.565 -0.2450  0.0285  0.1259
 9522TIP3    H149981   3.862   2.331  11.535  1.0104 -1.2386 -0.0466
 9522TIP3    H249982   3.952   2.365  11.652  0.3357  0.2803  0.0531
 9523TIP3   OH249983   0.392   2.247  11.305  0.2908  0.3013  0.3750
 9523TIP3    H149984   0.314   2.270  11.355 -0.1883  1.6402 -0.9306
 9523TIP3    H249985   0.366   2.169  11.256 -0.2900  0.8358 -0.1787
 9524TIP3   OH249986   2.039   4.659   3.842 -0.2025 -0.1521  0.0777
 9524TIP3    H149987   1.953   4.701   3.835 -0.6939 -1.1218  0.1162
 9524TIP3    H249988   2.019   4.566   3.859  0.8493 -0.4168 -0.0716
 9525TIP3   OH249989   1.286   6.365  15.415  0.2155 -0.2424 -0.0796
 9525TIP3    H149990   1.287   6.311  15.336  0.4333  1.3916 -1.2453
 9525TIP3    H249991   1.220   6.325  15.471  0.0562 -1.4422 -1.0765
 9526TIP3   OH249992   1.953   3.602   6.564  0.9795 -0.3489  0.0533
 9526TIP3    H149993   1.873   3.580   6.517  2.0998 -0.4573 -1.9178
 9526TIP3    H249994   1.923   3.642   6.646 -1.0663 -1.7024  0.0328
 9527TIP3   OH249995   6.115   6.476   1.395 -0.5682  0.1528 -0.1254
 9527TIP3    H149996   6.103   6.384   1.420  0.3094  0.3619  1.1559
 9527TIP3    H249997   6.107   6.476   1.299 -0.7351 -1.2300 -0.1309
 9528TIP3   OH249998   2.350   2.947  17.205  0.7091  0.1955 -0.6471
 9528TIP3    H149999   2.332   3.025  17.153 -0.0423  0.0571 -0.6059
 9528TIP3    H250000   2.399   2.890  17.147 -0.7771 -0.2783 -1.4804
 9529TIP3   OH250001   0.897   3.714   1.300 -0.0980  0.4130  0.2026
 9529TIP3    H150002   0.912   3.698   1.207  0.0306 -0.4724  0.3661
 9529TIP3    H250003   0.976   3.759   1.330  0.8353 -1.2122  0.3294
 9530TIP3   OH250004   5.222   1.217  14.349 -0.0768 -0.1306 -0.0627
 9530TIP3    H150005   5.254   1.180  14.431 -0.6678  0.7543  0.5949
 9530TIP3    H250006   5.151   1.159  14.322 -0.7436  0.2758  0.7542
 9531TIP3   OH250007   1.413   0.162  15.525 -0.2064 -0.4333 -0.7025
 9531TIP3    H150008   1.346   0.116  15.474 -2.5182 -0.0848  1.7760
 9531TIP3    H250009   1.431   0.104  15.599 -0.9009  1.2445  0.8564
 9532TIP3   OH250010   6.340   4.382  10.872  0.2620  0.0068  0.5162
 9532TIP3    H150011   6.393   4.304  10.887  0.9717  0.0538 -1.4422
 9532TIP3    H250012   6.394   4.454  10.906  0.4303 -0.1735  0.6340
 9533TIP3   OH250013   4.689   2.252  12.494  0.3280 -0.5088 -0.1334
 9533TIP3    H150014   4.678   2.225  12.403  3.3171  2.2836 -1.5406
 9533TIP3    H250015   4.651   2.340  12.498 -1.1657 -1.1579  1.8479
 9534TIP3   OH250016   1.254   3.308   0.821  0.3273  0.1985 -0.2125
 9534TIP3    H150017   1.272   3.370   0.750  1.4156 -0.9111 -0.9291
 9534TIP3    H250018   1.215   3.232   0.777  2.8925 -1.3634  0.0171
 9535TIP3   OH250019   0.448   0.135   5.305 -0.4063 -0.2075 -0.2196
 9535TIP3    H150020   0.393   0.057   5.302 -1.3127  0.4351 -1.7757
 9535TIP3    H250021   0.387   0.208   5.294  0.4180  0.7365  1.2542
 9536TIP3   OH250022   3.208   0.098   6.644 -0.0390 -0.1682  0.2231
 9536TIP3    H150023   3.147   0.115   6.572 -1.9161  0.9995  1.9439
 9536TIP3    H250024   3.248   0.183   6.662  1.7287 -0.8038 -0.4851
 9537TIP3   OH250025   0.572   6.430  14.578 -0.6855 -0.0921  0.1118
 9537TIP3    H150026   0.560   6.517  14.616 -0.1159  0.5181 -1.0745
 9537TIP3    H250027   0.530   6.434  14.493  2.1929  0.1280 -1.4272
 9538TIP3   OH250028   6.188   0.327   0.282 -0.1993  0.1718  0.4598
 9538TIP3    H150029   6.120   0.266   0.312  0.7178  0.1732  2.7281
 9538TIP3    H250030   6.170   0.408   0.329  1.2845  0.1968  1.0411
 9539TIP3   OH250031   4.020   4.060  13.399  0.2927 -0.0594 -0.0545
 9539TIP3    H150032   3.976   4.129  13.447  2.6319  0.9265  0.8302
 9539TIP3    H250033   4.061   4.105  13.325 -1.1023 -1.1405 -1.5542
 9540TIP3   OH250034   0.455   4.111  13.554 -0.2390 -0.2363 -0.0960
 9540TIP3    H150035   0.464   4.034  13.498  0.0329 -1.2923  1.3554
 9540TIP3    H250036   0.540   4.155  13.550 -0.3503 -0.0821 -0.8174
 9541TIP3   OH250037   3.388   1.618  11.039 -0.0372  0.3604 -0.1783
 9541TIP3    H150038   3.312   1.666  11.008 -0.4103  0.2896  0.6054
 9541TIP3    H250039   3.451   1.685  11.066 -0.3810  0.4169  0.4946
 9542TIP3   OH250040   0.848   4.556  11.154  0.7526 -0.6120  0.1813
 9542TIP3    H150041   0.846   4.464  11.126 -0.4974 -0.6755  0.4495
 9542TIP3    H250042   0.893   4.602  11.083 -0.8157 -1.0371 -1.1362
 9543TIP3   OH250043   5.116   1.241  11.814  0.0752  0.4554 -0.1827
 9543TIP3    H150044   5.075   1.327  11.809 -0.6501  0.1181 -0.2479
 9543TIP3    H250045   5.075   1.199  11.890  1.0078  0.4591  0.3346
 9544TIP3   OH250046   3.853   2.292  15.033  0.0595  0.6024  0.0287
 9544TIP3    H150047   3.794   2.251  15.097 -0.0142  0.9682  0.2004
 9544TIP3    H250048   3.813   2.377  15.016 -1.3959 -0.4652 -2.5069
 9545TIP3   OH250049   5.222   3.761  13.229 -0.0831 -0.2086 -0.0141
 9545TIP3    H150050   5.259   3.827  13.170  3.2863  0.1290  2.2057
 9545TIP3    H250051   5.207   3.685  13.173  0.0576  1.0320 -1.8363
 9546TIP3   OH250052   3.908   3.955   0.258  0.3583  0.3895 -1.0112
 9546TIP3    H150053   3.889   4.048   0.272 -0.5981  0.4773 -2.5500
 9546TIP3    H250054   3.822   3.913   0.256  0.3988  0.1533 -4.2821
 9547TIP3   OH250055   5.875   1.040   1.020  0.0474 -0.4563 -0.2387
 9547TIP3    H150056   5.950   1.074   1.069  1.0358 -0.2083 -1.8543
 9547TIP3    H250057   5.802   1.096   1.046  0.1658 -1.2226  2.0069
 9548TIP3   OH250058   4.409   2.534  15.840  0.2723  0.3560 -0.2592
 9548TIP3    H150059   4.385   2.596  15.771  0.4039  1.6038  0.7628
 9548TIP3    H250060   4.332   2.478  15.850 -1.4611  2.8280  1.3854
 9549TIP3   OH250061   3.774   5.767   4.854  0.1681  0.1208 -0.4051
 9549TIP3    H150062   3.705   5.833   4.858  0.0768 -0.0410  1.3463
 9549TIP3    H250063   3.732   5.687   4.884  1.0915  0.0100  0.6428
 9550TIP3   OH250064   0.875   4.290   5.740  0.1354  0.7001  0.4083
 9550TIP3    H150065   0.931   4.252   5.808  0.3039  0.2404  0.0190
 9550TIP3    H250066   0.935   4.344   5.688  0.1056  0.6554  0.3280
 9551TIP3   OH250067   2.712   6.291  14.724 -0.2557 -0.5692 -0.3820
 9551TIP3    H150068   2.636   6.236  14.705 -1.2233  0.0546  1.5520
 9551TIP3    H250069   2.770   6.234  14.775 -0.2997 -0.4322 -0.1812
 9552TIP3   OH250070   1.801   4.149   1.737 -0.0247 -0.0947 -0.6273
 9552TIP3    H150071   1.778   4.070   1.786  2.0260 -0.1184  0.4029
 9552TIP3    H250072   1.793   4.123   1.645  2.1653 -2.0700 -0.3455
 9553TIP3   OH250073   4.854   6.679  14.404  0.2415  0.1965 -0.0331
 9553TIP3    H150074   4.861   6.593  14.363 -1.4432  0.0518 -0.0493
 9553TIP3    H250075   4.783   6.670  14.467  1.0141  1.1820  1.0191
 9554TIP3   OH250076   1.865   0.026  13.002  0.1470  0.8506  0.4906
 9554TIP3    H150077   1.784  -0.010  12.965  0.8403 -0.0776 -0.1768
 9554TIP3    H250078   1.835   0.087  13.069 -1.1018  0.1739  0.5854
 9555TIP3   OH250079   1.487   5.101   2.445  0.2860  0.1841 -0.1659
 9555TIP3    H150080   1.431   5.030   2.476 -0.4373  1.1264  0.7666
 9555TIP3    H250081   1.476   5.171   2.510  1.6926  0.8178 -0.5564
 9556TIP3   OH250082   6.292   2.927  11.260 -0.6851  0.1908 -0.3239
 9556TIP3    H150083   6.274   2.833  11.259  0.1228  0.0311 -0.2787
 9556TIP3    H250084   6.211   2.967  11.226 -1.2220 -0.4800  0.1284
 9557TIP3   OH250085   1.148   5.420   5.063  1.0280  0.3367 -0.1144
 9557TIP3    H150086   1.084   5.475   5.109  1.6542  1.0241 -0.0592
 9557TIP3    H250087   1.201   5.481   5.013  2.6477 -0.0491  1.0460
 9558TIP3   OH250088   2.425   3.939   3.700 -0.6569 -0.5629  0.3335
 9558TIP3    H150089   2.371   3.916   3.775 -1.5382  0.7018  0.1203
 9558TIP3    H250090   2.485   4.007   3.733 -2.2336  1.3233 -0.4515
 9559TIP3   OH250091   4.417   3.474   6.611  0.3741 -0.3889 -0.3103
 9559TIP3    H150092   4.501   3.510   6.581  0.7576 -0.8012  0.2576
 9559TIP3    H250093   4.364   3.551   6.631  0.7961 -0.1301 -0.1798
 9560TIP3   OH250094   3.495   5.117  10.774  0.5406  0.4373  0.5447
 9560TIP3    H150095   3.422   5.159  10.821 -0.2447  0.3594 -0.5583
 9560TIP3    H250096   3.566   5.180  10.781  0.3288  0.5980  1.4914
 9561TIP3   OH250097   0.885   4.749  12.228 -0.0460  0.0032  0.1759
 9561TIP3    H150098   0.803   4.706  12.252 -0.0923  0.8130  1.5767
 9561TIP3    H250099   0.893   4.733  12.134 -1.6944 -0.2791  0.0432
 9562TIP3   OH250100   4.570   4.692  16.379 -0.3175 -0.3754  0.4519
 9562TIP3    H150101   4.652   4.739  16.393 -1.4993  1.8774  0.1849
 9562TIP3    H250102   4.565   4.681  16.284 -0.5926 -0.0232  0.4278
 9563TIP3   OH250103   6.404   1.446   5.116 -0.4545  0.1610 -0.2369
 9563TIP3    H150104   6.468   1.376   5.130 -0.7648  0.2833  2.2848
 9563TIP3    H250105   6.320   1.401   5.106 -0.7550  0.1093  2.0357
 9564TIP3   OH250106   0.421   3.958  16.138 -0.6935  0.3897  0.5920
 9564TIP3    H150107   0.477   4.034  16.150 -0.7206  0.1621  2.3154
 9564TIP3    H250108   0.340   3.994  16.101 -0.7267  1.2245  1.4422
 9565TIP3   OH250109   6.546   4.171  15.342 -0.3485 -0.2952 -0.4960
 9565TIP3    H150110   6.625   4.118  15.352 -0.4106 -0.5873 -1.4425
 9565TIP3    H250111   6.576   4.252  15.301 -0.4772 -0.2181 -0.4405
 9566TIP3   OH250112   2.450   2.451   5.847 -0.0845  0.2410 -0.2093
 9566TIP3    H150113   2.502   2.442   5.926  1.9716  0.5301 -1.4628
 9566TIP3    H250114   2.420   2.362   5.828 -0.6810  0.1811  0.8977
 9567TIP3   OH250115   5.828   5.110  15.417 -0.0057 -0.0529  0.4208
 9567TIP3    H150116   5.797   5.049  15.483  2.3941  1.0849  2.7629
 9567TIP3    H250117   5.831   5.194  15.461  3.1944  0.4825 -0.5649
 9568TIP3   OH250118   6.097   0.308  12.483 -0.5799  0.4972  0.3311
 9568TIP3    H150119   6.025   0.245  12.477 -1.1842  1.2957 -1.0077
 9568TIP3    H250120   6.162   0.263  12.538 -0.9743 -1.3160 -0.6039
 9569TIP3   OH250121   1.577   1.954   0.198 -0.1844  0.1037 -0.0633
 9569TIP3    H150122   1.622   1.873   0.223  0.3429 -0.1071 -1.6178
 9569TIP3    H250123   1.607   2.019   0.262  0.4565 -0.5949  0.3587
 9570TIP3   OH250124   3.065   3.697   2.939  0.1727 -0.3762 -0.2344
 9570TIP3    H150125   3.143   3.661   2.898  1.6735  1.0188  1.2390
 9570TIP3    H250126   3.056   3.649   3.021  0.3752  0.4706  0.2943
 9571TIP3   OH250127   0.796   2.491  11.485  0.1680  0.3393 -0.1341
 9571TIP3    H150128   0.757   2.556  11.544  2.8269 -0.6777  3.0581
 9571TIP3    H250129   0.760   2.407  11.514  1.6240 -0.1921  0.2492
 9572TIP3   OH250130   4.027   5.600  14.416 -0.5690 -0.0594  0.4883
 9572TIP3    H150131   4.028   5.506  14.395 -1.0551  0.1109 -0.3470
 9572TIP3    H250132   3.952   5.634  14.368  0.9962  1.1986 -1.1907
 9573TIP3   OH250133   3.448   1.920   1.839  0.3819 -0.5429  0.3299
 9573TIP3    H150134   3.378   1.893   1.779  1.2669 -1.4356 -0.3420
 9573TIP3    H250135   3.529   1.902   1.790  1.0781  1.3837  0.6865
 9574TIP3   OH250136   2.620   3.623   4.355 -0.7257 -0.8346  0.2894
 9574TIP3    H150137   2.534   3.650   4.322 -0.3756  0.9168  0.7090
 9574TIP3    H250138   2.656   3.569   4.285 -1.4147 -0.0637 -0.6916
 9575TIP3   OH250139   3.626   4.888  16.674  0.2264 -0.9454 -0.5733
 9575TIP3    H150140   3.567   4.911  16.602 -0.0687 -0.3797 -0.1594
 9575TIP3    H250141   3.568   4.878  16.749  0.6360 -0.6359 -0.2166
 9576TIP3   OH250142   5.352   1.123  14.998 -0.8280 -0.2781  0.4059
 9576TIP3    H150143   5.317   1.048  15.046 -0.4508  0.8408  2.5908
 9576TIP3    H250144   5.445   1.123  15.017 -0.7172  0.3619 -0.1053
 9577TIP3   OH250145   3.734   1.427   3.918 -0.5525 -0.4042 -0.2575
 9577TIP3    H150146   3.728   1.339   3.880  1.6543 -1.4473  1.6174
 9577TIP3    H250147   3.723   1.413   4.012 -0.5636  1.3880  0.0303
 9578TIP3   OH250148   0.571   1.460   4.433  0.3751 -0.3989  0.4875
 9578TIP3    H150149   0.594   1.520   4.504  3.0175  0.3294 -0.8479
 9578TIP3    H250150   0.620   1.380   4.453  1.8408  0.1044 -0.8492
 9579TIP3   OH250151   2.074   6.754  12.106  0.2362  0.2202 -0.1441
 9579TIP3    H150152   2.073   6.658  12.107 -0.9458  0.2202  0.2061
 9579TIP3    H250153   2.039   6.779  12.191 -0.4639  0.9498 -0.6252
 9580TIP3   OH250154   1.695   0.115   2.906  0.0579  0.2559  0.5526
 9580TIP3    H150155   1.733   0.114   2.994 -0.4963 -0.8837  0.8026
 9580TIP3    H250156   1.601   0.112   2.921 -0.0462  0.2550 -0.0832
 9581TIP3   OH250157   2.038   5.681   3.437 -0.0112 -0.1364 -0.0329
 9581TIP3    H150158   2.103   5.615   3.412 -0.3010 -0.2536 -0.4859
 9581TIP3    H250159   1.974   5.634   3.490  0.4555  0.0536  0.7078
 9582TIP3   OH250160   5.473   4.279   3.523  0.5853  0.4163  0.2980
 9582TIP3    H150161   5.469   4.193   3.482 -1.0759 -0.0810  1.3799
 9582TIP3    H250162   5.566   4.300   3.526  1.0261 -1.3200 -0.0120
 9583TIP3   OH250163   4.131   3.579   1.586  0.2940 -0.5063  0.1141
 9583TIP3    H150164   4.098   3.501   1.631 -0.1715  0.0755  0.8227
 9583TIP3    H250165   4.167   3.634   1.657  0.9418 -0.2342 -0.4134
 9584TIP3   OH250166   2.072   5.583   2.849  0.1319  0.1312  0.4622
 9584TIP3    H150167   2.010   5.569   2.777  0.1291 -1.3607  0.7244
 9584TIP3    H250168   2.084   5.678   2.852 -1.4858  0.3954 -0.1492
 9585TIP3   OH250169   3.863   6.179   4.868  0.1434  0.2209 -0.6459
 9585TIP3    H150170   3.950   6.167   4.830 -0.5826  0.5553 -2.5418
 9585TIP3    H250171   3.814   6.225   4.800 -1.4032  0.4378  0.5593
 9586TIP3   OH250172   1.116   3.748  12.937 -0.2200 -0.2329 -0.3888
 9586TIP3    H150173   1.071   3.813  12.992  0.7574 -1.1137  1.5657
 9586TIP3    H250174   1.206   3.782  12.930  0.3502 -1.4109  0.8122
 9587TIP3   OH250175   3.580   1.365  11.808 -0.0745  0.0385  0.2057
 9587TIP3    H150176   3.634   1.435  11.844  0.4636 -0.2109 -0.0971
 9587TIP3    H250177   3.523   1.339  11.880  0.0372  0.4777  0.4541
 9588TIP3   OH250178   2.065   6.673  11.675  0.1996  0.3179 -0.0003
 9588TIP3    H150179   2.031   6.586  11.694 -2.0849  1.3325  0.9785
 9588TIP3    H250180   2.036   6.692  11.586 -0.0088  0.3824  0.0810
 9589TIP3   OH250181   3.840   1.571  15.399  0.5591  0.0753  0.0216
 9589TIP3    H150182   3.909   1.525  15.446 -0.4517 -0.6361  0.8752
 9589TIP3    H250183   3.886   1.631  15.340  1.9180 -1.7978 -0.9102
 9590TIP3   OH250184   3.943   5.013   4.435 -0.3099  0.1276 -0.3465
 9590TIP3    H150185   3.942   5.070   4.512  1.2189  0.4057 -0.5059
 9590TIP3    H250186   3.974   5.070   4.364 -0.8095 -0.3669 -0.9754
 9591TIP3   OH250187   1.580   1.282  13.812 -0.0391 -0.3962 -1.1899
 9591TIP3    H150188   1.669   1.308  13.792  0.3420  0.5244  1.2702
 9591TIP3    H250189   1.589   1.219  13.884 -1.3229 -1.2934 -1.7733
 9592TIP3   OH250190   0.321   0.586  15.795 -0.0209  0.1039 -0.1719
 9592TIP3    H150191   0.344   0.581  15.702 -1.4142  1.6831 -0.6358
 9592TIP3    H250192   0.229   0.562  15.798 -1.1611  3.9458  0.1779
 9593TIP3   OH250193   6.243   0.665   3.528  0.1034  0.4777 -0.1438
 9593TIP3    H150194   6.285   0.617   3.456  0.0674 -0.6729  0.5891
 9593TIP3    H250195   6.180   0.723   3.484 -0.3077 -0.5975 -1.0167
 9594TIP3   OH250196   0.772   6.468  14.386  0.4351  0.7490  0.4987
 9594TIP3    H150197   0.705   6.424  14.438 -0.9196  1.6402 -0.4325
 9594TIP3    H250198   0.781   6.554  14.428  0.0661  1.0991 -0.1341
 9595TIP3   OH250199   0.409   2.024   3.268  0.2290  0.1841 -0.6014
 9595TIP3    H150200   0.403   2.079   3.346  2.1574  0.2119 -0.4129
 9595TIP3    H250201   0.499   2.035   3.239 -0.0488 -0.9847 -1.9878
 9596TIP3   OH250202   0.143   2.550  10.114 -0.0652 -0.3695  0.1150
 9596TIP3    H150203   0.052   2.566  10.139  0.0388 -0.3654  0.4876
 9596TIP3    H250204   0.193   2.565  10.193  0.2192 -0.7754  0.0175
 9597TIP3   OH250205   6.723   3.505  16.212  0.1899  0.4064 -0.3998
 9597TIP3    H150206   6.755   3.486  16.300 -2.1311  1.3751  0.7614
 9597TIP3    H250207   6.775   3.580  16.182  2.1681 -0.9869 -0.6372
 9598TIP3   OH250208   3.699   0.058  16.486 -0.3978  0.0700 -0.3178
 9598TIP3    H150209   3.787   0.027  16.465 -0.1842 -0.1010  0.7800
 9598TIP3    H250210   3.672   0.005  16.562 -0.2269  2.2077  1.3123
 9599TIP3   OH250211   5.328   2.768   5.322  0.0050 -0.2148  0.0339
 9599TIP3    H150212   5.267   2.805   5.386  1.0988  0.9179  0.4512
 9599TIP3    H250213   5.334   2.676   5.346 -0.8422 -0.1554  0.5463
 9600TIP3   OH250214   2.738   3.753  12.412  0.1557 -0.3331  0.4357
 9600TIP3    H150215   2.701   3.819  12.353  0.7173 -1.0203 -0.7294
 9600TIP3    H250216   2.773   3.803  12.486 -1.6205  0.4526  0.7809
 9601TIP3   OH250217   6.465   0.433   0.396 -0.2093  0.1473 -0.0785
 9601TIP3    H150218   6.409   0.366   0.359 -2.9214  1.1298  1.9408
 9601TIP3    H250219   6.549   0.389   0.410 -1.2080 -2.1506 -0.8649
 9602TIP3   OH250220   1.363   1.998   1.900 -0.1403 -0.1626  0.6861
 9602TIP3    H150221   1.296   2.059   1.931 -0.7088  0.8157 -2.1395
 9602TIP3    H250222   1.410   2.047   1.832  1.6924 -1.7581  0.7043
 9603TIP3   OH250223   2.575   3.693  14.473 -0.2143  0.3933 -0.2776
 9603TIP3    H150224   2.535   3.718  14.556 -0.5859 -0.7500 -0.1012
 9603TIP3    H250225   2.555   3.767  14.414 -0.4631  0.9366  0.4708
 9604TIP3   OH250226   5.719   3.579  10.448  0.2621  0.4469  0.0913
 9604TIP3    H150227   5.685   3.539  10.368 -1.5831 -1.1821  1.5670
 9604TIP3    H250228   5.780   3.515  10.483  0.6506  0.9058  0.2634
 9605TIP3   OH250229   3.547   3.957   2.807 -0.2324  0.0242  0.3883
 9605TIP3    H150230   3.619   4.019   2.805  0.6427 -0.9521  0.6614
 9605TIP3    H250231   3.586   3.876   2.841 -0.9974 -1.0903 -1.2504
 9606TIP3   OH250232   0.999   2.140  11.577 -0.3210 -0.1672  0.1342
 9606TIP3    H150233   1.071   2.171  11.522 -0.0926 -2.4357 -0.9475
 9606TIP3    H250234   1.038   2.129  11.664 -0.3000  1.9202  0.4582
 9607TIP3   OH250235   1.296   5.614   1.389  0.3150  0.0593 -0.3753
 9607TIP3    H150236   1.296   5.636   1.482 -1.7490 -1.5000  0.0389
 9607TIP3    H250237   1.208   5.636   1.359 -0.0221 -2.2641 -1.2245
 9608TIP3   OH250238   6.322   2.978   2.086  0.4855 -0.2375  0.5935
 9608TIP3    H150239   6.381   2.942   2.021  1.5751  0.7324  1.0136
 9608TIP3    H250240   6.353   2.944   2.170  0.0453 -0.2397  0.7615
 9609TIP3   OH250241   1.636   1.385   1.430  0.1279 -0.6282  0.1164
 9609TIP3    H150242   1.644   1.372   1.525  1.7564 -0.5736  0.0069
 9609TIP3    H250243   1.566   1.326   1.404 -0.3095 -0.6899  1.3426
 9610TIP3   OH250244   0.463   1.328   6.040 -0.0381 -1.2939 -1.0649
 9610TIP3    H150245   0.494   1.241   6.067  1.5487 -0.4705 -0.1090
 9610TIP3    H250246   0.386   1.344   6.094 -0.3506 -2.0790 -1.2504
 9611TIP3   OH250247   1.542   4.885  15.748  0.0179 -0.9158 -0.1877
 9611TIP3    H150248   1.522   4.958  15.806 -0.2595  0.2029 -1.6240
 9611TIP3    H250249   1.568   4.814  15.806  1.6157  0.7247  1.2065
 9612TIP3   OH250250   5.147   4.218  16.727 -0.7471 -0.4135  0.0811
 9612TIP3    H150251   5.185   4.304  16.710 -0.7290 -0.5939 -0.8706
 9612TIP3    H250252   5.095   4.229  16.806  1.4797 -0.2073  1.6236
 9613TIP3   OH250253   0.750   2.652  14.504  0.2211  0.1967 -0.4183
 9613TIP3    H150254   0.710   2.613  14.426  1.2535  0.0779 -0.9184
 9613TIP3    H250255   0.838   2.678  14.474  1.0504 -0.8619  0.9769
 9614TIP3   OH250256   2.980   4.949  12.749  0.3927 -0.1986 -0.6877
 9614TIP3    H150257   3.032   5.027  12.728 -0.6015  0.5592 -0.3997
 9614TIP3    H250258   3.041   4.891  12.794  1.0372  0.6026 -0.5002
 9615TIP3   OH250259   5.657   1.999  15.980 -0.2957 -0.2178 -0.0020
 9615TIP3    H150260   5.600   1.923  15.971  0.5062 -0.6234 -2.2521
 9615TIP3    H250261   5.602   2.065  16.022 -0.8785 -2.1127  2.4451
 9616TIP3   OH250262   0.854   5.707  10.509  0.4214  0.2424 -0.1081
 9616TIP3    H150263   0.923   5.663  10.559 -1.1475 -1.6024  0.5572
 9616TIP3    H250264   0.839   5.788  10.557 -0.0908 -0.8516  1.6762
 9617TIP3   OH250265   4.583   3.556   0.502  0.6679 -0.0194  0.0196
 9617TIP3    H150266   4.506   3.550   0.558  0.7500 -1.2455  0.0335
 9617TIP3    H250267   4.552   3.600   0.423  0.7508  2.5318  1.3112
 9618TIP3   OH250268   1.996   2.659   0.429 -0.5253  0.6988 -0.0737
 9618TIP3    H150269   1.985   2.694   0.518 -3.0118 -1.1350  0.4580
 9618TIP3    H250270   2.053   2.722   0.385  2.1128  0.8530  3.2242
 9619TIP3   OH250271   5.072   5.594  11.123  0.1439 -0.3372  0.6196
 9619TIP3    H150272   5.071   5.690  11.116 -1.6982 -0.3280  0.5920
 9619TIP3    H250273   5.095   5.577  11.214  3.0942  0.0147  0.0582
 9620TIP3   OH250274   0.169   4.037  12.069 -0.6060 -0.0121 -0.0577
 9620TIP3    H150275   0.193   4.001  12.154 -3.1106 -1.0586  0.2963
 9620TIP3    H250276   0.107   3.973  12.033 -0.7423  1.1383 -2.0132
 9621TIP3   OH250277   6.012   6.208  11.388  0.3850 -0.1266  0.0344
 9621TIP3    H150278   5.979   6.126  11.351 -0.5640 -0.2923  1.1995
 9621TIP3    H250279   5.950   6.275  11.358  0.0318 -0.1491  0.6959
 9622TIP3   OH250280   2.911   2.685   3.007  0.1414 -0.1382  0.0176
 9622TIP3    H150281   2.834   2.741   3.001 -1.1094 -1.6539  1.1171
 9622TIP3    H250282   2.900   2.638   3.090  1.4659 -1.5174 -0.5448
 9623TIP3   OH250283   6.084   3.621   5.767  0.0587 -0.2678  0.6510
 9623TIP3    H150284   6.098   3.712   5.739  2.3074  0.2810  3.0912
 9623TIP3    H250285   6.095   3.623   5.862 -2.9073 -2.6518  1.2039
 9624TIP3   OH250286   0.531   2.931  16.419  0.1688  0.1657 -0.4328
 9624TIP3    H150287   0.557   3.023  16.420  0.8306 -0.0067 -1.1570
 9624TIP3    H250288   0.608   2.885  16.452 -0.6391 -0.0316  1.2759
 9625TIP3   OH250289   0.929   3.690  15.448 -0.1569  0.3605  0.1646
 9625TIP3    H150290   0.922   3.615  15.506 -0.0171  1.4358  1.6413
 9625TIP3    H250291   0.843   3.697  15.407 -0.1010 -0.7184 -0.1716
 9626TIP3   OH250292   3.437   3.847  13.209  0.2123  0.1131  0.2001
 9626TIP3    H150293   3.466   3.860  13.299  0.8544 -0.4668  0.0821
 9626TIP3    H250294   3.468   3.760  13.185 -2.2933 -0.8970  0.3128
 9627TIP3   OH250295   3.548   5.164   4.975 -0.0483  0.6114 -0.5178
 9627TIP3    H150296   3.459   5.155   4.941  0.3654 -5.3347 -1.0521
 9627TIP3    H250297   3.536   5.176   5.070 -1.5587 -1.4149 -0.3873
 9628TIP3   OH250298   5.526   5.276  17.057  0.2347 -0.6495 -0.2671
 9628TIP3    H150299   5.432   5.291  17.050  0.2870 -0.9629 -2.1713
 9628TIP3    H250300   5.536   5.227  17.139 -1.2795 -0.7753 -0.1258
 9629TIP3   OH250301   2.911   0.458  13.973 -0.3591 -0.7859  0.5627
 9629TIP3    H150302   2.852   0.416  14.036 -0.0374 -2.1216  0.0213
 9629TIP3    H250303   2.980   0.498  14.027 -0.3204 -1.5435  1.0876
 9630TIP3   OH250304   2.383   1.272   1.943 -0.5130 -0.0716 -0.0066
 9630TIP3    H150305   2.329   1.342   1.979  0.2634  0.6172 -0.1468
 9630TIP3    H250306   2.328   1.231   1.875 -1.0434  0.2647  0.2187
 9631TIP3   OH250307   0.788   3.046  13.998 -0.9890  0.8382  0.8623
 9631TIP3    H150308   0.791   3.140  13.979 -1.3474  0.4871 -1.1317
 9631TIP3    H250309   0.701   3.032  14.035 -1.1399  1.2026  0.6535
 9632TIP3   OH250310   3.680   4.100  14.166 -0.0697 -0.3538  0.1004
 9632TIP3    H150311   3.612   4.153  14.207  1.1400  1.3482  0.0235
 9632TIP3    H250312   3.714   4.047  14.238  1.4145  1.9426  1.2337
 9633TIP3   OH250313   4.136   2.584   2.041  0.5790  0.5489  0.1459
 9633TIP3    H150314   4.106   2.617   2.125 -1.4348 -0.1048 -0.2665
 9633TIP3    H250315   4.122   2.490   2.045  2.9916  0.1186  0.0211
 9634TIP3   OH250316   0.632   2.014  16.703  0.5399  0.0456  0.5772
 9634TIP3    H150317   0.646   1.920  16.715  0.1558 -0.2465 -1.0923
 9634TIP3    H250318   0.701   2.055  16.755  1.8857 -1.1958 -0.1594
 9635TIP3   OH250319   3.647   5.438  15.654  0.1707 -0.9567  0.7134
 9635TIP3    H150320   3.647   5.484  15.570 -2.3541 -0.1778  1.0696
 9635TIP3    H250321   3.740   5.430  15.677  0.8139  0.9332 -0.9942
 9636TIP3   OH250322   6.281   5.806  12.934  0.0347  0.2210 -0.5684
 9636TIP3    H150323   6.361   5.813  12.986  0.2399  0.5290 -0.9245
 9636TIP3    H250324   6.284   5.881  12.875 -0.7709  0.5131 -0.2415
 9637TIP3   OH250325   2.912   2.497   3.866  0.0546 -0.4026  0.1425
 9637TIP3    H150326   2.923   2.494   3.961 -2.2300  0.0627  0.4913
 9637TIP3    H250327   3.000   2.508   3.832  0.7752  1.4703  2.3275
 9638TIP3   OH250328   5.105   0.159   0.422  0.0052  0.0943  0.3912
 9638TIP3    H150329   5.199   0.173   0.413  0.0578 -0.8395 -0.6612
 9638TIP3    H250330   5.066   0.230   0.370  0.0570  1.4668  2.1358
 9639TIP3   OH250331   0.550   4.375  14.068  0.5395 -0.1326 -0.5913
 9639TIP3    H150332   0.577   4.294  14.024  0.8692 -0.0777 -0.4979
 9639TIP3    H250333   0.455   4.367  14.077  0.6974 -1.0947  0.5543
 9640TIP3   OH250334   2.512   1.231  11.511 -0.7611  0.5947 -0.4238
 9640TIP3    H150335   2.452   1.274  11.450  0.7528  0.6577 -1.9354
 9640TIP3    H250336   2.529   1.146  11.472 -0.1704  0.4212  0.1984
 9641TIP3   OH250337   0.494   0.786  11.308 -0.3866  0.1093 -0.5597
 9641TIP3    H150338   0.576   0.824  11.276 -1.0269  0.2843 -2.0839
 9641TIP3    H250339   0.496   0.695  11.277 -1.4612  0.5504 -2.0540
 9642TIP3   OH250340   6.379   4.583  14.834  0.4428 -0.1677  0.6093
 9642TIP3    H150341   6.408   4.575  14.925  2.2410 -1.1073  0.0127
 9642TIP3    H250342   6.443   4.643  14.795 -0.1722  0.0389 -0.0887
 9643TIP3   OH250343   0.110   2.749   4.517  0.4404 -0.2573 -0.3641
 9643TIP3    H150344   0.149   2.771   4.602 -0.1218  0.3838 -0.2579
 9643TIP3    H250345   0.172   2.785   4.453 -0.0767  0.9986 -0.1947
 9644TIP3   OH250346   5.242   0.856   4.851  0.0123 -0.8080 -0.4071
 9644TIP3    H150347   5.233   0.927   4.787 -0.7173 -1.7605 -1.4042
 9644TIP3    H250348   5.309   0.887   4.912  0.2537  0.4066 -1.2486
 9645TIP3   OH250349   4.920   5.676   4.413  0.6783  0.1298 -0.0219
 9645TIP3    H150350   5.002   5.630   4.433  0.9560  1.3605  1.9996
 9645TIP3    H250351   4.851   5.614   4.436  1.0162 -0.6172 -0.9555
 9646TIP3   OH250352   4.242   4.379  15.832  0.0929  0.1664  0.2103
 9646TIP3    H150353   4.332   4.389  15.799 -0.0014  1.7100  0.3134
 9646TIP3    H250354   4.196   4.331  15.763  0.9689 -0.5519  0.1089
 9647TIP3   OH250355   2.308   5.480  12.873 -0.3326  0.1045  0.2277
 9647TIP3    H150356   2.228   5.500  12.921 -0.5302 -1.2834  0.5151
 9647TIP3    H250357   2.287   5.401  12.822  0.2504  0.8357 -1.2263
 9648TIP3   OH250358   2.379   4.223   2.154 -0.3460  0.2945 -0.3686
 9648TIP3    H150359   2.464   4.267   2.160 -0.9870  1.6092 -0.6432
 9648TIP3    H250360   2.378   4.164   2.229  0.3439  1.1110  0.3131
 9649TIP3   OH250361   0.062   5.080   0.291  0.0307 -0.0641 -0.1687
 9649TIP3    H150362   0.039   5.121   0.375 -0.7058  0.3603 -0.5568
 9649TIP3    H250363   0.025   5.140   0.226 -1.7967 -1.7191 -0.7634
 9650TIP3   OH250364   5.506   0.797   3.424 -0.3012 -0.1098  0.0019
 9650TIP3    H150365   5.446   0.859   3.466  0.3502 -0.1271  0.9910
 9650TIP3    H250366   5.591   0.815   3.465  0.0585 -1.1199 -0.2781
 9651TIP3   OH250367   4.444   3.889  16.018 -0.3800  0.4776  0.4487
 9651TIP3    H150368   4.430   3.868  16.111  0.3893 -1.3501  0.2013
 9651TIP3    H250369   4.385   3.962  16.001 -0.1581  1.2192  2.5043
 9652TIP3   OH250370   2.182   1.672   5.302  0.3971 -0.1779  0.3629
 9652TIP3    H150371   2.253   1.619   5.339  0.4706 -0.5569 -0.2927
 9652TIP3    H250372   2.226   1.751   5.270  0.5349 -0.4255 -0.0692
 9653TIP3   OH250373   2.045   2.432  13.052  0.6129 -0.5434 -0.2034
 9653TIP3    H150374   2.080   2.383  13.126  0.1503 -0.8835 -0.2041
 9653TIP3    H250375   2.087   2.394  12.975  0.3715 -0.8330 -0.1919
 9654TIP3   OH250376   1.633   2.898   5.251  0.6695  0.0956 -0.1452
 9654TIP3    H150377   1.649   2.806   5.231  0.8505  0.3672 -1.3063
 9654TIP3    H250378   1.679   2.947   5.183 -0.5131  1.0127 -0.3400
 9655TIP3   OH250379   4.647   6.568  14.553 -0.0982 -0.0550 -0.4925
 9655TIP3    H150380   4.597   6.492  14.523  0.1074  0.6184 -2.7356
 9655TIP3    H250381   4.667   6.549  14.645 -1.1717 -2.0890 -0.6228
 9656TIP3   OH250382   5.117   1.627  13.027  0.2995  0.1285  0.2703
 9656TIP3    H150383   5.044   1.581  13.067  0.6332 -0.4422  0.2365
 9656TIP3    H250384   5.181   1.636  13.098  0.4312  0.1148  0.1539
 9657TIP3   OH250385   6.313   0.180   1.526 -0.3138  0.0899  0.3362
 9657TIP3    H150386   6.408   0.170   1.518 -0.1554 -0.4532  2.3809
 9657TIP3    H250387   6.301   0.266   1.566 -0.7648  0.5805 -0.8096
 9658TIP3   OH250388   4.280   3.114   6.091 -0.0419  0.4567 -0.2347
 9658TIP3    H150389   4.243   3.044   6.144  1.6104 -0.0360  0.3389
 9658TIP3    H250390   4.211   3.180   6.086 -0.8079 -0.1925  1.1712
 9659TIP3   OH250391   1.069   5.233  11.700 -0.0625  0.0867  0.5679
 9659TIP3    H150392   1.109   5.223  11.787 -2.0389  0.2810  1.5459
 9659TIP3    H250393   0.986   5.185  11.706  0.7837 -1.9499 -2.0072
 9660TIP3   OH250394   3.739   0.540  12.466 -0.4071 -1.0078 -0.1773
 9660TIP3    H150395   3.653   0.550  12.507  0.1740  1.3228  0.6765
 9660TIP3    H250396   3.769   0.453  12.492 -1.9730 -1.3483  0.5858
 9661TIP3   OH250397   3.457   4.807   2.858  0.1257 -0.3218  0.0174
 9661TIP3    H150398   3.385   4.796   2.920  0.1265 -0.9091 -0.0786
 9661TIP3    H250399   3.528   4.754   2.895  0.4725  0.1622  0.0523
 9662TIP3   OH250400   1.473   4.463   6.897  0.5916  0.2318 -1.0534
 9662TIP3    H150401   1.496   4.522   6.969 -1.2799  2.2289 -1.9536
 9662TIP3    H250402   1.378   4.470   6.890  0.6696 -0.1569 -3.4732
 9663TIP3   OH250403   3.955   1.561  12.733  0.4926  0.5680 -0.0904
 9663TIP3    H150404   4.015   1.558  12.807 -1.1844 -0.1801  1.3034
 9663TIP3    H250405   3.949   1.654  12.711  2.7707  0.6038 -0.8615
 9664TIP3   OH250406   0.487   2.386   2.397  0.6680  0.5575 -0.3494
 9664TIP3    H150407   0.428   2.452   2.434 -0.0449  0.4226 -1.2152
 9664TIP3    H250408   0.565   2.434   2.373  0.0856  1.1264 -1.1342
 9665TIP3   OH250409   1.163   5.598   4.823  0.4504 -1.0296 -0.4197
 9665TIP3    H150410   1.176   5.616   4.730  0.3879 -0.3654 -0.3012
 9665TIP3    H250411   1.173   5.503   4.831  0.1524 -1.1251 -1.1541
 9666TIP3   OH250412   6.444   4.852   2.464  0.6988 -0.2751 -0.1271
 9666TIP3    H150413   6.361   4.888   2.496  1.1622 -0.2924  1.1851
 9666TIP3    H250414   6.459   4.776   2.520  0.8860 -1.1482 -1.3359
 9667TIP3   OH250415   3.338   0.454  13.091  0.7665 -0.0785  0.6354
 9667TIP3    H150416   3.325   0.384  13.026  2.2192 -0.8087  1.0941
 9667TIP3    H250417   3.362   0.531  13.040  0.2782 -0.2031  0.2054
 9668TIP3   OH250418   3.057   3.494  13.071 -0.0626  0.5452  0.2634
 9668TIP3    H150419   3.108   3.556  13.019 -1.5042  0.7512 -0.9800
 9668TIP3    H250420   2.966   3.511  13.046 -0.7562  0.0590  2.2488
 9669TIP3   OH250421   5.898   2.212   4.712  0.3688  0.7444  0.1965
 9669TIP3    H150422   5.901   2.267   4.790 -2.3813 -0.0151  0.9621
 9669TIP3    H250423   5.875   2.272   4.641 -3.3489  0.6901  1.1492
 9670TIP3   OH250424   2.412   4.016   4.798 -0.5631 -0.5584 -0.5199
 9670TIP3    H150425   2.447   4.005   4.887  0.5837  1.6405 -0.6408
 9670TIP3    H250426   2.454   3.946   4.748  2.0344  0.5992 -0.1427
 9671TIP3   OH250427   0.015   5.501   2.231 -0.3129  0.0423  0.2310
 9671TIP3    H150428   0.059   5.584   2.250  1.4707 -0.5981 -0.8501
 9671TIP3    H250429  -0.028   5.477   2.313  0.8969  0.9936  1.1706
 9672TIP3   OH250430   2.793   3.689   5.920  0.1850  0.8046  0.0700
 9672TIP3    H150431   2.821   3.775   5.952  0.5578  1.1574 -1.1411
 9672TIP3    H250432   2.859   3.665   5.855 -0.1588 -0.2033  0.0687
 9673TIP3   OH250433   4.975   0.447  16.032 -0.5392 -0.8954  0.2319
 9673TIP3    H150434   4.881   0.435  16.029 -0.4943 -1.1598 -0.1707
 9673TIP3    H250435   4.989   0.509  16.103 -1.0768 -0.2772 -0.1872
 9674TIP3   OH250436   2.174   4.604  15.781  0.2635 -0.3338  0.1859
 9674TIP3    H150437   2.186   4.699  15.781  0.9909 -0.4199  0.1769
 9674TIP3    H250438   2.258   4.569  15.813  0.2462 -0.9969 -0.4582
 9675TIP3   OH250439   6.377   6.602  12.211 -0.1266  0.0230 -0.1844
 9675TIP3    H150440   6.316   6.549  12.160  0.2726 -0.5961 -0.0227
 9675TIP3    H250441   6.407   6.669  12.150  0.4353 -0.7762 -0.7979
 9676TIP3   OH250442   5.759   3.493  10.975  0.4506  0.1217 -0.4001
 9676TIP3    H150443   5.757   3.416  10.917  1.3163 -0.3529  0.1880
 9676TIP3    H250444   5.679   3.541  10.952 -0.9604 -1.7545  0.3253
 9677TIP3   OH250445   2.035   1.120   2.860 -0.1595  0.0509 -0.1220
 9677TIP3    H150446   2.001   1.031   2.872 -0.8647  0.3545  0.1895
 9677TIP3    H250447   2.018   1.164   2.944  0.8910  0.2540 -0.0055
 9678TIP3   OH250448   0.225   5.512  16.626  0.0684  0.2275  0.8780
 9678TIP3    H150449   0.210   5.607  16.619  2.1200  0.4776 -2.9201
 9678TIP3    H250450   0.318   5.504  16.647 -0.2401 -0.9748  1.8690
 9679TIP3   OH250451   4.195   2.978   1.883  0.2241 -0.0864 -0.0727
 9679TIP3    H150452   4.229   3.028   1.957  0.9653 -1.9498  0.9267
 9679TIP3    H250453   4.248   3.006   1.808  1.6729 -0.4769  0.7788
 9680TIP3   OH250454   0.847   5.567   1.726 -0.1536 -0.6143  0.0039
 9680TIP3    H150455   0.769   5.557   1.781 -1.4101  0.2960 -1.5082
 9680TIP3    H250456   0.833   5.506   1.654  1.2652 -1.4921  0.4444
 9681TIP3   OH250457   6.425   6.624   2.522 -0.2074  0.4510 -0.7405
 9681TIP3    H150458   6.340   6.652   2.558 -0.9481 -0.3269 -1.8088
 9681TIP3    H250459   6.477   6.704   2.519 -0.0517  0.5446  2.0991
 9682TIP3   OH250460   4.438   2.001   0.364  0.4051 -0.1043  0.9269
 9682TIP3    H150461   4.407   1.912   0.380 -0.4052  0.1662  0.9008
 9682TIP3    H250462   4.506   1.991   0.298  1.0155 -0.8062  1.6398
 9683TIP3   OH250463   5.293   6.012  11.906  0.1466  0.1750  0.3395
 9683TIP3    H150464   5.245   6.048  11.981  1.0855  0.4085  0.8435
 9683TIP3    H250465   5.347   6.085  11.874  0.1507 -0.0704 -0.2369
 9684TIP3   OH250466   3.175   4.733   4.889 -0.0488 -0.3068  0.0507
 9684TIP3    H150467   3.122   4.658   4.915  0.1253 -0.9272 -1.2907
 9684TIP3    H250468   3.140   4.758   4.803 -0.1826  1.2306  0.5321
 9685TIP3   OH250469   5.909   6.312   1.806 -0.4017 -0.0844  0.2478
 9685TIP3    H150470   5.929   6.398   1.770  0.2798 -0.4262 -0.2058
 9685TIP3    H250471   5.880   6.329   1.896  0.3591  0.5595  0.3757
 9686TIP3   OH250472   2.315   1.504  14.668  0.0118  0.1631 -0.1232
 9686TIP3    H150473   2.366   1.579  14.697 -1.0968  1.2576 -0.8950
 9686TIP3    H250474   2.298   1.520  14.575 -0.0548 -1.1649 -0.3629
 9687TIP3   OH250475   5.361   1.481  12.259  0.6152  0.0181  0.0071
 9687TIP3    H150476   5.337   1.471  12.167 -2.1675 -0.1489  0.6678
 9687TIP3    H250477   5.347   1.394  12.297 -2.0437  0.9304  1.3019
 9688TIP3   OH250478   4.540   5.771  16.126 -1.2629 -0.5948  0.5712
 9688TIP3    H150479   4.473   5.839  16.136 -0.9782 -0.2930  0.4736
 9688TIP3    H250480   4.577   5.760  16.214  0.2997  1.0759  0.1923
 9689TIP3   OH250481   0.911   5.896  13.542  0.2053 -0.3170 -0.4994
 9689TIP3    H150482   0.941   5.909  13.453 -1.2054 -2.4881 -1.3714
 9689TIP3    H250483   0.928   5.804  13.560  1.5096  0.3076  1.9450
 9690TIP3   OH250484   5.172   0.757  13.110 -0.0849 -0.0143  0.4092
 9690TIP3    H150485   5.263   0.736  13.134 -0.3151 -2.6390 -0.6693
 9690TIP3    H250486   5.159   0.715  13.025 -2.5942 -0.6125  0.9975
 9691TIP3   OH250487   5.752   5.575  15.758  0.0869 -0.1752  0.1468
 9691TIP3    H150488   5.706   5.491  15.753  0.5615 -0.3927 -0.7507
 9691TIP3    H250489   5.744   5.601  15.850  1.1027 -1.8633  0.7551
 9692TIP3   OH250490   0.630   1.062   6.240 -0.1530  0.3677  0.0571
 9692TIP3    H150491   0.685   1.113   6.300 -0.6421 -0.7036  1.4627
 9692TIP3    H250492   0.543   1.101   6.248 -0.2746  0.0601  0.2343
 9693TIP3   OH250493   3.987   5.850  14.915 -0.3865  0.3726  0.4414
 9693TIP3    H150494   3.948   5.873  14.830  1.1633  2.1938  0.1345
 9693TIP3    H250495   4.062   5.909  14.923  0.1137 -0.4612  2.6402
 9694TIP3   OH250496   5.976   2.521   1.657  0.3342 -0.4445  0.4536
 9694TIP3    H150497   5.904   2.582   1.677  1.7544  0.6558  2.5656
 9694TIP3    H250498   5.985   2.526   1.562 -1.7917  0.0494  0.2164
 9695TIP3   OH250499   0.331   4.231  13.816  0.4406  0.0022  0.1605
 9695TIP3    H150500   0.381   4.184  13.749 -0.1041 -1.4539  0.7134
 9695TIP3    H250501   0.396   4.258  13.881  0.7713  0.0286 -0.1803
 9696TIP3   OH250502   5.000   5.814   4.058 -0.7556  0.2596 -0.4946
 9696TIP3    H150503   4.972   5.905   4.057 -1.7036 -0.0258 -0.6282
 9696TIP3    H250504   5.070   5.810   3.993 -1.3835  0.6846 -1.2125
 9697TIP3   OH250505   0.196   6.086  14.325  0.3311  0.1323 -0.1595
 9697TIP3    H150506   0.215   6.009  14.377 -1.1532 -0.0154  0.2089
 9697TIP3    H250507   0.234   6.068  14.239 -0.0031 -1.0104 -0.0754
 9698TIP3   OH250508   1.857   1.506   6.221 -0.3113  0.0968  0.1734
 9698TIP3    H150509   1.908   1.425   6.228  0.9063  0.6098 -1.9120
 9698TIP3    H250510   1.881   1.555   6.299  1.7342 -0.0985 -0.2614
 9699TIP3   OH250511   5.452   4.711   1.170 -0.6062  0.5645 -0.8460
 9699TIP3    H150512   5.449   4.786   1.230 -0.6992  1.0844 -1.4881
 9699TIP3    H250513   5.542   4.707   1.140 -0.9624  1.5021 -2.1355
 9700TIP3   OH250514   1.381   4.756   1.708  0.1311  0.0906  0.6674
 9700TIP3    H150515   1.310   4.756   1.643  0.1894  1.3403  0.5690
 9700TIP3    H250516   1.344   4.803   1.783  0.9003  0.8993  0.5539
 9701TIP3   OH250517   3.834   1.152   5.717  0.3918 -0.1962 -0.0962
 9701TIP3    H150518   3.885   1.079   5.683  0.7034  0.5629 -1.3452
 9701TIP3    H250519   3.863   1.227   5.664 -1.5710  0.3714 -0.4259
 9702TIP3   OH250520   2.220   0.039   1.655  0.2719  0.4131  0.2218
 9702TIP3    H150521   2.212  -0.008   1.572  0.5233  0.0034  0.4230
 9702TIP3    H250522   2.175  -0.016   1.719 -4.2543  2.9664 -0.3999
 9703TIP3   OH250523   2.167   5.076  11.767 -0.5038  0.0443 -0.0837
 9703TIP3    H150524   2.175   4.981  11.758 -1.5020 -0.0025 -0.6711
 9703TIP3    H250525   2.255   5.109  11.751 -0.6888 -0.5920 -2.8695
 9704TIP3   OH250526   3.705   1.554   0.629  0.1624  0.0475  0.3955
 9704TIP3    H150527   3.785   1.606   0.622  0.4486 -0.4641 -0.1616
 9704TIP3    H250528   3.643   1.596   0.569  0.3952 -0.2572 -0.0580
 9705TIP3   OH250529   4.290   5.009  11.426  0.7793  0.3758 -0.0313
 9705TIP3    H150530   4.336   5.091  11.407  0.5591  0.2233 -1.3793
 9705TIP3    H250531   4.320   4.949  11.357  1.5806 -0.9557  1.4285
 9706TIP3   OH250532   0.644   4.115  10.857  0.2370 -0.9877  0.0223
 9706TIP3    H150533   0.709   4.054  10.822  2.0715  2.3152 -2.9667
 9706TIP3    H250534   0.562   4.091  10.812  1.0686 -0.9289 -1.5937
 9707TIP3   OH250535   5.228   1.481  14.333 -0.2790 -0.1987 -0.1548
 9707TIP3    H150536   5.235   1.385  14.338  0.0544 -0.1895 -0.4103
 9707TIP3    H250537   5.148   1.496  14.282  0.4984 -0.3708 -1.4957
 9708TIP3   OH250538   6.548   0.818  16.453  0.3168  0.3031 -0.0547
 9708TIP3    H150539   6.485   0.864  16.507 -0.9991  1.4072 -2.3999
 9708TIP3    H250540   6.598   0.887  16.409  0.9568 -0.5354 -0.6968
 9709TIP3   OH250541   1.195   5.470  13.828 -0.1178 -0.1307 -0.5144
 9709TIP3    H150542   1.146   5.518  13.895  0.8744  0.5395 -0.2377
 9709TIP3    H250543   1.237   5.539  13.775  1.7079 -0.6407  0.1705
 9710TIP3   OH250544   5.580   3.748   1.576 -0.0485 -0.3342 -0.0682
 9710TIP3    H150545   5.492   3.782   1.559 -0.0402 -0.8409 -1.2141
 9710TIP3    H250546   5.638   3.807   1.530  0.0758 -0.9942 -0.7738
 9711TIP3   OH250547   5.111   4.014   3.794  0.2195 -0.1405  0.0018
 9711TIP3    H150548   5.115   3.922   3.819 -1.1606  0.5793  3.6193
 9711TIP3    H250549   5.192   4.052   3.829  0.5217  0.1427 -0.9777
 9712TIP3   OH250550   6.049   5.218   1.145 -0.0096  0.3831 -0.1229
 9712TIP3    H150551   5.966   5.227   1.097 -0.2486  0.1409  0.2460
 9712TIP3    H250552   6.084   5.134   1.116 -0.6680 -0.2722  0.9061
 9713TIP3   OH250553   2.350   2.200  15.366  0.1973 -0.1290  0.2825
 9713TIP3    H150554   2.385   2.262  15.303 -0.2181 -0.3195 -0.1386
 9713TIP3    H250555   2.386   2.116  15.340 -0.6707 -0.3528 -0.2442
 9714TIP3   OH250556   5.087   3.957  13.388  0.5838 -0.0711 -0.2555
 9714TIP3    H150557   5.132   3.889  13.338  0.6247 -1.5897  1.7006
 9714TIP3    H250558   5.156   4.001  13.438  0.3400  0.1886 -0.1413
 9715TIP3   OH250559   6.498   5.099  16.055  0.3388  0.6237 -0.2111
 9715TIP3    H150560   6.544   5.050  16.123  0.4511  0.6177 -0.2909
 9715TIP3    H250561   6.444   5.033  16.011 -0.8671  0.8820  0.8159
 9716TIP3   OH250562   5.776   3.870  10.871  0.1493 -0.0261 -0.5117
 9716TIP3    H150563   5.832   3.804  10.829  1.2943  0.8251 -0.3766
 9716TIP3    H250564   5.695   3.869  10.819  0.0936 -1.6079 -0.4291
 9717TIP3   OH250565   6.510   4.168  13.408 -0.0420  0.2507 -0.6414
 9717TIP3    H150566   6.449   4.121  13.465 -0.0317  1.6354  0.5706
 9717TIP3    H250567   6.576   4.102  13.384  0.0180 -0.3623  1.0561
 9718TIP3   OH250568   5.564   3.568  11.754 -0.1918  0.6340  0.5756
 9718TIP3    H150569   5.555   3.640  11.691  0.3795  2.0401  2.0335
 9718TIP3    H250570   5.594   3.494  11.701  0.9329  1.9504 -0.7213
 9719TIP3   OH250571   6.779   6.528  11.934  0.3162 -0.3755 -0.4528
 9719TIP3    H150572   6.795   6.579  11.855 -2.2468  0.9516 -0.2391
 9719TIP3    H250573   6.812   6.583  12.006 -0.0357 -0.2193 -0.4081
 9720TIP3   OH250574   5.214   6.439   1.343 -0.2409  0.0476  0.0103
 9720TIP3    H150575   5.182   6.366   1.289 -1.3933 -0.1526  0.9241
 9720TIP3    H250576   5.138   6.464   1.396  0.9355 -0.0128  1.8018
 9721TIP3   OH250577   1.641   1.575   3.015 -0.0875  0.4413 -0.0449
 9721TIP3    H150578   1.604   1.498   2.973 -0.1478  0.0725  0.6573
 9721TIP3    H250579   1.652   1.639   2.945 -1.8891  0.5097 -0.3001
 9722TIP3   OH250580   3.141   4.268   3.718  0.8498 -0.4879 -0.2070
 9722TIP3    H150581   3.112   4.268   3.626 -0.7336  0.4804  0.2470
 9722TIP3    H250582   3.147   4.176   3.741 -1.9336 -0.7973 -0.3923
 9723TIP3   OH250583   6.162   6.431  15.577  0.5090  0.4161  0.2664
 9723TIP3    H150584   6.214   6.412  15.499  1.6794 -1.5210  1.4517
 9723TIP3    H250585   6.072   6.434  15.545  0.9858  0.0685 -1.2104
 9724TIP3   OH250586   3.556   3.530   3.121 -0.2762 -0.7561  0.2442
 9724TIP3    H150587   3.593   3.448   3.154  1.3691 -0.2463 -0.2245
 9724TIP3    H250588   3.488   3.553   3.184 -0.4057 -2.2023  0.6669
 9725TIP3   OH250589   5.278   1.297   4.509 -0.4345  0.0573  0.4987
 9725TIP3    H150590   5.354   1.298   4.450 -0.3816 -0.3176  0.5599
 9725TIP3    H250591   5.229   1.375   4.485 -1.1809 -0.8319 -1.0298
 9726TIP3   OH250592   2.356   5.512  10.985 -0.2217  0.7152  0.0915
 9726TIP3    H150593   2.431   5.539  10.932 -1.3741  0.6404 -1.6561
 9726TIP3    H250594   2.350   5.417  10.971 -0.7868  0.7592  0.0219
 9727TIP3   OH250595   0.781   5.269   4.330  0.3426  0.3794 -0.0297
 9727TIP3    H150596   0.706   5.210   4.337  0.1672  0.6401  0.3809
 9727TIP3    H250597   0.855   5.212   4.310 -0.2050  0.2874 -1.9336
 9728TIP3   OH250598   1.300   2.276   1.153 -0.3130  0.3391 -0.4161
 9728TIP3    H150599   1.237   2.236   1.214 -1.1842  1.9762 -0.1731
 9728TIP3    H250600   1.346   2.202   1.114 -1.2246 -0.8446  0.6574
 9729TIP3   OH250601   1.494   5.335  15.068  0.8226  0.1393 -0.2908
 9729TIP3    H150602   1.567   5.285  15.034 -0.1972 -0.8393 -1.1223
 9729TIP3    H250603   1.445   5.272  15.121  0.3505  0.6630 -0.0999
 9730TIP3   OH250604   5.384   4.913  13.803  0.3250  0.0707  0.5401
 9730TIP3    H150605   5.352   4.929  13.892  1.7486  0.5539  1.0000
 9730TIP3    H250606   5.473   4.880  13.816 -0.1494 -1.8098 -0.6612
 9731TIP3   OH250607   3.944   4.719  11.993  0.5019 -0.0007  0.6226
 9731TIP3    H150608   3.948   4.627  11.967 -1.4555 -0.1128  0.5686
 9731TIP3    H250609   4.031   4.754  11.973  0.7984 -1.4507 -0.8062
 9732TIP3   OH250610   4.559   0.652   3.684  0.0892 -0.1748 -0.3908
 9732TIP3    H150611   4.504   0.577   3.706  0.2445 -0.2709 -0.3275
 9732TIP3    H250612   4.648   0.620   3.697  0.1933 -0.2975 -1.3606
 9733TIP3   OH250613   2.005   5.173   1.873  0.2329 -0.2581 -0.1899
 9733TIP3    H150614   2.073   5.108   1.858  1.1452  0.8995 -1.3471
 9733TIP3    H250615   2.039   5.227   1.944 -0.7061 -1.2540  1.0497
 9734TIP3   OH250616   6.242   3.953  12.566  0.0141  0.3764  0.2116
 9734TIP3    H150617   6.228   4.031  12.513  0.6407 -0.7632 -1.7341
 9734TIP3    H250618   6.198   3.972  12.649 -1.4947  2.0365 -0.8974
 9735TIP3   OH250619   2.329   4.001   0.380 -0.4263  0.0185 -0.4150
 9735TIP3    H150620   2.272   3.939   0.424 -0.9055  1.0427  0.4794
 9735TIP3    H250621   2.278   4.034   0.306 -0.9223  0.7328  0.2261
 9736TIP3   OH250622   4.744   3.724  15.679  0.0942 -0.3309  0.7268
 9736TIP3    H150623   4.732   3.711  15.585 -0.3379 -1.7487  0.9684
 9736TIP3    H250624   4.661   3.700  15.718  0.2734  0.2474  1.4931
 9737TIP3   OH250625   5.785   2.853  12.050 -0.6583  0.0633  0.3997
 9737TIP3    H150626   5.852   2.852  11.982 -0.8621 -0.5256  0.2085
 9737TIP3    H250627   5.780   2.763  12.081 -0.5128  0.3305  1.2560
 9738TIP3   OH250628   5.601   2.187  15.122  0.0640  0.2489  0.4595
 9738TIP3    H150629   5.594   2.092  15.112  2.5468  0.0869 -0.4284
 9738TIP3    H250630   5.578   2.222  15.036  1.6500  0.2148 -0.0246
 9739TIP3   OH250631   6.769   5.359   3.922  0.4893 -0.2159 -0.0166
 9739TIP3    H150632   6.736   5.448   3.912 -1.6991 -0.8010  1.3390
 9739TIP3    H250633   6.731   5.311   3.848  1.7377 -0.0507 -0.7968
 9740TIP3   OH250634   2.095   0.191   4.163 -0.0031 -0.1608  0.1917
 9740TIP3    H150635   2.040   0.198   4.241  1.3738  0.1022  1.1840
 9740TIP3    H250636   2.083   0.275   4.118 -0.2652 -0.0350  0.4939
 9741TIP3   OH250637   1.290   5.586   0.827 -0.1845  0.0888 -0.2119
 9741TIP3    H150638   1.382   5.612   0.814 -0.5558  0.9629 -1.2434
 9741TIP3    H250639   1.260   5.641   0.898 -0.9760  2.7280 -2.4041
 9742TIP3   OH250640   6.229   0.817   2.407 -0.1380  0.2843  0.1872
 9742TIP3    H150641   6.211   0.723   2.399  2.5741 -0.2612 -0.3372
 9742TIP3    H250642   6.216   0.836   2.499  0.0785 -0.8022  0.4563
 9743TIP3   OH250643   0.431   0.527   2.171  0.2662 -0.1330 -0.5930
 9743TIP3    H150644   0.517   0.489   2.158 -0.7948 -3.1264  0.2641
 9743TIP3    H250645   0.421   0.532   2.266 -0.1369  1.1511 -0.6900
 9744TIP3   OH250646   2.746   3.665  14.163  0.2571 -0.2980  1.0482
 9744TIP3    H150647   2.678   3.699  14.104  0.3202  0.4284  1.3848
 9744TIP3    H250648   2.820   3.725  14.152  0.4083 -0.3798  1.5745
 9745TIP3   OH250649   4.722   0.126  11.036 -0.3234  0.4775 -0.1870
 9745TIP3    H150650   4.789   0.146  10.971  0.2077  1.7997  0.7186
 9745TIP3    H250651   4.769   0.126  11.120 -0.7019 -2.6594  0.1232
 9746TIP3   OH250652   3.713   5.326   4.846 -0.4470 -0.0993  0.5589
 9746TIP3    H150653   3.670   5.375   4.776 -0.5778 -1.6899 -0.5074
 9746TIP3    H250654   3.650   5.260   4.872  0.8156 -1.6575 -0.1602
 9747TIP3   OH250655   4.523   1.758   2.003 -0.2442  0.3199  0.4423
 9747TIP3    H150656   4.435   1.775   1.969 -0.5021 -0.6915  0.5814
 9747TIP3    H250657   4.544   1.670   1.972 -0.1348 -0.2902  2.1359
 9748TIP3   OH250658   6.682   4.027   1.664  0.3931 -0.1522 -0.1000
 9748TIP3    H150659   6.641   4.054   1.746 -0.1133 -0.5257 -0.2241
 9748TIP3    H250660   6.623   3.961   1.629  2.1397 -2.2856  0.7519
 9749TIP3   OH250661   0.754   2.237  14.641  0.2029 -0.5760 -0.0971
 9749TIP3    H150662   0.751   2.328  14.670 -1.9302 -0.3966 -0.7479
 9749TIP3    H250663   0.841   2.227  14.603 -0.3142  1.8912 -2.1887
 9750TIP3   OH250664   0.293   6.521  15.250  0.0650 -0.3225  0.1013
 9750TIP3    H150665   0.273   6.428  15.240 -0.0223 -0.3354  0.4139
 9750TIP3    H250666   0.219   6.566  15.209 -0.2965 -0.3797  0.6883
 9751TIP3   OH250667   0.561   0.792  14.168 -0.2647 -0.0412 -0.3735
 9751TIP3    H150668   0.652   0.781  14.140 -0.0782  0.4195  0.0287
 9751TIP3    H250669   0.566   0.857  14.239 -0.6918 -1.3908  0.9285
 9752TIP3   OH250670   6.675   5.548  15.500  0.2552 -0.2881 -0.5412
 9752TIP3    H150671   6.710   5.605  15.432  0.8714  0.3518  0.2900
 9752TIP3    H250672   6.653   5.608  15.572 -0.6884 -0.9100 -0.2926
 9753TIP3   OH250673   0.318   2.503   0.317 -0.4422  0.6284  0.3863
 9753TIP3    H150674   0.393   2.520   0.374  0.0946  1.0573 -0.4163
 9753TIP3    H250675   0.356   2.460   0.240 -1.2172 -0.3873  0.5417
 9754TIP3   OH250676   0.279   5.480  14.936 -0.9546  0.3254 -0.3904
 9754TIP3    H150677   0.201   5.527  14.908 -0.9385  0.7440  0.2604
 9754TIP3    H250678   0.249   5.391  14.954 -1.4519  0.6943  0.6594
 9755TIP3   OH250679   3.521   6.118   3.245 -0.0979  0.1497 -0.3331
 9755TIP3    H150680   3.477   6.158   3.170  1.8218 -0.0328 -1.6328
 9755TIP3    H250681   3.455   6.061   3.284 -1.4292  0.9706 -1.3157
 9756TIP3   OH250682   3.934   1.094   0.406 -0.5417 -0.0046  0.0011
 9756TIP3    H150683   4.026   1.110   0.386 -0.7740  1.1267 -0.2132
 9756TIP3    H250684   3.886   1.153   0.349 -1.3972 -0.3283  0.3668
 9757TIP3   OH250685   1.831   2.956   0.021 -0.9714 -0.3316  0.5425
 9757TIP3    H150686   1.755   2.970  -0.035 -0.8693  2.5363  1.0019
 9757TIP3    H250687   1.879   3.038   0.017  2.5883 -2.2411 -0.3302
 9758TIP3   OH250688   3.719   2.905   4.006 -0.0592 -0.6264  0.2946
 9758TIP3    H150689   3.673   2.925   3.924  1.3599 -1.6112 -0.7947
 9758TIP3    H250690   3.786   2.841   3.981  2.5262  1.3706  1.5747
 9759TIP3   OH250691   3.904   1.416   5.027  0.2537  0.0457  0.0546
 9759TIP3    H150692   3.878   1.372   4.946 -2.2455  0.6815  0.4192
 9759TIP3    H250693   3.946   1.347   5.079 -0.4501 -1.0465 -0.7666
 9760TIP3   OH250694   1.531   6.379  12.442  0.2150  0.1677  0.3143
 9760TIP3    H150695   1.454   6.345  12.396  0.0557 -0.1238  0.7833
 9760TIP3    H250696   1.496   6.441  12.506  0.1980 -1.1377  1.6240
 9761TIP3   OH250697   0.916   3.121  16.526  0.2354 -0.3716  0.0916
 9761TIP3    H150698   0.962   3.046  16.490 -1.8794 -0.7091 -2.1835
 9761TIP3    H250699   0.825   3.109  16.498 -0.5632  1.9967  1.3933
 9762TIP3   OH250700   4.292   0.704  11.505 -0.3156  0.1784 -0.2172
 9762TIP3    H150701   4.241   0.668  11.432 -0.8816  1.1402 -0.3201
 9762TIP3    H250702   4.226   0.738  11.565  0.1137 -1.1489  1.0742
 9763TIP3   OH250703   3.176   0.050   5.609 -0.0407  0.3708  0.6401
 9763TIP3    H150704   3.265   0.074   5.585  0.2152 -1.3595 -0.2457
 9763TIP3    H250705   3.186  -0.004   5.688 -0.1507 -0.9446 -0.2125
 9764TIP3   OH250706   6.025   6.147  15.021  0.1806  0.0178 -0.2210
 9764TIP3    H150707   6.081   6.175  14.949  0.5118 -0.6971 -0.2555
 9764TIP3    H250708   5.967   6.082  14.981  0.0700 -0.0559  0.0569
 9765TIP3   OH250709   6.664   0.931  14.300 -0.2119  0.4637 -0.4427
 9765TIP3    H150710   6.750   0.890  14.312 -0.2068  0.5996  0.0084
 9765TIP3    H250711   6.683   1.012  14.252  0.2249  1.6663  1.6212
 9766TIP3   OH250712   1.921   3.126  14.846  0.0251  0.2041 -0.1651
 9766TIP3    H150713   1.989   3.150  14.783 -1.8541  0.3735 -2.2618
 9766TIP3    H250714   1.954   3.047  14.888  0.8602 -0.6688 -2.2903
 9767TIP3   OH250715   0.751   4.673   1.193 -0.2076  0.8657  0.2842
 9767TIP3    H150716   0.780   4.756   1.156  2.6049 -0.8295 -1.7211
 9767TIP3    H250717   0.830   4.633   1.230 -1.3347 -1.1552  0.6963
 9768TIP3   OH250718   4.165   0.723   3.943  0.2307 -0.1871 -0.0122
 9768TIP3    H150719   4.138   0.789   3.879  1.2491 -0.6460 -0.9409
 9768TIP3    H250720   4.241   0.761   3.987  1.7772 -1.3108 -1.6090
 9769TIP3   OH250721   1.299   4.097   3.032  0.3654 -0.1177  0.8044
 9769TIP3    H150722   1.251   4.175   3.004  2.0223 -0.1396 -2.5058
 9769TIP3    H250723   1.231   4.038   3.064 -1.6189  0.7236 -1.5288
 9770TIP3   OH250724   3.101   4.833  16.371 -0.5717  0.0055  0.1537
 9770TIP3    H150725   3.058   4.819  16.456 -2.1106 -0.8865 -0.7290
 9770TIP3    H250726   3.166   4.764  16.365 -0.1978  0.2942  0.7522
 9771TIP3   OH250727   6.652   6.370   5.129 -0.3951 -0.6901  0.4581
 9771TIP3    H150728   6.721   6.312   5.162 -0.4498 -0.4015  1.1004
 9771TIP3    H250729   6.631   6.335   5.043  0.7017 -0.6624  0.1639
 9772TIP3   OH250730   6.427   1.344  15.211 -0.2221  0.3572 -0.4498
 9772TIP3    H150731   6.521   1.331  15.207 -0.4944 -3.1262  0.4693
 9772TIP3    H250732   6.396   1.322  15.123 -0.2374  0.4572 -0.4687
 9773TIP3   OH250733   3.445   2.563   5.808  0.5638  0.5119  0.1560
 9773TIP3    H150734   3.532   2.598   5.790  1.3025 -1.7130 -1.0279
 9773TIP3    H250735   3.453   2.526   5.896  0.5032  1.1833  0.4477
 9774TIP3   OH250736   5.106   3.675   5.664  0.0669 -0.3446  0.2075
 9774TIP3    H150737   5.153   3.625   5.731  1.2257  1.3328  0.6981
 9774TIP3    H250738   5.114   3.621   5.585  0.0588 -1.5939  1.0250
 9775TIP3   OH250739   5.752   1.077  13.581 -0.0334  0.0632 -0.2074
 9775TIP3    H150740   5.789   0.995  13.547 -0.5814 -0.6582  0.8924
 9775TIP3    H250741   5.671   1.089  13.531 -0.4568 -0.6018  0.2966
 9776TIP3   OH250742   3.839   3.453  16.072  0.5306 -0.6144 -0.0408
 9776TIP3    H150743   3.880   3.538  16.088  0.5056 -0.0900 -2.4310
 9776TIP3    H250744   3.747   3.466  16.095  0.6127 -0.1267  0.0180
 9777TIP3   OH250745   1.190   5.949  16.310 -0.1635 -0.3710 -0.2757
 9777TIP3    H150746   1.267   6.006  16.308  0.6011 -1.3961 -0.5488
 9777TIP3    H250747   1.194   5.907  16.396 -2.4161  2.1869  1.2754
 9778TIP3   OH250748   5.577   2.799  11.111  0.1562 -0.0036 -0.1455
 9778TIP3    H150749   5.658   2.807  11.163 -0.0892 -1.1213  0.4553
 9778TIP3    H250750   5.513   2.852  11.159  1.1446  3.2710 -2.1387
 9779TIP3   OH250751   5.000   1.005   4.676 -0.3079  0.0614  0.0952
 9779TIP3    H150752   4.937   1.054   4.623 -1.7035  0.7885  2.3230
 9779TIP3    H250753   5.079   1.060   4.677 -0.9659  1.0181  0.4368
 9780TIP3   OH250754   0.158   1.616   1.365  0.6908 -0.3512 -0.2000
 9780TIP3    H150755   0.213   1.601   1.441  1.2188  0.4750 -0.4041
 9780TIP3    H250756   0.219   1.643   1.296  0.1765 -0.6974 -0.8026
 9781TIP3   OH250757   6.415   3.192   4.609 -0.0923  0.8478 -0.7729
 9781TIP3    H150758   6.432   3.272   4.660  0.5367  0.7326 -0.7992
 9781TIP3    H250759   6.486   3.189   4.545 -1.0546  1.1731 -1.9027
 9782TIP3   OH250760   6.174   3.225  12.876 -0.7492  0.7335 -0.1123
 9782TIP3    H150761   6.239   3.295  12.870  0.6934 -0.6461 -1.2128
 9782TIP3    H250762   6.148   3.209  12.785 -2.5123  1.0888  0.2819
 9783TIP3   OH250763   0.273   0.982  16.114  0.4864 -0.1565  0.0408
 9783TIP3    H150764   0.269   0.889  16.090  2.1304  0.3079 -2.3174
 9783TIP3    H250765   0.365   1.006  16.102 -0.0687  2.0016 -0.3043
 9784TIP3   OH250766   4.415   0.667  16.161 -0.2112 -0.1451  0.1245
 9784TIP3    H150767   4.423   0.644  16.068 -0.7333  1.8825 -0.4673
 9784TIP3    H250768   4.334   0.717  16.166 -2.3660 -3.4296  2.4053
 9785TIP3   OH250769   5.696   4.313  11.617 -0.2969  0.2439  0.2257
 9785TIP3    H150770   5.769   4.337  11.675 -0.5075  2.2990 -0.2804
 9785TIP3    H250771   5.671   4.225  11.646  1.6446 -0.0730  1.1507
 9786TIP3   OH250772   5.268   1.967  15.090  0.1599 -0.3655  0.2442
 9786TIP3    H150773   5.267   2.018  15.009  0.8569  1.2018  1.1935
 9786TIP3    H250774   5.355   1.927  15.092  0.9248  1.2631  1.1888
 9787TIP3   OH250775   5.874   2.553  10.637  0.4476 -0.0295 -0.0180
 9787TIP3    H150776   5.952   2.507  10.671 -0.4431 -0.7655  1.1418
 9787TIP3    H250777   5.841   2.495  10.568 -0.6652 -1.2133  1.4334
 9788TIP3   OH250778   5.066   1.793  10.089  0.3692 -0.3303 -0.1745
 9788TIP3    H150779   5.114   1.865  10.049  1.8298 -1.8738 -1.3778
 9788TIP3    H250780   5.073   1.721  10.026  1.1805 -2.3206  2.0171
 9789TIP3   OH250781   3.643   5.437   0.217  0.4675  0.1248  0.2874
 9789TIP3    H150782   3.723   5.487   0.232  0.2451  0.1420  1.4452
 9789TIP3    H250783   3.675   5.349   0.194  0.8302  0.4023 -0.2970
 9790TIP3   OH250784   5.219   2.744  16.807  0.2847  0.3577  0.3576
 9790TIP3    H150785   5.283   2.804  16.847 -0.7343  1.2262  0.7450
 9790TIP3    H250786   5.142   2.799  16.793 -0.6438 -0.8513  0.6148
 9791TIP3   OH250787   4.772   0.575  14.742  0.1798 -0.3399 -0.0059
 9791TIP3    H150788   4.713   0.576  14.818 -1.1058 -0.4690 -0.9758
 9791TIP3    H250789   4.716   0.552  14.668  0.9746  1.8599 -1.3736
 9792TIP3   OH250790   2.252   5.992  12.561  0.2327 -0.1773  0.1623
 9792TIP3    H150791   2.334   6.010  12.607 -0.0003 -0.2648  0.6147
 9792TIP3    H250792   2.190   5.970  12.630 -0.4521  0.9165 -0.0770
 9793TIP3   OH250793   2.149   5.213   5.102  0.5361  0.6721  0.4661
 9793TIP3    H150794   2.057   5.239   5.110  0.5945  1.8039 -1.7153
 9793TIP3    H250795   2.151   5.122   5.130 -1.3273  0.5008  0.1644
 9794TIP3   OH250796   5.187   2.068   3.191 -0.7000  0.0802  0.1407
 9794TIP3    H150797   5.176   2.159   3.164 -1.6917  0.4364  1.5946
 9794TIP3    H250798   5.188   2.071   3.287  0.9831 -1.2743  0.2242
 9795TIP3   OH250799   5.524   4.475  11.496 -0.1914 -0.1759  0.2539
 9795TIP3    H150800   5.462   4.480  11.570 -0.9460 -0.4206 -0.3429
 9795TIP3    H250801   5.601   4.432  11.532 -0.3437  0.1714  1.0308
 9796TIP3   OH250802   5.993   4.927  13.751  0.1755 -0.4226  0.4803
 9796TIP3    H150803   5.997   4.901  13.659 -1.0787 -0.3356  0.3900
 9796TIP3    H250804   6.056   4.869  13.795  0.0092 -1.1858 -0.2605
 9797TIP3   OH250805   5.998   4.996   4.369  0.6324 -0.4526  0.5132
 9797TIP3    H150806   5.928   4.945   4.329  1.5970 -0.4831 -1.2822
 9797TIP3    H250807   6.051   4.933   4.417  0.0438 -0.6002  0.9734
 9798TIP3   OH250808   2.425   0.283  11.903 -0.7513 -0.1138 -0.1120
 9798TIP3    H150809   2.349   0.242  11.944 -2.3128  1.5143 -1.1630
 9798TIP3    H250810   2.467   0.213  11.853 -2.5821 -0.7387 -0.8706
 9799TIP3   OH250811   2.055   3.595   4.950  0.1449 -0.5270  0.2770
 9799TIP3    H150812   2.073   3.689   4.944 -0.0990 -0.3680  1.5979
 9799TIP3    H250813   1.962   3.590   4.972 -0.3991 -1.1824 -1.9828
 9800TIP3   OH250814   4.364   2.777   6.394  0.2007  0.1460 -0.7282
 9800TIP3    H150815   4.334   2.746   6.308 -2.1257 -1.6656  0.6210
 9800TIP3    H250816   4.413   2.703   6.430 -0.2728  0.2470  0.1522
 9801TIP3   OH250817   0.496   2.607  13.905 -0.0118 -0.1443  0.0524
 9801TIP3    H150818   0.488   2.702  13.896  0.0314  0.0704  1.9467
 9801TIP3    H250819   0.507   2.592  13.999  0.7281 -1.9782 -0.2749
 9802TIP3   OH250820   2.513   4.884   1.986 -0.2189  0.7766  0.2181
 9802TIP3    H150821   2.515   4.789   1.972 -1.4374  0.7784 -0.1449
 9802TIP3    H250822   2.503   4.894   2.080 -1.3886  0.4821  0.1482
 9803TIP3   OH250823   0.882   2.211  17.214 -0.4286  0.1277  0.0946
 9803TIP3    H150824   0.840   2.163  17.286  0.1611 -0.9180 -0.2391
 9803TIP3    H250825   0.819   2.206  17.142 -0.4302 -0.0244  0.1070
 9804TIP3   OH250826   1.757   0.148  14.986 -0.0044  0.2933  1.0987
 9804TIP3    H150827   1.776   0.240  15.003 -0.3360  0.3838  0.9886
 9804TIP3    H250828   1.817   0.100  15.043  0.3293  0.5755  0.9854
 9805TIP3   OH250829   3.192   6.550   5.068 -0.3022  0.3488 -0.3903
 9805TIP3    H150830   3.171   6.595   5.150  0.3507  1.4858 -0.8180
 9805TIP3    H250831   3.274   6.504   5.087 -0.2061  0.5257 -0.3716
 9806TIP3   OH250832   5.348   2.457   3.004 -0.0861  0.7398 -0.2061
 9806TIP3    H150833   5.340   2.548   3.033 -0.4229  0.9181 -0.8369
 9806TIP3    H250834   5.381   2.463   2.915  1.4407  0.1783  0.2967
 9807TIP3   OH250835   3.783   6.363  14.150 -0.4154 -0.1452  0.2828
 9807TIP3    H150836   3.804   6.271  14.166 -1.7186 -0.5172 -0.0129
 9807TIP3    H250837   3.868   6.405  14.137  0.1618 -1.4850 -0.5191
 9808TIP3   OH250838   3.299   0.234   2.079  0.3473 -0.1616 -0.4357
 9808TIP3    H150839   3.340   0.319   2.097 -1.7398  0.2378  3.8615
 9808TIP3    H250840   3.330   0.178   2.150 -2.5822 -1.2337  0.1313
 9809TIP3   OH250841   0.404   2.918  11.938 -0.1177  0.1211  0.0065
 9809TIP3    H150842   0.436   2.939  11.850 -1.6019  0.4353 -0.4950
 9809TIP3    H250843   0.384   2.825  11.934 -1.5753  0.4288 -0.4871
 9810TIP3   OH250844   5.654   3.194   6.437  0.4768  0.3719  0.0742
 9810TIP3    H150845   5.691   3.281   6.448  1.1059  0.1678 -0.3761
 9810TIP3    H250846   5.608   3.177   6.519  2.6044  0.0390  1.2762
 9811TIP3   OH250847   3.975   4.398   1.699 -0.6369 -0.1700 -0.2958
 9811TIP3    H150848   3.951   4.490   1.712 -3.1943 -0.7533 -0.4777
 9811TIP3    H250849   3.915   4.367   1.631 -0.1650 -2.1253  0.1315
 9812TIP3   OH250850   5.816   0.225   0.401 -0.5829 -0.6670 -0.2745
 9812TIP3    H150851   5.759   0.190   0.332 -0.3269  1.2756 -1.5445
 9812TIP3    H250852   5.764   0.295   0.441  0.4025  0.2895 -0.6149
 9813TIP3   OH250853   2.940   1.703   1.279 -0.2059 -0.6571  0.7738
 9813TIP3    H150854   2.860   1.750   1.256  1.0731  0.8097 -1.0083
 9813TIP3    H250855   2.910   1.618   1.310 -2.4932  0.4015  1.6732
 9814TIP3   OH250856   4.655   5.835  10.930  0.1727  0.1538 -0.0228
 9814TIP3    H150857   4.611   5.835  11.015 -0.9422  0.7528 -0.5804
 9814TIP3    H250858   4.595   5.790  10.871 -0.8852  3.0590 -1.3373
 9815TIP3   OH250859   3.836   5.447   5.170  0.3107 -0.3397 -0.4106
 9815TIP3    H150860   3.777   5.459   5.095 -1.1887 -1.2784  0.5628
 9815TIP3    H250861   3.865   5.356   5.163  0.6334 -0.2571 -0.1693
 9816TIP3   OH250862   1.020   6.049  14.890 -0.6109  0.1824 -0.2184
 9816TIP3    H150863   0.928   6.053  14.867 -0.4359  1.1152 -0.8068
 9816TIP3    H250864   1.060   6.123  14.845  0.1566  0.7135  1.2355
 9817TIP3   OH250865   1.698   0.784  12.692 -0.1610  0.3043  0.5833
 9817TIP3    H150866   1.721   0.812  12.781 -1.0826  0.3747  0.8117
 9817TIP3    H250867   1.663   0.695  12.702 -2.0343  0.9802  0.5922
 9818TIP3   OH250868   1.998   4.673   4.700  0.1995  0.7820  0.7686
 9818TIP3    H150869   2.018   4.766   4.703 -1.7127  1.2583  0.1327
 9818TIP3    H250870   1.967   4.658   4.610  1.8363 -0.7874  0.4158
 9819TIP3   OH250871   2.675   6.401  15.934 -0.5531 -0.4026 -0.0152
 9819TIP3    H150872   2.629   6.434  16.011  0.8822  0.9676  0.3061
 9819TIP3    H250873   2.674   6.473  15.872  0.9856 -0.3706 -0.0576
 9820TIP3   OH250874   0.472   6.247   0.656  0.0684  0.1542  0.5926
 9820TIP3    H150875   0.545   6.243   0.594 -0.5523 -0.1499 -0.1369
 9820TIP3    H250876   0.454   6.340   0.667 -0.7132  0.1929 -0.7865
 9821TIP3   OH250877   1.236   6.723   1.231 -0.3636  0.0599  0.3112
 9821TIP3    H150878   1.210   6.722   1.139  1.2283  0.7968 -0.1897
 9821TIP3    H250879   1.211   6.637   1.264 -0.0198 -0.6093 -1.0911
 9822TIP3   OH250880   1.852   3.643   2.273 -0.2710  0.0257 -0.0592
 9822TIP3    H150881   1.778   3.690   2.311 -0.7419  0.7545 -1.7791
 9822TIP3    H250882   1.877   3.579   2.340 -0.9754  1.2999  1.4725
 9823TIP3   OH250883   2.490   3.285  11.693  0.3573  0.4195  0.3792
 9823TIP3    H150884   2.424   3.256  11.757  1.0196 -0.6998  0.5721
 9823TIP3    H250885   2.491   3.216  11.627  0.5452  0.9810 -0.2092
 9824TIP3   OH250886   3.187   1.008   4.353 -0.0254  0.2884  0.4052
 9824TIP3    H150887   3.220   1.058   4.278 -0.4122  2.0409  1.3253
 9824TIP3    H250888   3.093   1.001   4.338 -0.3289  1.8238  1.2959
 9825TIP3   OH250889   1.524   5.440  17.204  0.0428  0.0493 -0.2420
 9825TIP3    H150890   1.496   5.531  17.192 -1.0026 -0.1993  0.2196
 9825TIP3    H250891   1.475   5.391  17.139  0.3613 -0.2285 -0.2742
 9826TIP3   OH250892   3.764   5.724  17.060  0.2926 -0.3917  0.2859
 9826TIP3    H150893   3.693   5.775  17.099 -0.8699 -0.7169 -1.3040
 9826TIP3    H250894   3.738   5.711  16.969  2.0966 -1.0896 -0.1913
 9827TIP3   OH250895   3.406   6.310  16.984  0.4103  0.1501  0.6724
 9827TIP3    H150896   3.480   6.362  16.954  0.4458  0.9463  2.0198
 9827TIP3    H250897   3.441   6.223  17.001  0.8837  0.3428  0.6705
 9828TIP3   OH250898   6.080   5.331  15.324  0.6577 -0.3411 -0.7817
 9828TIP3    H150899   6.098   5.291  15.239 -1.1351 -1.0157 -0.8904
 9828TIP3    H250900   6.100   5.261  15.387 -0.2302 -0.6353 -0.8165
 9829TIP3   OH250901   2.131   4.801  13.850  0.1355  0.4114 -0.1391
 9829TIP3    H150902   2.184   4.760  13.781 -0.6739  0.3310 -0.7219
 9829TIP3    H250903   2.174   4.773  13.931 -1.2298 -2.9397 -0.4007
 9830TIP3   OH250904   0.825   5.308  15.297  0.6786  0.0566  0.0176
 9830TIP3    H150905   0.851   5.303  15.205 -4.6002 -0.6379 -1.7264
 9830TIP3    H250906   0.837   5.400  15.321  0.6665  0.5829 -1.9051
 9831TIP3   OH250907   1.229   2.250   0.040  0.1651 -0.2290 -0.0756
 9831TIP3    H150908   1.146   2.236  -0.005 -0.5085  1.2185  0.6576
 9831TIP3    H250909   1.294   2.247  -0.031 -0.6524 -0.0172 -0.8606
 9832TIP3   OH250910   2.332   0.867  11.892  0.6891 -0.1630  0.2020
 9832TIP3    H150911   2.260   0.904  11.841  2.5806  0.0335 -2.5263
 9832TIP3    H250912   2.309   0.775  11.904 -0.0867 -0.0678 -0.5052
 9833TIP3   OH250913   6.055   1.095   4.011  0.3569 -0.1509 -0.1905
 9833TIP3    H150914   6.032   1.065   3.923 -0.8784  1.2669 -0.3850
 9833TIP3    H250915   6.013   1.032   4.069  1.3322 -1.2032 -0.5769
 9834TIP3   OH250916   4.869   0.641  14.448  0.3109 -0.5139  0.4446
 9834TIP3    H150917   4.860   0.692  14.367  4.2354  1.5517  1.0514
 9834TIP3    H250918   4.820   0.692  14.514  1.0073  0.4011  0.2719
 9835TIP3   OH250919   4.595   4.692  15.939 -0.1894 -0.8638  0.2535
 9835TIP3    H150920   4.504   4.721  15.948 -1.3642 -3.3558 -2.0202
 9835TIP3    H250921   4.610   4.635  16.014  0.0766  0.7153  1.4460
 9836TIP3   OH250922   5.528   5.802  15.295 -0.0891 -0.3754 -0.7691
 9836TIP3    H150923   5.536   5.881  15.348 -1.8518 -1.5054  1.3290
 9836TIP3    H250924   5.435   5.781  15.297  0.2837 -2.2871 -1.5851
 9837TIP3   OH250925   0.472   1.159   5.068 -0.0263  0.5562  0.0291
 9837TIP3    H150926   0.513   1.245   5.071  1.3091 -0.0427  0.1255
 9837TIP3    H250927   0.546   1.098   5.067 -0.9353 -0.5824 -0.2628
 9838TIP3   OH250928   4.658   1.222   4.616 -0.0435  0.4207 -0.0797
 9838TIP3    H150929   4.746   1.198   4.586  0.3552  0.5470  0.9755
 9838TIP3    H250930   4.636   1.300   4.564  1.3002  1.6040  1.0334
 9839TIP3   OH250931   4.176   6.725   5.868 -1.0090 -0.0860 -0.3860
 9839TIP3    H150932   4.265   6.732   5.833 -1.5908 -1.2810 -2.2415
 9839TIP3    H250933   4.186   6.677   5.950  0.0912  0.1408 -0.3780
 9840TIP3   OH250934   1.122   3.109   4.022 -0.7419 -0.2074 -0.1155
 9840TIP3    H150935   1.094   3.188   4.067 -2.2416 -1.5471  1.4579
 9840TIP3    H250936   1.190   3.072   4.077  0.6075  0.3824 -1.3088
 9841TIP3   OH250937   3.069   4.070  10.927  0.0777 -0.4994  0.8226
 9841TIP3    H150938   3.152   4.116  10.932  1.1571 -1.7696 -2.4838
 9841TIP3    H250939   3.093   3.977  10.925 -1.4222 -0.9058  0.1170
 9842TIP3   OH250940   6.137   1.558  12.848 -0.1495  0.2675  0.1428
 9842TIP3    H150941   6.154   1.597  12.934  3.2850 -2.5352  0.9827
 9842TIP3    H250942   6.049   1.522  12.856  0.1306 -0.1060  2.6496
 9843TIP3   OH250943   4.087   1.471  12.512 -0.8060 -0.1745  0.2087
 9843TIP3    H150944   4.030   1.511  12.578 -0.0617  1.0489  0.1645
 9843TIP3    H250945   4.158   1.432  12.563 -0.1894  0.8390  0.1666
 9844TIP3   OH250946   0.152   5.614  15.890 -0.0727  0.4607 -0.0388
 9844TIP3    H150947   0.236   5.591  15.930 -0.4666 -0.2284  0.4142
 9844TIP3    H250948   0.117   5.531  15.859 -0.7076  0.7129  0.0030
 9845TIP3   OH250949   0.855   1.969  13.070 -0.0545  0.6802 -0.2316
 9845TIP3    H150950   0.800   1.940  12.997 -0.1049  0.4559 -0.1045
 9845TIP3    H250951   0.794   1.986  13.141  0.1908 -1.8560  0.6966
 9846TIP3   OH250952   1.113   1.948   5.062  0.2306  0.1836 -0.1142
 9846TIP3    H150953   1.119   1.891   4.985 -0.9505  0.2388 -0.2662
 9846TIP3    H250954   1.200   1.986   5.070  0.5804 -0.3999 -0.9858
 9847TIP3   OH250955   5.972   1.044   6.185  0.0578  0.5694  0.0390
 9847TIP3    H150956   6.039   1.094   6.139 -0.5617  0.7542 -0.6850
 9847TIP3    H250957   5.992   1.057   6.278  0.3960  1.4777 -0.1513
 9848TIP3   OH250958   1.534   3.370   6.101 -0.1402  0.0463  0.3276
 9848TIP3    H150959   1.471   3.319   6.051  1.4327  0.1022 -1.8784
 9848TIP3    H250960   1.588   3.305   6.145 -1.4065 -0.0099  1.8578
 9849TIP3   OH250961   0.656   0.602   4.398 -0.2083  0.0598 -0.6189
 9849TIP3    H150962   0.622   0.638   4.480  0.3100 -1.3869  0.2664
 9849TIP3    H250963   0.582   0.603   4.339 -1.0095 -0.3102  0.3539
 9850TIP3   OH250964   6.595   3.465   2.899 -0.5457 -0.6104 -0.0684
 9850TIP3    H150965   6.598   3.372   2.880  0.6400 -0.4881 -0.5214
 9850TIP3    H250966   6.671   3.502   2.854 -0.9468  0.5617  0.1730
 9851TIP3   OH250967   4.687   6.426   3.028 -0.4800  0.4153 -0.4531
 9851TIP3    H150968   4.628   6.362   3.069 -0.6762  1.1666  0.4604
 9851TIP3    H250969   4.692   6.498   3.090  3.4392 -0.6433  0.7472
 9852TIP3   OH250970   4.885   5.182  14.726 -0.3811 -0.1938 -0.1197
 9852TIP3    H150971   4.834   5.127  14.785 -2.1224  1.8045  0.3716
 9852TIP3    H250972   4.965   5.202  14.775 -0.7060 -0.5368  0.5624
 9853TIP3   OH250973   5.354   5.742   4.645 -0.2810 -0.4163 -0.3375
 9853TIP3    H150974   5.427   5.798   4.619  0.5589 -0.7656  1.1749
 9853TIP3    H250975   5.298   5.799   4.698  0.4886 -0.9178  1.0628
 9854TIP3   OH250976   4.623   5.342  16.318  0.5757  0.1897 -0.3200
 9854TIP3    H150977   4.563   5.343  16.393  1.1987 -1.1113  0.2274
 9854TIP3    H250978   4.581   5.399  16.254 -1.1758 -0.5317  0.1054
 9855TIP3   OH250979   2.449   5.079  17.011  0.3888  0.0715 -0.5665
 9855TIP3    H150980   2.444   5.152  16.950 -0.1441 -0.7855 -1.6037
 9855TIP3    H250981   2.540   5.051  17.008  0.4566  0.2985 -0.6532
 9856TIP3   OH250982   2.008   4.049   4.324 -0.2035  0.1899  0.0477
 9856TIP3    H150983   1.942   4.062   4.256  0.6332  0.9319 -0.6400
 9856TIP3    H250984   2.001   3.956   4.346  0.2334 -0.3282 -1.8231
 9857TIP3   OH250985   5.980   2.272  15.824  0.0590  0.6161 -0.2920
 9857TIP3    H150986   6.055   2.214  15.839 -0.5340  0.2699  1.6551
 9857TIP3    H250987   5.912   2.214  15.788 -0.5612  0.0078  1.7316
 9858TIP3   OH250988   2.234   1.140  13.340 -0.0811  0.1092  0.0059
 9858TIP3    H150989   2.158   1.097  13.299  0.5444 -1.9573  0.8543
 9858TIP3    H250990   2.196   1.198  13.405 -0.9725  0.4210 -0.7702
 9859TIP3   OH250991   6.193   6.674  14.057 -0.3639  0.1828 -0.4723
 9859TIP3    H150992   6.200   6.724  14.138  1.0719  0.9337 -1.0197
 9859TIP3    H250993   6.282   6.645  14.038 -0.6890 -0.0871 -1.7114
 9860TIP3   OH250994   1.743   6.486   5.022  0.1874 -0.1101  0.2123
 9860TIP3    H150995   1.826   6.524   5.050 -0.2514  0.5130  0.7037
 9860TIP3    H250996   1.715   6.433   5.097 -0.1322  0.1391  0.2700
 9861TIP3   OH250997   0.397   2.679   0.632 -0.1335  0.1415 -0.7549
 9861TIP3    H150998   0.445   2.613   0.581 -1.3882 -0.7111 -0.8758
 9861TIP3    H250999   0.451   2.694   0.710  1.4382  0.9001 -1.9314
 9862TIP3   OH251000   0.877   6.681   5.287  0.5493 -0.0634 -0.1109
 9862TIP3    H151001   0.783   6.663   5.286  0.4741  0.1682  1.0358
 9862TIP3    H251002   0.906   6.668   5.197 -0.6447  0.1855 -0.5377
 9863TIP3   OH251003   4.332   5.945  11.151  1.0666  0.2862 -0.0076
 9863TIP3    H151004   4.358   5.854  11.133  0.5450  0.0222  0.5541
 9863TIP3    H251005   4.335   5.988  11.065 -2.3087 -1.1936 -1.0201
 9864TIP3   OH251006   4.653   4.998  11.193  0.1500  0.5074 -0.1780
 9864TIP3    H151007   4.720   5.059  11.164 -0.8676  0.4100 -3.0989
 9864TIP3    H251008   4.573   5.027  11.147 -1.7671  0.4226  2.8510
 9865TIP3   OH251009   5.934   1.152   1.379  0.0348  0.2110  0.5604
 9865TIP3    H151010   5.977   1.100   1.447 -0.5606 -1.4766 -0.3117
 9865TIP3    H251011   5.989   1.140   1.301 -0.5594  0.2099  0.1324
 9866TIP3   OH251012   5.375   2.777  11.489  0.2004  0.3862  0.5233
 9866TIP3    H151013   5.329   2.776  11.405 -0.0989 -0.5116  0.6816
 9866TIP3    H251014   5.321   2.831  11.546 -1.0734 -1.1928  0.9010
 9867TIP3   OH251015   5.382   3.875   5.417 -0.2572  0.7995 -0.3678
 9867TIP3    H151016   5.407   3.828   5.497  0.1037  1.3109 -0.1731
 9867TIP3    H251017   5.448   3.848   5.352 -0.5537  0.3796 -0.4963
 9868TIP3   OH251018   4.640   5.179   4.229  0.0756 -0.2770 -0.1225
 9868TIP3    H151019   4.704   5.247   4.206 -0.7077 -0.1860 -2.1677
 9868TIP3    H251020   4.555   5.219   4.211 -0.4833 -1.1338  0.5589
 9869TIP3   OH251021   4.091   3.262  13.786  0.1627 -0.1924 -0.4754
 9869TIP3    H151022   4.128   3.200  13.850  0.2718 -0.0129 -0.3631
 9869TIP3    H251023   4.165   3.318  13.763  0.1861 -0.4093 -0.9464
 9870TIP3   OH251024   6.457   5.934   2.692 -0.2343  0.4543  0.4794
 9870TIP3    H151025   6.544   5.972   2.703 -0.4939  1.2150  0.0058
 9870TIP3    H251026   6.399   6.010   2.680 -1.0032 -0.0216  1.0526
 9871TIP3   OH251027   2.175   3.079   6.596 -0.4351 -1.0415  0.9444
 9871TIP3    H151028   2.107   3.058   6.533 -0.6724 -1.2793  1.2767
 9871TIP3    H251029   2.191   2.997   6.643 -1.6286 -0.4560  2.4928
 9872TIP3   OH251030   4.957   1.492   4.791  0.1194 -0.1327  0.3028
 9872TIP3    H151031   4.881   1.539   4.757  0.4264  0.6897  0.7134
 9872TIP3    H251032   4.978   1.428   4.723 -0.3831  0.2560 -0.2319
 9873TIP3   OH251033   2.519   2.053   4.040  0.1729  0.1911  0.3014
 9873TIP3    H151034   2.527   1.958   4.053  0.3769  0.0132 -1.0422
 9873TIP3    H251035   2.600   2.089   4.079  1.0349 -0.3751 -0.9025
 9874TIP3   OH251036   5.267   3.611   5.866 -0.6333  0.1983  0.1003
 9874TIP3    H151037   5.299   3.547   5.930 -0.5605 -0.4867 -0.6053
 9874TIP3    H251038   5.219   3.675   5.919 -0.6273 -0.3836  0.8360
 9875TIP3   OH251039   4.988   1.725  15.731  0.0188  0.1787 -0.2911
 9875TIP3    H151040   4.897   1.721  15.760  0.5290  0.7843  1.5550
 9875TIP3    H251041   4.983   1.752  15.640 -1.6630 -0.2977 -0.3745
 9876TIP3   OH251042   3.654   1.777  11.692 -0.4749 -0.1044 -0.4536
 9876TIP3    H151043   3.713   1.736  11.627  0.9443 -0.2952  0.8925
 9876TIP3    H251044   3.672   1.871  11.684  0.7876 -0.2265  0.6183
 9877TIP3   OH251045   3.357   2.891   5.373  0.8098 -0.4597  0.1150
 9877TIP3    H151046   3.386   2.910   5.462  0.4595 -1.1534  0.3831
 9877TIP3    H251047   3.393   2.804   5.354  1.6785  0.0766 -0.7750
 9878TIP3   OH251048   0.238   2.710  16.909  0.4143  0.2991  0.0316
 9878TIP3    H151049   0.271   2.636  16.858  1.5562 -0.3322  1.6272
 9878TIP3    H251050   0.147   2.688  16.927  0.7349 -0.7228  0.4705
 9879TIP3   OH251051   6.606   6.058   4.108 -0.4949 -0.3967  0.0810
 9879TIP3    H151052   6.698   6.037   4.125 -0.7273 -0.4178  1.4271
 9879TIP3    H251053   6.583   6.007   4.031  1.1543  1.0795 -1.4664
 9880TIP3   OH251054   5.195   2.133  14.236 -0.0415 -0.1494 -0.0066
 9880TIP3    H151055   5.285   2.123  14.267  0.6972  0.6590 -1.7736
 9880TIP3    H251056   5.190   2.076  14.159 -1.4727 -1.2119  0.8149
 9881TIP3   OH251057   3.276   4.586  13.205  0.3576  0.1157  0.4924
 9881TIP3    H151058   3.183   4.597  13.225 -0.0291 -0.8282 -0.6705
 9881TIP3    H251059   3.296   4.497  13.235  0.2139 -0.6480 -1.4982
 9882TIP3   OH251060   4.485   5.747  12.598  0.5289  0.4210  0.1006
 9882TIP3    H151061   4.407   5.724  12.547  0.3612  1.2385 -0.0369
 9882TIP3    H251062   4.463   5.721  12.688  0.2816  0.2137 -0.0181
 9883TIP3   OH251063   4.590   1.269   5.317  0.3485 -0.7066  0.3169
 9883TIP3    H151064   4.528   1.307   5.379  1.2031  0.1838  0.6567
 9883TIP3    H251065   4.673   1.313   5.337  1.2167 -2.2578  0.2504
 9884TIP3   OH251066   1.919   3.107   4.825 -0.2110 -0.9669 -0.2435
 9884TIP3    H151067   1.875   3.022   4.816 -0.4352 -0.9179  0.3451
 9884TIP3    H251068   2.012   3.086   4.817 -0.1034 -1.5982  1.9023
 9885TIP3   OH251069   6.034   3.072  11.238  0.3286 -0.6351 -0.2887
 9885TIP3    H151070   5.973   3.129  11.192 -0.9302 -0.5503  1.4027
 9885TIP3    H251071   6.010   3.079  11.330  2.8565 -0.6759  0.4601
 9886TIP3   OH251072   6.543   5.659   5.531  0.4637  0.1043 -0.4001
 9886TIP3    H151073   6.521   5.686   5.620  3.2965  0.3543  0.3294
 9886TIP3    H251074   6.467   5.609   5.501 -1.3939  1.7187  1.3695
 9887TIP3   OH251075   4.483   4.338   2.098 -0.1173 -0.3370  0.0531
 9887TIP3    H151076   4.460   4.422   2.137 -1.1077  0.2011 -1.6017
 9887TIP3    H251077   4.446   4.273   2.159 -2.0341  0.4818 -0.1534
 9888TIP3   OH251078   2.369   0.353   0.783  0.1740 -0.4201 -0.1038
 9888TIP3    H151079   2.404   0.321   0.700  0.7072  0.9284 -0.4182
 9888TIP3    H251080   2.274   0.348   0.773  0.2385 -0.7367 -0.5887
 9889TIP3   OH251081   2.019   1.876  13.051  0.1674 -0.0129  0.5622
 9889TIP3    H151082   2.085   1.829  13.000 -2.4039 -3.2961 -0.0953
 9889TIP3    H251083   1.966   1.922  12.986 -0.3977 -0.4624  0.6961
 9890TIP3   OH251084   5.423   6.542  13.699 -0.3739  1.0062 -0.5428
 9890TIP3    H151085   5.376   6.496  13.629 -1.1027 -1.3092  1.3508
 9890TIP3    H251086   5.509   6.501  13.700 -0.4386  0.8795  0.0509
 9891TIP3   OH251087   0.561   3.740  14.084 -0.1535 -0.1126 -0.1744
 9891TIP3    H151088   0.548   3.651  14.115  0.9605  0.3491  1.8740
 9891TIP3    H251089   0.637   3.735  14.026  0.0823 -0.4587  0.1612
 9892TIP3   OH251090   5.923   5.453  14.183  0.4291 -0.6644  0.2041
 9892TIP3    H151091   5.893   5.375  14.229  0.8507 -0.9267  0.0347
 9892TIP3    H251092   5.987   5.493  14.242  1.0832 -1.0822 -0.2117
 9893TIP3   OH251093   5.369   2.900   5.785 -0.0119  0.0731  0.1904
 9893TIP3    H151094   5.348   2.810   5.809  2.5549 -0.5051  0.4883
 9893TIP3    H251095   5.332   2.910   5.697 -2.6130 -0.3392  1.1425
 9894TIP3   OH251096   4.189   0.344   0.144  0.1729  0.3597  0.1024
 9894TIP3    H151097   4.206   0.374   0.233  3.6965 -2.2590  0.4942
 9894TIP3    H251098   4.217   0.417   0.088  0.4164  1.0225  1.0684
 9895TIP3   OH251099   2.693   1.353  12.696 -0.1423 -0.1065  0.3086
 9895TIP3    H151100   2.780   1.347  12.734  0.6531  1.3593 -1.1473
 9895TIP3    H251101   2.653   1.429  12.738 -0.4501 -0.3441  0.4504
 9896TIP3   OH251102   5.200   0.687  14.370  0.3771 -0.7903  0.5831
 9896TIP3    H151103   5.200   0.632  14.292 -2.0159  1.4388 -1.1423
 9896TIP3    H251104   5.141   0.642  14.431  0.6040 -1.4882  0.2972
 9897TIP3   OH251105   6.217   4.509   0.541  0.0941  0.0854  0.1912
 9897TIP3    H151106   6.143   4.515   0.482  1.8724 -0.2438 -2.2278
 9897TIP3    H251107   6.281   4.571   0.506  1.1207  0.1629  2.0259
 9898TIP3   OH251108   4.454   2.980  15.911  0.1046  0.0411  0.3322
 9898TIP3    H151109   4.369   2.956  15.950  0.3157 -0.0982  0.7102
 9898TIP3    H251110   4.461   2.924  15.834  0.0976 -0.3468  0.6066
 9899TIP3   OH251111   5.490   0.692   5.268  0.1139 -0.0193 -0.1486
 9899TIP3    H151112   5.566   0.659   5.218 -0.2962 -0.1827 -0.6757
 9899TIP3    H251113   5.494   0.644   5.351  0.1982 -0.5352 -0.4455
 9900TIP3   OH251114   2.218   2.507   2.382 -0.2425  0.4781  0.5061
 9900TIP3    H151115   2.209   2.589   2.430  0.6575  0.2970  1.0083
 9900TIP3    H251116   2.278   2.455   2.435  0.5626  0.1634 -0.6680
 9901TIP3   OH251117   5.148   5.770  13.004 -0.1126 -0.4868  0.4664
 9901TIP3    H151118   5.110   5.750  12.918  0.7621  0.3448 -0.1401
 9901TIP3    H251119   5.242   5.775  12.988  0.1648 -1.3915  1.7108
 9902TIP3   OH251120   5.065   6.331  16.608 -0.2923  0.4954 -0.8161
 9902TIP3    H151121   5.049   6.401  16.545 -1.4718  1.1306  0.1323
 9902TIP3    H251122   4.978   6.298  16.629 -0.1327  1.4493  1.7142
 9903TIP3   OH251123   3.958   5.078  13.906 -0.3092  0.2627 -0.2684
 9903TIP3    H151124   3.885   5.026  13.939  0.5112  0.5338  2.2136
 9903TIP3    H251125   3.923   5.167  13.897 -0.6655  0.0931 -0.5602
 9904TIP3   OH251126   4.679   4.056   0.460 -0.3809 -0.4496  0.3265
 9904TIP3    H151127   4.683   3.961   0.473  0.9227 -0.8943 -2.4358
 9904TIP3    H251128   4.761   4.089   0.498  0.0427 -0.7160 -0.3367
 9905TIP3   OH251129   6.315   2.038   4.845  0.0719 -0.5020 -0.1144
 9905TIP3    H151130   6.247   1.971   4.833  0.9282 -1.6411  1.1426
 9905TIP3    H251131   6.267   2.120   4.853 -1.0598 -1.0863 -0.6700
 9906TIP3   OH251132   6.100   4.954  13.100  0.1247 -0.3450  0.4775
 9906TIP3    H151133   6.160   4.944  13.175 -0.0732  0.5044  0.7532
 9906TIP3    H251134   6.156   4.981  13.028 -0.0246  1.3150  0.9495
 9907TIP3   OH251135   3.877   2.767  14.735 -0.2380  0.1450  0.1173
 9907TIP3    H151136   3.939   2.839  14.750  0.3377 -0.5574  1.1929
 9907TIP3    H251137   3.811   2.778  14.804  1.0976 -1.6714  1.7797
 9908TIP3   OH251138   6.440   5.019   0.654  0.0918 -0.7119 -0.2928
 9908TIP3    H151139   6.442   5.096   0.711 -0.3949 -1.3891  0.6782
 9908TIP3    H251140   6.529   4.985   0.655  0.0776 -0.7384  0.0934
 9909TIP3   OH251141   6.456   2.948  10.124 -0.4376 -0.3534 -0.3930
 9909TIP3    H151142   6.483   3.009  10.192  1.5754 -0.1566 -1.2995
 9909TIP3    H251143   6.536   2.927  10.076 -1.7541 -0.4726 -2.7232
 9910TIP3   OH251144   1.918   2.407  14.679  0.1849 -0.0515  0.4080
 9910TIP3    H151145   1.939   2.320  14.646  0.0806  0.0164  0.1585
 9910TIP3    H251146   2.003   2.447  14.696  0.2598  0.1415 -0.3850
 9911TIP3   OH251147   6.535   6.166   2.478  0.0647  0.6106 -0.2239
 9911TIP3    H151148   6.499   6.079   2.498 -0.9774  0.5701 -1.9950
 9911TIP3    H251149   6.627   6.149   2.457 -0.3170 -0.2540 -1.3524
 9912TIP3   OH251150   6.218   2.865  15.756 -0.9900 -0.3632  0.6665
 9912TIP3    H151151   6.298   2.812  15.760 -0.3483  0.4713 -0.4115
 9912TIP3    H251152   6.147   2.802  15.760 -0.3241 -1.0775  2.5613
 9913TIP3   OH251153   6.729   5.573   2.681 -0.7738  0.1380  0.9226
 9913TIP3    H151154   6.666   5.549   2.749 -0.6807 -1.1126  0.5832
 9913TIP3    H251155   6.688   5.544   2.599 -0.1343  0.0873  0.6180
 9914TIP3   OH251156   4.862   2.834   2.513  0.0737  0.5920  0.6469
 9914TIP3    H151157   4.781   2.844   2.463 -0.1080  0.4553  0.9110
 9914TIP3    H251158   4.868   2.740   2.531  0.0706  0.6567  0.9933
 9915TIP3   OH251159   4.978   3.925  14.532 -0.3192  0.2198 -0.4862
 9915TIP3    H151160   5.009   3.901  14.445  1.7203 -0.2985  0.3203
 9915TIP3    H251161   5.052   3.905  14.590 -1.8502 -0.0909  1.4656
 9916TIP3   OH251162   5.994   2.937   6.561  0.1110  0.5094  0.2227
 9916TIP3    H151163   5.944   2.948   6.480  0.4886 -2.1022 -0.4639
 9916TIP3    H251164   5.975   3.016   6.612 -0.8562  1.8163 -2.0152
 9917TIP3   OH251165   4.761   3.421  12.101 -0.3670 -0.0091 -0.2608
 9917TIP3    H151166   4.782   3.514  12.112 -1.6858  0.2799 -0.0107
 9917TIP3    H251167   4.678   3.410  12.147 -1.3329 -0.8215 -2.0996
 9918TIP3   OH251168   3.741   2.928  15.773 -0.5571 -0.1119  0.5404
 9918TIP3    H151169   3.698   2.849  15.805 -0.9875  0.0776  0.4420
 9918TIP3    H251170   3.762   2.978  15.851  1.5762 -1.2470  0.7510
 9919TIP3   OH251171   0.343   5.802   3.991  0.1716  0.0625  0.1531
 9919TIP3    H151172   0.359   5.713   4.023  0.6603 -0.1445 -0.6178
 9919TIP3    H251173   0.371   5.859   4.062  0.0769 -0.4012  0.5675
 9920TIP3   OH251174   3.632   1.152   3.129 -0.2177 -0.2502  0.2707
 9920TIP3    H151175   3.616   1.232   3.078 -1.6258 -1.2334 -0.9241
 9920TIP3    H251176   3.709   1.113   3.088  0.0207  0.1057  0.3739
 9921TIP3   OH251177   0.917   6.642  12.846 -0.5137  0.0831  0.2067
 9921TIP3    H151178   0.825   6.635  12.871 -0.3474  0.8131  1.0496
 9921TIP3    H251179   0.943   6.730  12.873 -0.2095  0.7928 -2.1810
 9922TIP3   OH251180   2.915   1.386   5.207 -0.0208 -0.1348  0.1297
 9922TIP3    H151181   2.851   1.317   5.185 -0.8523  0.6856 -0.1096
 9922TIP3    H251182   2.987   1.339   5.248 -0.5701 -1.1541 -0.0173
 9923TIP3   OH251183   5.932   0.785  13.904  0.3594  0.2427  0.4071
 9923TIP3    H151184   5.847   0.822  13.879  1.2229  0.8094 -1.9407
 9923TIP3    H251185   5.956   0.729  13.831  0.9653 -1.8393  2.1095
 9924TIP3   OH251186   0.040   4.291   3.740 -0.0403  0.4625  0.2602
 9924TIP3    H151187  -0.002   4.225   3.795 -0.9998  0.7498 -0.1018
 9924TIP3    H251188   0.049   4.250   3.655 -0.5722  0.7596  0.0542
 9925TIP3   OH251189   0.409   5.884  13.469 -0.4656  0.5707  0.5095
 9925TIP3    H151190   0.439   5.956  13.413  0.6269 -0.1790  0.1251
 9925TIP3    H251191   0.416   5.919  13.558 -1.2534  1.4123  0.2630
 9926TIP3   OH251192   5.547   5.165  12.556  0.5112  0.2880 -0.2098
 9926TIP3    H151193   5.497   5.245  12.537 -0.5999 -0.8329 -2.2898
 9926TIP3    H251194   5.481   5.099  12.575  1.3506 -0.5456 -0.1201
 9927TIP3   OH251195   4.878   6.440  12.515 -0.1955 -0.0313 -0.1104
 9927TIP3    H151196   4.953   6.456  12.573  0.6218 -0.3548 -1.0498
 9927TIP3    H251197   4.916   6.404  12.435 -1.2350  0.8819 -1.0730
 9928TIP3   OH251198   0.295   4.948  15.618  0.1022 -0.2909 -0.1562
 9928TIP3    H151199   0.287   5.025  15.674 -1.1112 -0.5943  0.1288
 9928TIP3    H251200   0.309   4.983  15.530 -0.0435  0.2473  0.0332
 9929TIP3   OH251201   1.207   2.695   1.655  0.1842  0.3942 -0.2946
 9929TIP3    H151202   1.227   2.621   1.713 -1.0827  0.3073  0.0745
 9929TIP3    H251203   1.273   2.760   1.676  0.2030  0.0724  0.7352
 9930TIP3   OH251204   0.177   6.289  13.139  0.5486  0.4207  0.2565
 9930TIP3    H151205   0.270   6.310  13.125  0.5092  0.8306  0.5875
 9930TIP3    H251206   0.135   6.310  13.055  0.7779  0.0997  0.0597
 9931TIP3   OH251207   6.265   0.997  14.697 -0.1455  0.2210  0.0042
 9931TIP3    H151208   6.196   1.053  14.664 -0.1425 -0.6492 -1.5563
 9931TIP3    H251209   6.257   0.916  14.647  2.0998  0.1564 -0.3776
 9932TIP3   OH251210   4.725   2.300   5.264 -0.6654 -0.0015  0.1218
 9932TIP3    H151211   4.715   2.211   5.298  1.8778  0.5882  2.8921
 9932TIP3    H251212   4.738   2.288   5.170 -0.3364 -2.5810  0.4148
 9933TIP3   OH251213   6.513   0.581  11.727  0.0312 -0.7809  0.8951
 9933TIP3    H151214   6.587   0.603  11.672  0.5260  1.1185  2.2205
 9933TIP3    H251215   6.466   0.663  11.740  0.6059 -0.8188  4.1744
 9934TIP3   OH251216   0.851   6.677  13.164  0.2374 -0.7181  0.2529
 9934TIP3    H151217   0.898   6.594  13.172  0.4820 -0.8146 -1.7333
 9934TIP3    H251218   0.788   6.662  13.093  2.3685  1.6547 -2.3495
 9935TIP3   OH251219   2.407   4.749  13.478  0.7888  0.2103  0.4566
 9935TIP3    H151220   2.415   4.842  13.500  3.9643 -0.0915  0.9554
 9935TIP3    H251221   2.385   4.707  13.561 -0.5593  0.4412  0.2488
 9936TIP3   OH251222   0.127   2.804   0.298  0.2781  0.5833 -0.5584
 9936TIP3    H151223   0.037   2.800   0.331 -0.1682  0.7494 -1.6921
 9936TIP3    H251224   0.142   2.718   0.258  1.4443 -0.2641  1.5857
 9937TIP3   OH251225   4.205   4.703   3.819 -0.0098 -0.5160  0.3448
 9937TIP3    H151226   4.129   4.756   3.794  0.9007  0.1755 -1.0281
 9937TIP3    H251227   4.264   4.709   3.745  0.5413 -2.7049  0.5414
 9938TIP3   OH251228   4.423   4.445  13.572  0.1721  0.2344 -0.2063
 9938TIP3    H151229   4.484   4.461  13.645 -0.6352  0.3256  0.4571
 9938TIP3    H251230   4.398   4.353  13.581  0.2355  0.1869 -0.5013
 9939TIP3   OH251231   6.503   0.552   0.142 -0.0920 -0.4927 -0.0568
 9939TIP3    H151232   6.453   0.633   0.149  0.5936  0.0281 -1.0187
 9939TIP3    H251233   6.523   0.528   0.233  0.9962  1.2309  0.1909
 9940TIP3   OH251234   4.777   0.715   1.432 -0.5984 -0.3646 -0.2564
 9940TIP3    H151235   4.802   0.802   1.402 -2.1262  0.6613  1.2578
 9940TIP3    H251236   4.780   0.721   1.528 -1.2301 -1.8247 -0.1234
 9941TIP3   OH251237   2.034   6.298   1.387 -0.3859  0.0360 -0.2756
 9941TIP3    H151238   2.043   6.233   1.318 -0.7076  0.7115 -0.9592
 9941TIP3    H251239   1.950   6.277   1.429 -0.6336  0.1915 -0.6905
 9942TIP3   OH251240   2.490   1.791   2.403  0.1504  0.0983 -0.2549
 9942TIP3    H151241   2.443   1.753   2.329  1.0696  1.5335 -1.6379
 9942TIP3    H251242   2.432   1.777   2.478 -0.4660 -2.1065 -1.0512
 9943TIP3   OH251243   1.368   5.652   1.132 -0.0432  0.3701  0.0928
 9943TIP3    H151244   1.375   5.636   1.226  1.9938  0.9276  0.0796
 9943TIP3    H251245   1.425   5.587   1.092  0.6231  1.3574 -0.6073
 9944TIP3   OH251246   6.287   6.299   2.533 -0.0087  0.0879  0.3392
 9944TIP3    H151247   6.201   6.337   2.550  1.2022  1.9801  2.9281
 9944TIP3    H251248   6.279   6.208   2.563 -1.6099 -0.4089 -1.4216
 9945TIP3   OH251249   4.119   2.479   4.434 -1.0165 -0.1368 -0.1260
 9945TIP3    H151250   4.088   2.460   4.523 -1.1716 -0.5944 -0.2734
 9945TIP3    H251251   4.199   2.428   4.426 -1.4530 -0.7653 -0.5387
 9946TIP3   OH251252   6.776   1.101   2.129 -0.0351  0.1476  0.3406
 9946TIP3    H151253   6.778   1.185   2.174 -0.4124 -0.4227  1.4634
 9946TIP3    H251254   6.854   1.101   2.073 -0.3673  1.4779 -0.1386
 9947TIP3   OH251255   6.329   2.896   5.629 -0.0503  0.1082 -0.2898
 9947TIP3    H151256   6.275   2.817   5.622 -0.9875  0.7083  0.0540
 9947TIP3    H251257   6.344   2.906   5.723  2.1744 -1.0284 -0.4518
 9948TIP3   OH251258   4.487   6.390  10.426 -0.1422 -0.2671  0.1464
 9948TIP3    H151259   4.397   6.373  10.452 -0.1690 -0.0194  0.2091
 9948TIP3    H251260   4.490   6.483  10.407  0.3222 -0.0852  1.0497
 9949TIP3   OH251261   1.934   2.881   1.560  0.2573  0.7260 -0.4472
 9949TIP3    H151262   1.860   2.825   1.583 -0.1793  1.1408 -0.8211
 9949TIP3    H251263   1.934   2.885   1.464  0.8796  0.5773 -0.4597
 9950TIP3   OH251264   2.996   5.462  15.129  0.1631  0.4894  0.1384
 9950TIP3    H151265   3.018   5.390  15.187 -0.0726 -1.3342 -1.8952
 9950TIP3    H251266   3.080   5.504  15.109  0.2914  0.8716  1.4096
 9951TIP3   OH251267   4.067   0.617  15.247 -0.3244 -0.0670  0.7211
 9951TIP3    H151268   4.077   0.601  15.340  0.0710 -1.9217  0.3977
 9951TIP3    H251269   4.153   0.598  15.210 -0.6375  0.0537 -0.0886
 9952TIP3   OH251270   2.971   0.225  12.951 -0.3544  0.2347  0.3372
 9952TIP3    H151271   2.897   0.180  12.992 -1.8948  2.6525  0.4268
 9952TIP3    H251272   3.043   0.213  13.012 -1.8433  1.3447  2.4340
 9953TIP3   OH251273   4.243   3.272   2.171 -0.2946 -0.4699 -0.2024
 9953TIP3    H151274   4.289   3.261   2.088 -1.7877  1.1327 -1.3194
 9953TIP3    H251275   4.165   3.217   2.163 -1.2656  0.8995 -0.5780
 9954TIP3   OH251276   6.089   5.075   1.460  0.1325 -0.1540 -0.2680
 9954TIP3    H151277   6.018   5.131   1.490 -0.6420 -0.3980 -1.5586
 9954TIP3    H251278   6.169   5.124   1.480 -0.3535 -0.0660  1.5881
 9955TIP3   OH251279   1.442   4.519   1.854  0.1279 -0.5266 -0.4063
 9955TIP3    H151280   1.429   4.580   1.781 -0.4248  0.1869  0.2673
 9955TIP3    H251281   1.531   4.537   1.885 -0.3064  0.5225  0.2911
 9956TIP3   OH251282   2.603   0.273  13.099 -0.4385 -0.0645  0.3528
 9956TIP3    H151283   2.577   0.191  13.055 -0.6083 -0.2514  0.7998
 9956TIP3    H251284   2.668   0.312  13.040 -2.8793  1.2631 -1.6795
 9957TIP3   OH251285   4.334   5.099   3.617 -0.2102  0.0105  0.1824
 9957TIP3    H151286   4.286   5.115   3.698  0.4629 -2.0128  1.0652
 9957TIP3    H251287   4.412   5.153   3.623 -1.6515  2.3053 -0.6493
 9958TIP3   OH251288   1.029   1.721  13.530  0.4407 -0.4581  0.2359
 9958TIP3    H151289   1.098   1.780  13.559  0.7545 -2.0786  3.1225
 9958TIP3    H251290   0.954   1.779  13.511  1.7164  1.0863 -0.2733
 9959TIP3   OH251291   2.145   3.287   6.010  0.0569 -0.1188  0.7058
 9959TIP3    H151292   2.236   3.289   6.039  0.4797  0.4891 -0.5800
 9959TIP3    H251293   2.127   3.377   5.982 -0.6344 -0.4466  0.0738
 9960TIP3   OH251294   6.047   1.998   3.547  0.3452  0.4503  0.1027
 9960TIP3    H151295   6.022   2.000   3.639 -1.0141  0.3585 -0.2322
 9960TIP3    H251296   6.131   2.042   3.543  0.2605  0.7531  1.3401
 9961TIP3   OH251297   3.760   6.232   6.017  0.5867  0.2548  0.4082
 9961TIP3    H151298   3.811   6.298   5.970  1.1204  0.3468  1.1048
 9961TIP3    H251299   3.816   6.154   6.018 -0.0465 -0.2465 -0.4285
 9962TIP3   OH251300   4.324   6.145   0.489 -0.4951 -0.3569 -0.2855
 9962TIP3    H151301   4.346   6.075   0.428 -0.8683 -0.6015 -0.1439
 9962TIP3    H251302   4.243   6.115   0.531 -1.1341  0.5494 -0.8382
 9963TIP3   OH251303   3.178   4.023  16.923 -0.1511 -0.5023  0.3017
 9963TIP3    H151304   3.206   4.056  16.838  0.4928 -1.5627  0.0743
 9963TIP3    H251305   3.114   3.955  16.902 -1.5345  0.6099  0.7557
 9964TIP3   OH251306   0.410   0.646   4.244 -0.1235  0.6622  0.0205
 9964TIP3    H151307   0.416   0.573   4.182  0.4135  1.5761 -1.0438
 9964TIP3    H251308   0.360   0.713   4.197  1.9982  2.1596 -0.2467
 9965TIP3   OH251309   3.212   1.051  14.795  0.1099 -0.1790 -0.0549
 9965TIP3    H151310   3.268   1.018  14.725 -0.0932  0.6541 -0.6234
 9965TIP3    H251311   3.188   1.139  14.767 -1.4223 -0.4839  0.2231
 9966TIP3   OH251312   1.649   2.585  13.241  0.8679 -0.0300 -0.5719
 9966TIP3    H151313   1.673   2.678  13.246  1.2380 -0.0396 -1.8831
 9966TIP3    H251314   1.716   2.546  13.186  0.9123 -1.1662  0.2537
 9967TIP3   OH251315   0.514   3.127  10.989  0.2237 -0.2168  0.2129
 9967TIP3    H151316   0.525   3.138  10.895  0.1158  0.8835  0.3083
 9967TIP3    H251317   0.514   3.217  11.023 -1.3267 -0.5192  1.0851
 9968TIP3   OH251318   1.766   2.222  12.305 -0.4578 -0.1191  0.1031
 9968TIP3    H151319   1.676   2.206  12.331 -0.1046 -0.7300  1.0205
 9968TIP3    H251320   1.817   2.203  12.384  0.3389  1.8747  0.1346
 9969TIP3   OH251321   6.088   4.675  10.730  0.0625  0.2008  0.7067
 9969TIP3    H151322   6.000   4.678  10.766  0.1636 -0.3153  1.0189
 9969TIP3    H251323   6.145   4.669  10.808  0.2774 -1.0808  0.4779
 9970TIP3   OH251324   1.059   2.992   2.978  0.5692 -0.2963 -0.5424
 9970TIP3    H151325   1.150   3.012   2.999  0.6819 -0.9369 -0.4213
 9970TIP3    H251326   1.059   2.968   2.886  0.0851  2.4368 -1.3529
 9971TIP3   OH251327   1.107   6.746   4.755 -0.0687 -0.0470 -0.5700
 9971TIP3    H151328   1.176   6.763   4.819  0.8865 -0.8239 -1.3659
 9971TIP3    H251329   1.051   6.681   4.798  0.3125 -0.2345 -0.3485
 9972TIP3   OH251330   1.817   6.335   2.214  0.0351  0.3735 -0.5173
 9972TIP3    H151331   1.738   6.281   2.216  0.7621 -0.6970  0.2593
 9972TIP3    H251332   1.786   6.422   2.187 -1.1550 -0.4086 -1.7742
 9973TIP3   OH251333   4.463   3.954  17.120 -0.2129 -0.6865 -0.2247
 9973TIP3    H151334   4.521   3.893  17.074  1.4118  1.8254 -1.7839
 9973TIP3    H251335   4.508   3.973  17.202  0.6084  0.3184 -0.8863
 9974TIP3   OH251336   4.472   0.949   6.201  0.2152  0.1236 -0.4879
 9974TIP3    H151337   4.564   0.931   6.221  0.0944  1.6087  1.6503
 9974TIP3    H251338   4.473   1.033   6.155  0.0129 -0.7537 -2.2192
 9975TIP3   OH251339   0.749   5.159  11.490 -0.2870 -0.3092  0.4477
 9975TIP3    H151340   0.761   5.127  11.579  0.1326 -2.6338 -0.3619
 9975TIP3    H251341   0.667   5.117  11.461  0.4948 -1.0281 -0.8060
 9976TIP3   OH251342   0.203   1.598   0.689 -0.0685 -0.7971 -0.3820
 9976TIP3    H151343   0.244   1.511   0.694 -1.0261 -1.1636  2.1445
 9976TIP3    H251344   0.109   1.581   0.690 -0.2798  0.2718 -0.5783
 9977TIP3   OH251345   0.092   4.903  13.070 -0.0823  0.4255  0.3219
 9977TIP3    H151346   0.148   4.968  13.028 -1.7888 -0.6476 -4.2231
 9977TIP3    H251347   0.008   4.948  13.081  0.1358  0.4569  2.1330
 9978TIP3   OH251348   4.169   1.314   0.766  0.3969 -0.1478 -0.0348
 9978TIP3    H151349   4.139   1.223   0.763 -2.9634  0.8600 -1.3714
 9978TIP3    H251350   4.220   1.324   0.685  2.4380 -1.2433  1.0372
 9979TIP3   OH251351   5.182   5.879   2.391 -0.0580  0.4548 -0.3490
 9979TIP3    H151352   5.161   5.915   2.478 -0.8687 -0.2863 -0.2212
 9979TIP3    H251353   5.277   5.873   2.390 -0.0814 -0.6183  0.9686
 9980TIP3   OH251354   5.765   1.354   3.028 -0.0798 -0.1717  0.4164
 9980TIP3    H151355   5.774   1.448   3.016 -1.0010 -0.1712 -0.4080
 9980TIP3    H251356   5.705   1.345   3.103  0.5847 -0.1207  0.9647
 9981TIP3   OH251357   6.762   3.663  13.725 -0.3143  0.5828  0.1414
 9981TIP3    H151358   6.824   3.693  13.659 -0.1388 -3.5086 -1.8623
 9981TIP3    H251359   6.816   3.625  13.794 -0.5827  1.1471  0.6785
 9982TIP3   OH251360   2.611   0.098  13.858  0.0180 -0.2501 -0.2502
 9982TIP3    H151361   2.612   0.003  13.849 -0.5610 -0.2432 -0.3894
 9982TIP3    H251362   2.585   0.130  13.772 -1.6808 -0.0377  0.3146
 9983TIP3   OH251363   6.324   4.896  15.288 -0.8422 -0.4581 -0.3649
 9983TIP3    H151364   6.364   4.982  15.298 -0.1119 -0.8542  0.2229
 9983TIP3    H251365   6.340   4.852  15.371 -0.1308 -1.5968 -1.0768
 9984TIP3   OH251366   5.878   6.746   2.071 -0.5081  0.1186 -0.3059
 9984TIP3    H151367   5.952   6.724   2.015 -0.4907  0.8627 -0.5896
 9984TIP3    H251368   5.811   6.778   2.010 -1.1723 -0.8286 -0.0861
 9985TIP3   OH251369   0.369   5.058   5.426  0.0320  0.7190 -0.2591
 9985TIP3    H151370   0.314   5.081   5.351  0.3988 -0.5177 -0.9309
 9985TIP3    H251371   0.378   5.140   5.474 -2.3809  0.9806 -0.1218
 9986TIP3   OH251372   2.038   5.410   3.904 -0.0066  0.8848  0.1214
 9986TIP3    H151373   2.098   5.374   3.838  1.0650  1.3820  0.8040
 9986TIP3    H251374   2.095   5.455   3.967 -0.8077 -1.1135  2.4108
 9987TIP3   OH251375   6.731   1.028   5.075 -0.3582  0.4575 -0.6796
 9987TIP3    H151376   6.697   1.111   5.108 -0.3078  0.6482 -1.0962
 9987TIP3    H251377   6.824   1.029   5.100 -0.6021  0.0185  0.2951
 9988TIP3   OH251378   0.227   5.419  12.366 -0.5685 -0.0094 -0.3362
 9988TIP3    H151379   0.232   5.339  12.417 -1.9248  0.3452  0.3786
 9988TIP3    H251380   0.173   5.478  12.418  2.7199  2.4769  0.5863
 9989TIP3   OH251381   6.071   3.208  14.744  0.0247  0.1929  0.2972
 9989TIP3    H151382   6.139   3.206  14.677 -0.4010  1.1051 -0.1837
 9989TIP3    H251383   5.993   3.238  14.697  0.0093  2.0628  1.4464
 9990TIP3   OH251384   0.736   4.225   5.454 -0.6248  0.3357  0.0505
 9990TIP3    H151385   0.810   4.190   5.405 -0.5595  1.4384 -0.6726
 9990TIP3    H251386   0.765   4.222   5.546  0.9084  2.0033 -0.3077
 9991TIP3   OH251387   6.430   0.926  14.148 -0.2176  0.3335  0.0986
 9991TIP3    H151388   6.506   0.960  14.195 -0.7928  0.7629  0.7315
 9991TIP3    H251389   6.354   0.961  14.195 -0.8124  0.1529 -0.6972
 9992TIP3   OH251390   3.743   5.182   0.558  0.5382 -0.2845 -0.5812
 9992TIP3    H151391   3.735   5.272   0.589  0.6004 -0.1561 -0.9346
 9992TIP3    H251392   3.653   5.153   0.546  0.5132 -0.3341 -0.2878
 9993TIP3   OH251393   1.121   4.157   0.307  0.0123  0.2943  0.0715
 9993TIP3    H151394   1.152   4.222   0.369 -0.7627  1.3287 -0.5896
 9993TIP3    H251395   1.117   4.203   0.223 -2.5237  0.0535 -0.0341
 9994TIP3   OH251396   0.158   4.653  11.396  0.1085 -0.3550 -0.8803
 9994TIP3    H151397   0.218   4.670  11.323  0.4038  0.2190 -0.5177
 9994TIP3    H251398   0.209   4.597  11.455 -0.0685 -0.6781 -1.0337
 9995TIP3   OH251399   4.596   1.127  11.208  0.0527  0.2893  0.1650
 9995TIP3    H151400   4.535   1.165  11.146 -1.0701 -0.6409  0.6414
 9995TIP3    H251401   4.557   1.042  11.230  0.9830  0.1259  1.2884
 9996TIP3   OH251402   6.352   1.548   1.776 -0.7815 -0.1969 -1.1298
 9996TIP3    H151403   6.282   1.547   1.711 -1.1401 -0.8466 -0.7431
 9996TIP3    H251404   6.426   1.504   1.733 -0.4556  0.8695 -1.6919
 9997TIP3   OH251405   0.826   2.252  14.210 -0.3377  0.1351 -0.6811
 9997TIP3    H151406   0.916   2.223  14.203  0.0281  1.2744 -1.0120
 9997TIP3    H251407   0.828   2.322  14.275 -1.0671 -0.1329 -0.3591
 9998TIP3   OH251408   1.085   4.155  11.810 -0.3069  0.0445  0.3077
 9998TIP3    H151409   1.149   4.086  11.830 -0.9425 -0.5688  0.2854
 9998TIP3    H251410   1.034   4.120  11.737 -1.9117 -0.3303  1.5358
 9999TIP3   OH251411   3.550   1.905   1.403  0.0979  0.4696 -0.0804
 9999TIP3    H151412   3.596   1.976   1.449 -0.4906  0.2671  0.8406
 9999TIP3    H251413   3.614   1.872   1.340  0.9086  0.7961  0.5535
10000TIP3   OH251414   4.372   4.899   4.713 -0.5004 -0.3638 -0.3944
10000TIP3    H151415   4.459   4.874   4.744 -0.6729  1.1830  1.5262
10000TIP3    H251416   4.345   4.969   4.772 -1.5643  1.7141 -3.1610
10001TIP3   OH251417   5.258   5.142   2.831  0.2967  0.6250  0.7111
10001TIP3    H151418   5.310   5.061   2.835  0.5212  0.7406  0.1892
10001TIP3    H251419   5.172   5.117   2.864 -0.1973 -0.2801 -1.1461
10002TIP3   OH251420   6.041   2.771  11.457 -0.2628 -0.1086  0.0143
10002TIP3    H151421   5.959   2.736  11.491 -0.5315  1.1528  0.7294
10002TIP3    H251422   6.103   2.762  11.529 -0.0666 -0.0368 -0.1449
10003TIP3   OH251423   1.000   0.211  11.997 -0.1571  0.5834 -0.2329
10003TIP3    H151424   1.004   0.199  11.902  0.1303 -1.3228 -0.0252
10003TIP3    H251425   1.067   0.276  12.016  0.9770 -0.2725 -1.1838
10004TIP3   OH251426   5.198   2.722   3.857  0.1499  0.3994 -0.6740
10004TIP3    H151427   5.237   2.684   3.937 -1.2376 -0.8213 -0.5220
10004TIP3    H251428   5.187   2.815   3.877 -0.0696  0.1322  0.5332
10005TIP3   OH251429   5.191   0.333  15.890 -0.0520  0.2678 -0.1179
10005TIP3    H151430   5.099   0.358  15.901 -0.6102 -2.5305  3.0814
10005TIP3    H251431   5.239   0.388  15.951 -0.3532 -1.4320  1.7530
10006TIP3   OH251432   0.009   1.289   0.712  0.2214  0.5201 -0.5304
10006TIP3    H151433   0.003   1.330   0.625  0.4825  1.1201 -0.2741
10006TIP3    H251434  -0.008   1.361   0.773  0.2178  0.1383 -0.0811
10007TIP3   OH251435   1.437   0.670   5.282 -0.6757  0.1356 -0.7029
10007TIP3    H151436   1.420   0.643   5.191 -1.0323 -1.3376 -0.2206
10007TIP3    H251437   1.352   0.667   5.324 -0.0409 -2.8569  0.5923
10008TIP3   OH251438   1.441   2.596   4.911 -0.9871 -0.1173 -0.1396
10008TIP3    H151439   1.489   2.676   4.933  0.0371 -0.8106  0.2580
10008TIP3    H251440   1.506   2.526   4.920 -2.0702 -1.1036  0.3935
10009TIP3   OH251441   2.792   1.715  15.873  0.1087  0.5249  0.1012
10009TIP3    H151442   2.850   1.731  15.947  0.9263  1.2505 -0.6709
10009TIP3    H251443   2.828   1.637  15.830 -0.6503 -0.1909  0.7153
10010TIP3   OH251444   2.660   4.240   3.283  0.8926 -0.2834 -0.2164
10010TIP3    H151445   2.710   4.291   3.347 -0.9301  0.5231  0.6276
10010TIP3    H251446   2.668   4.289   3.201  0.5499  0.4647  0.1886
10011TIP3   OH251447   0.610   0.841   3.730  0.3197 -0.3790  0.3184
10011TIP3    H151448   0.536   0.897   3.705 -0.4718 -1.6290 -0.2476
10011TIP3    H251449   0.677   0.859   3.664 -0.6414 -1.4528 -1.0066
10012TIP3   OH251450   2.846   0.939   3.501  0.0872  0.1724  0.3543
10012TIP3    H151451   2.939   0.919   3.508  0.0112  0.2905  2.2492
10012TIP3    H251452   2.842   1.021   3.453  0.9718  0.2283  0.3645
10013TIP3   OH251453   3.024   0.154   6.432  0.6331  0.0255 -0.2992
10013TIP3    H151454   2.947   0.157   6.375  0.2703 -0.2933  0.1623
10013TIP3    H251455   3.028   0.241   6.471  1.5221  0.6111 -1.6146
10014TIP3   OH251456   3.716   6.157  17.080  0.0989 -0.0189 -0.3478
10014TIP3    H151457   3.811   6.165  17.072  0.1963 -1.6886 -1.3119
10014TIP3    H251458   3.682   6.235  17.037  0.9457  3.4650  4.3703
10015TIP3   OH251459   0.705   2.010   0.193 -0.5213  0.4892 -0.0468
10015TIP3    H151460   0.713   2.051   0.279  0.6613  3.5301 -1.4743
10015TIP3    H251461   0.744   1.923   0.204  0.6137  1.2201  2.2568
10016TIP3   OH251462   1.865   4.617   4.477  0.0230 -0.5307  0.2917
10016TIP3    H151463   1.868   4.580   4.389  0.0515 -0.7747  0.3960
10016TIP3    H251464   1.803   4.689   4.470  2.0705  1.2911 -0.6507
10017TIP3   OH251465   3.234   4.622  11.415  0.3209  0.0277 -0.7275
10017TIP3    H151466   3.220   4.614  11.321 -0.0346  0.1950 -0.6915
10017TIP3    H251467   3.254   4.533  11.444 -1.2777 -0.3530 -0.6960
10018TIP3   OH251468   2.500   3.962   0.765 -0.0532  0.0028 -0.2695
10018TIP3    H151469   2.453   3.891   0.723 -0.8233  1.2396 -1.6027
10018TIP3    H251470   2.431   4.019   0.800  0.5399  0.2505  0.5268
10019TIP3   OH251471   4.440   5.343   0.514  0.0878 -0.0863 -0.1322
10019TIP3    H151472   4.419   5.271   0.454  0.5192  0.0594 -0.4624
10019TIP3    H251473   4.534   5.358   0.502  0.5103 -1.0392  1.6517
10020TIP3   OH251474   0.117   0.248  14.718  0.2171  0.2250 -0.1442
10020TIP3    H151475   0.153   0.332  14.689 -0.6178  0.4838 -0.4687
10020TIP3    H251476   0.080   0.209  14.639 -0.0685 -0.1060  0.1463
10021TIP3   OH251477   3.043   5.811  16.727 -0.1352  1.0397 -0.4123
10021TIP3    H151478   3.112   5.761  16.683 -0.0312  1.5409 -0.8380
10021TIP3    H251479   2.969   5.807  16.667  0.0426  1.8212 -0.7044
10022TIP3   OH251480   1.125   2.945  16.761 -0.0069 -0.0252 -0.2522
10022TIP3    H151481   1.172   2.868  16.791  0.7995  0.7970  0.6283
10022TIP3    H251482   1.178   2.979  16.689 -0.0244  0.0913 -0.2096
10023TIP3   OH251483   3.589   5.336  14.694 -0.4202 -0.5644 -0.4315
10023TIP3    H151484   3.541   5.336  14.611 -0.3421 -0.4153 -0.4763
10023TIP3    H251485   3.680   5.347  14.670 -0.2120 -2.0516 -0.4247
10024TIP3   OH251486   3.946   5.544   6.445  0.1337  0.1195  0.1074
10024TIP3    H151487   3.942   5.488   6.523  2.3628  0.2080  0.3682
10024TIP3    H251488   3.914   5.629   6.475  1.6641  0.3595  1.1873
10025TIP3   OH251489   0.155   1.633   4.060  0.0045  0.2787 -0.2789
10025TIP3    H151490   0.146   1.556   4.117 -0.4232  0.0825 -0.6062
10025TIP3    H251491   0.138   1.707   4.118  0.3185  0.1271  0.0165
10026TIP3   OH251492   5.607   5.073  14.735 -0.5961 -0.1105 -0.6847
10026TIP3    H151493   5.667   5.067  14.810  0.8933  0.2601 -1.7866
10026TIP3    H251494   5.567   4.987  14.729 -1.1280  0.0024  0.8240
10027TIP3   OH251495   0.421   1.216  11.289  0.2235  0.1745  0.2390
10027TIP3    H151496   0.500   1.188  11.242 -0.9797 -1.0164 -1.1826
10027TIP3    H251497   0.399   1.142  11.345  0.4590  0.7579  1.1133
10028TIP3   OH251498   4.668   0.680   5.058  0.1568  0.0886  0.3022
10028TIP3    H151499   4.592   0.738   5.067  0.9472  1.3610 -0.9458
10028TIP3    H251500   4.735   0.719   5.114  0.5296  0.0767 -0.1400
10029TIP3   OH251501   1.261   6.330  12.313 -0.6691 -0.2147  0.1496
10029TIP3    H151502   1.290   6.302  12.226  0.7948 -0.0163  0.5507
10029TIP3    H251503   1.177   6.285  12.325  0.0916 -1.9386 -0.5173
10030TIP3   OH251504   4.082   2.432   1.395  0.0307  0.1178 -0.4174
10030TIP3    H151505   4.164   2.384   1.380  0.4963  0.7732  0.0115
10030TIP3    H251506   4.109   2.516   1.430 -0.7163  1.1018 -2.0904
10031TIP3   OH251507   0.321   3.500  12.892 -0.4149 -0.2367 -0.0570
10031TIP3    H151508   0.333   3.473  12.983  1.1190 -0.7508 -0.3774
10031TIP3    H251509   0.292   3.591  12.898 -3.6919 -1.2243  0.9979
10032TIP3   OH251510   0.481   5.712  12.478 -0.3354  0.8425 -0.2433
10032TIP3    H151511   0.470   5.621  12.449  3.1676  0.1856  0.0493
10032TIP3    H251512   0.459   5.765  12.402 -0.2594 -0.3700 -1.1319
10033TIP3   OH251513   2.053   2.104  16.082  0.2572  0.2314  0.3397
10033TIP3    H151514   2.049   2.009  16.086  1.8173  0.1218 -0.2389
10033TIP3    H251515   1.966   2.131  16.053  0.1359 -1.0928 -0.5832
10034TIP3   OH251516   0.383   5.206  11.786 -0.0226 -0.0060  0.1359
10034TIP3    H151517   0.290   5.200  11.808 -0.4679  1.6645 -1.1208
10034TIP3    H251518   0.395   5.295  11.755  1.1834 -1.2230 -3.3535
10035TIP3   OH251519   1.538   3.162  12.248  0.9444  0.1679 -0.0388
10035TIP3    H151520   1.459   3.125  12.209  0.5700 -1.3340  1.9760
10035TIP3    H251521   1.532   3.256  12.230 -0.2932 -0.1625 -1.5665
10036TIP3   OH251522   5.017   6.067   1.601 -0.1599  0.2991  0.2574
10036TIP3    H151523   5.073   6.096   1.529 -1.7772 -0.1119 -1.2233
10036TIP3    H251524   5.073   6.009   1.652  1.3948  1.5422  0.0601
10037TIP3   OH251525   6.720   2.811   4.798 -0.0219  0.0784  0.3691
10037TIP3    H151526   6.774   2.739   4.763  1.6105  2.0240 -1.4366
10037TIP3    H251527   6.764   2.837   4.879  0.4957  0.2436  0.0395
10038TIP3   OH251528   0.798   4.131   2.158 -0.2227  0.4133  0.5668
10038TIP3    H151529   0.717   4.180   2.175 -0.1494  0.5732  0.4538
10038TIP3    H251530   0.792   4.055   2.216  0.8459  1.8527  2.6968
10039TIP3   OH251531   6.437   4.731  15.506  0.4117  0.3165  1.0270
10039TIP3    H151532   6.459   4.641  15.530  3.6161  1.4730  3.0999
10039TIP3    H251533   6.489   4.747  15.427 -2.6139 -0.4781 -1.3015
10040TIP3   OH251534   2.262   0.616  13.333  0.1090 -0.2857  0.2990
10040TIP3    H151535   2.352   0.609  13.364  0.5146  0.5596 -0.6348
10040TIP3    H251536   2.267   0.599  13.239 -0.8891 -1.3607  0.4202
10041TIP3   OH251537   0.007   0.516   6.072  0.5590  0.6207  0.5193
10041TIP3    H151538   0.002   0.428   6.035  5.2015  1.5004 -3.1490
10041TIP3    H251539   0.055   0.504   6.154 -0.9091 -0.4132  1.2663
10042TIP3   OH251540   4.955   5.462  14.218  0.4594  0.4747  0.3638
10042TIP3    H151541   4.999   5.437  14.137  0.8578 -2.3464  1.3547
10042TIP3    H251542   5.008   5.424  14.288 -1.1653  0.7642  1.8350
10043TIP3   OH251543   4.512   6.686  16.875 -0.3811  0.2920  0.2332
10043TIP3    H151544   4.541   6.612  16.822  2.5764  0.8928  0.8309
10043TIP3    H251545   4.481   6.751  16.811  0.7413  0.0301 -0.6166
10044TIP3   OH251546   0.217   5.939   5.458 -0.2599 -0.0861  0.2932
10044TIP3    H151547   0.236   5.850   5.489  0.3818 -0.7674 -1.8511
10044TIP3    H251548   0.271   5.995   5.513  0.8672 -1.2121  0.3901
10045TIP3   OH251549   0.411   6.227  13.922 -0.3751  0.2910 -0.0348
10045TIP3    H151550   0.475   6.198  13.857 -0.5946  1.0995 -0.6230
10045TIP3    H251551   0.330   6.239  13.872 -0.2077  2.2451  0.1052
10046TIP3   OH251552   4.476   4.235   4.751 -0.2470 -0.1392  0.3501
10046TIP3    H151553   4.521   4.288   4.817 -0.7985 -0.3539  0.9058
10046TIP3    H251554   4.493   4.280   4.668  0.1333  0.3446  0.6872
10047TIP3   OH251555   4.044   5.129   2.112  0.1669  0.0424 -0.1439
10047TIP3    H151556   3.986   5.185   2.060 -0.5726 -2.1564 -1.8502
10047TIP3    H251557   3.998   5.119   2.195 -1.0997 -0.2798 -0.8541
10048TIP3   OH251558   4.502   0.893   5.577 -0.4192  0.3813 -0.0848
10048TIP3    H151559   4.489   0.865   5.668  0.6908 -0.6901 -0.2240
10048TIP3    H251560   4.579   0.949   5.581 -1.1305  1.3871 -0.1923
10049TIP3   OH251561   6.698   0.658   0.438 -0.3404 -0.7655 -0.7229
10049TIP3    H151562   6.614   0.612   0.437  0.1583 -1.7271  0.1505
10049TIP3    H251563   6.677   0.744   0.474 -1.4360  0.0847 -3.1898
10050TIP3   OH251564   3.356   5.010  15.914 -0.4083  0.2892 -0.0605
10050TIP3    H151565   3.383   5.090  15.869 -1.3390  0.1038 -0.9868
10050TIP3    H251566   3.262   5.022  15.930 -0.8630 -1.1652 -1.4178
10051TIP3   OH251567   0.237   4.407   4.188  0.0355 -0.5497  0.6936
10051TIP3    H151568   0.238   4.384   4.281  1.9493  1.1321  1.1738
10051TIP3    H251569   0.192   4.334   4.146 -3.0355 -0.2876  3.1501
10052TIP3   OH251570   2.844   1.498   3.856 -0.1332 -0.0570  0.9769
10052TIP3    H151571   2.877   1.557   3.924 -0.2198 -1.1494  2.0170
10052TIP3    H251572   2.873   1.411   3.885  0.7902 -0.4544 -0.9811
10053TIP3   OH251573   4.130   3.266   3.244 -0.3370 -0.3394 -0.7503
10053TIP3    H151574   4.055   3.206   3.252  0.8377 -1.8855 -0.7745
10053TIP3    H251575   4.124   3.323   3.320 -0.6602 -1.4952  0.1121
10054TIP3   OH251576   4.538   3.428  12.973 -0.1600 -0.2325 -0.7475
10054TIP3    H151577   4.453   3.454  13.008 -0.1173  0.0468 -0.8531
10054TIP3    H251578   4.569   3.505  12.925  0.8997  0.2545  0.6705
10055TIP3   OH251579   6.343   6.300   4.198  0.0442  0.0378 -0.0394
10055TIP3    H151580   6.420   6.305   4.254  0.7504  0.1714 -1.0010
10055TIP3    H251581   6.301   6.385   4.207 -0.0930 -0.0922  0.6144
10056TIP3   OH251582   3.073   2.798   4.870 -0.0804 -0.3835  0.6649
10056TIP3    H151583   3.091   2.800   4.964  0.3755 -1.2471  0.6087
10056TIP3    H251584   3.128   2.728   4.837  0.2427  0.3277 -0.3574
10057TIP3   OH251585   5.265   1.312   2.994  0.6855  0.7587  0.0188
10057TIP3    H151586   5.283   1.268   3.077  1.2403 -0.4409 -0.7200
10057TIP3    H251587   5.206   1.384   3.017  0.7228  0.3590  1.4246
10058TIP3   OH251588   2.827   2.094  15.849  0.1471 -0.0233  0.0443
10058TIP3    H151589   2.830   2.160  15.779  2.4259  0.5446  0.5965
10058TIP3    H251590   2.906   2.042  15.836  0.5779  0.0303  2.0921
10059TIP3   OH251591   5.199   6.599   5.104  0.5543  0.5337  0.6828
10059TIP3    H151592   5.213   6.575   5.012 -0.2227 -1.1584  0.9704
10059TIP3    H251593   5.106   6.619   5.110 -0.2293 -2.8058  1.7386
10060TIP3   OH251594   6.033   5.620   4.234 -0.2587  0.0440  0.2558
10060TIP3    H151595   6.070   5.707   4.249  1.3765 -0.7224  0.9102
10060TIP3    H251596   6.057   5.570   4.312 -0.1787 -1.2970 -0.5981
10061TIP3   OH251597   0.621   5.002   0.332 -0.1019 -0.2379 -0.1164
10061TIP3    H151598   0.684   4.989   0.403 -2.1667 -2.2908  1.5467
10061TIP3    H251599   0.643   4.935   0.268 -0.2941 -0.6839  0.2720
10062TIP3   OH251600   2.319   6.041  14.543  0.3488 -0.2368 -0.0080
10062TIP3    H151601   2.348   6.060  14.454  0.4571 -1.0596 -0.1543
10062TIP3    H251602   2.394   6.063  14.598 -0.1692  1.5686  0.0342
10063TIP3   OH251603   1.260   4.092  13.205 -0.7049  0.0550 -0.1522
10063TIP3    H151604   1.348   4.128  13.216 -0.7584 -0.4200  2.4556
10063TIP3    H251605   1.201   4.163  13.230 -1.0748  0.2027 -1.3739
10064TIP3   OH251606   2.560   5.990   0.157  0.1868  0.4860 -0.7813
10064TIP3    H151607   2.640   5.944   0.180 -0.6378  0.0892  1.6004
10064TIP3    H251608   2.497   5.921   0.136 -0.0812  0.6901 -0.6597
10065TIP3   OH251609   3.110   6.269   5.145 -0.3524 -0.4554 -0.6281
10065TIP3    H151610   3.159   6.351   5.142  0.1771 -0.7175  0.3331
10065TIP3    H251611   3.085   6.260   5.237  0.7464 -2.0120 -0.4473
10066TIP3   OH251612   3.594   2.641  10.940 -0.5130 -0.0264  0.4416
10066TIP3    H151613   3.657   2.689  10.995  1.6159 -0.7060 -1.2349
10066TIP3    H251614   3.575   2.700  10.867 -0.2088 -0.5760 -0.0958
10067TIP3   OH251615   2.102   0.154   2.239 -0.3812  0.6866 -0.2190
10067TIP3    H151616   2.182   0.103   2.248 -0.8224 -0.2802 -1.4956
10067TIP3    H251617   2.034   0.100   2.279 -0.8859  0.1541 -1.7539
10068TIP3   OH251618   0.486   0.287  17.123 -0.0678  0.0580  0.0062
10068TIP3    H151619   0.512   0.335  17.044 -1.0976  0.8147  0.1058
10068TIP3    H251620   0.478   0.355  17.190  0.6874 -0.5622  0.7533
10069TIP3   OH251621   4.967   2.723  11.846  0.2420 -0.1477  0.2923
10069TIP3    H151622   4.965   2.794  11.911  2.7136  0.1733  0.1179
10069TIP3    H251623   5.039   2.747  11.788 -0.4655 -1.5894 -1.2533
10070TIP3   OH251624   6.008   2.455  14.436  0.1479 -0.5404  0.1144
10070TIP3    H151625   5.960   2.532  14.467  1.3308 -0.5615  2.1599
10070TIP3    H251626   5.957   2.380  14.467 -0.8468 -0.6312 -1.6249
10071TIP3   OH251627   2.275   4.993  16.393 -0.3704 -0.0665  0.0800
10071TIP3    H151628   2.253   5.083  16.418  0.8488  0.3495 -0.2386
10071TIP3    H251629   2.367   4.983  16.419  0.8295  0.1900 -3.4135
10072TIP3   OH251630   1.695   6.349   2.493  0.0465  0.2357 -0.5618
10072TIP3    H151631   1.694   6.254   2.477 -0.2750  0.1991 -0.3322
10072TIP3    H251632   1.766   6.381   2.439  0.6883 -0.2483 -0.0304
10073TIP3   OH251633   0.633   2.141  12.791 -0.1544 -0.0008  0.0337
10073TIP3    H151634   0.690   2.124  12.717  0.7075 -0.9232  0.8719
10073TIP3    H251635   0.683   2.200  12.847 -0.2837 -0.2979  0.4683
10074TIP3   OH251636   3.755   1.108  12.608  0.3019  0.0188 -0.3640
10074TIP3    H151637   3.782   1.028  12.652  1.8788  0.3208 -0.7162
10074TIP3    H251638   3.745   1.172  12.679  0.2076 -0.1852 -0.1929
10075TIP3   OH251639   2.339   6.113  16.528  0.2303  0.0185 -0.1390
10075TIP3    H151640   2.266   6.172  16.548  0.3701  0.1083  0.1231
10075TIP3    H251641   2.371   6.086  16.614  1.4361  1.1382 -0.2040
10076TIP3   OH251642   4.433   4.417  10.935 -0.1914  0.1066 -0.0069
10076TIP3    H151643   4.501   4.374  10.987  1.0982 -0.8048 -2.2942
10076TIP3    H251644   4.478   4.444  10.854 -2.3915  0.1409 -1.2938
10077TIP3   OH251645   1.718   1.621   3.697  0.1674  0.0638 -0.0253
10077TIP3    H151646   1.793   1.566   3.717  0.7742  0.8523 -0.0729
10077TIP3    H251647   1.734   1.651   3.607 -0.1907  0.2617 -0.0240
10078TIP3   OH251648   3.905   0.645  13.322  0.0791  0.3899  0.1205
10078TIP3    H151649   3.830   0.595  13.288  0.6641  0.1531 -0.8820
10078TIP3    H251650   3.974   0.579  13.333  0.2828  0.6789  0.5743
10079TIP3   OH251651   3.957   1.557   3.854  0.2187 -0.2261 -0.2524
10079TIP3    H151652   3.875   1.510   3.864 -0.2286  0.2170 -1.6562
10079TIP3    H251653   3.939   1.644   3.891 -0.1080  0.0238 -0.9768
10080TIP3   OH251654   6.665   3.934  16.461  0.6225 -0.0687  0.0725
10080TIP3    H151655   6.751   3.903  16.490  1.8723  1.7535 -1.4165
10080TIP3    H251656   6.676   4.029  16.451 -1.0884  0.0171 -1.6498
10081TIP3   OH251657   0.389   2.579   2.594 -0.2251  0.3399  0.0226
10081TIP3    H151658   0.473   2.622   2.608 -0.8875  1.5822  0.2979
10081TIP3    H251659   0.360   2.552   2.681  0.1820 -0.7013 -0.1453
10082TIP3   OH251660   2.708   0.004   3.429 -0.3511 -0.3545  0.1515
10082TIP3    H151661   2.751   0.075   3.381 -0.6040 -0.2672  0.0520
10082TIP3    H251662   2.646   0.049   3.487 -0.1930 -0.4700  0.4120
10083TIP3   OH251663   4.456   0.635   0.886  0.5520 -0.3438 -0.1478
10083TIP3    H151664   4.378   0.684   0.859  0.3263 -0.3404  0.4912
10083TIP3    H251665   4.433   0.598   0.971  1.8068  0.9924  0.8357
10084TIP3   OH251666   5.163   4.858  16.902  0.0899 -0.1767 -0.3679
10084TIP3    H151667   5.179   4.947  16.931  0.1323 -0.4962  0.6174
10084TIP3    H251668   5.083   4.863  16.851  1.1396  0.7608 -2.0111
10085TIP3   OH251669   6.240   4.830   6.496 -0.2665 -0.1880 -0.6186
10085TIP3    H151670   6.328   4.807   6.467 -0.5848 -0.2355 -1.6027
10085TIP3    H251671   6.186   4.819   6.418 -0.9748  0.7799 -0.2862
10086TIP3   OH251672   5.660   0.532  14.080  0.1637 -0.1892 -0.1252
10086TIP3    H151673   5.735   0.546  14.138  0.0046  0.6481 -0.1166
10086TIP3    H251674   5.597   0.600  14.105 -0.9301 -1.3371  0.3913
10087TIP3   OH251675   6.500   4.407  13.282  0.1639  0.5264 -0.3093
10087TIP3    H151676   6.483   4.320  13.318 -1.0613  1.5575  1.8016
10087TIP3    H251677   6.596   4.414  13.282  0.3477  0.8554  4.1931
10088TIP3   OH251678   5.029   2.700  16.276  0.5125 -0.3283  0.1913
10088TIP3    H151679   5.046   2.793  16.262  1.2705 -0.5410 -0.3926
10088TIP3    H251680   4.943   2.685  16.237  0.3909  0.1223  0.2800
10089TIP3   OH251681   2.763   0.685   2.760  0.0524 -0.4717  0.2019
10089TIP3    H151682   2.851   0.675   2.796  0.8676  1.2747 -1.0994
10089TIP3    H251683   2.709   0.710   2.835  1.1002  0.3338  0.7238
10090TIP3   OH251684   6.076   2.022  14.107 -0.1697 -0.4000 -0.0941
10090TIP3    H151685   6.124   2.102  14.127 -0.9872  0.0597  0.0570
10090TIP3    H251686   6.131   1.952  14.142 -1.6968  0.3153  4.5221
10091TIP3   OH251687   6.719   1.550   4.840  0.1797 -0.0957  0.0239
10091TIP3    H151688   6.631   1.587   4.828  0.5501  0.3271 -1.6569
10091TIP3    H251689   6.705   1.471   4.892 -0.7746  1.7225  2.7505
10092TIP3   OH251690   2.841   4.749   3.991 -0.1836  0.3509  0.0279
10092TIP3    H151691   2.834   4.733   4.085  0.3285  1.6885  0.3132
10092TIP3    H251692   2.935   4.741   3.972 -0.1541  1.1367 -0.1686
10093TIP3   OH251693   4.985   2.743   2.931  0.4946  0.0722 -0.6225
10093TIP3    H151694   4.970   2.798   2.854 -2.0284 -0.5318 -0.6365
10093TIP3    H251695   5.013   2.804   2.999  1.7463  0.7572 -1.7043
10094TIP3   OH251696   3.398   1.079  15.007 -0.0995 -0.2132 -0.4290
10094TIP3    H151697   3.341   1.051  14.936 -0.2891  1.1935 -0.8731
10094TIP3    H251698   3.360   1.162  15.037 -0.6507 -1.2703  2.0401
10095TIP3   OH251699   3.968   6.604  12.964  0.0022 -0.3516  0.6809
10095TIP3    H151700   4.026   6.579  13.035 -0.7307  0.9741  1.7865
10095TIP3    H251701   3.949   6.697  12.979  1.0739  0.4432 -2.1268
10096TIP3   OH251702   0.998   2.297  13.171 -0.1024 -0.0402  0.1877
10096TIP3    H151703   1.028   2.229  13.232 -1.3832 -0.3289  0.5266
10096TIP3    H251704   1.078   2.344  13.147  0.6082 -0.7440  1.0786
10097TIP3   OH251705   2.038   3.627   3.275  0.1324  0.1870 -0.1800
10097TIP3    H151706   2.010   3.718   3.284  0.6746  0.2839  0.6591
10097TIP3    H251707   2.035   3.592   3.364  0.1057 -0.5654 -0.4671
10098TIP3   OH251708   4.681   6.393  11.490 -0.4020  0.0139  0.1414
10098TIP3    H151709   4.630   6.311  11.484  0.7860 -0.7037 -0.6490
10098TIP3    H251710   4.619   6.457  11.523 -1.9069 -0.7703 -1.0120
10099TIP3   OH251711   3.393   1.829   5.787  0.1188 -0.3123 -0.1328
10099TIP3    H151712   3.384   1.744   5.830  1.3130 -0.5196 -0.2542
10099TIP3    H251713   3.484   1.832   5.759  0.1648  1.1307  0.1036
10100TIP3   OH251714   0.028   3.292  15.990 -0.4970 -0.3300 -0.4424
10100TIP3    H151715  -0.033   3.307  15.918  0.0238  0.4096 -0.7366
10100TIP3    H251716  -0.003   3.351  16.059 -0.9949 -1.0357 -0.0448
10101TIP3   OH251717   0.093   2.330  12.782 -0.5893  0.3641  0.0962
10101TIP3    H151718   0.079   2.351  12.690 -0.5620 -0.5387 -0.1227
10101TIP3    H251719   0.005   2.332  12.821 -0.6820  0.0611 -0.0987
10102TIP3   OH251720   5.023   2.281  13.345 -0.0105 -0.0781  1.0691
10102TIP3    H151721   4.992   2.243  13.263  1.2127  0.8127  0.1508
10102TIP3    H251722   4.969   2.360  13.357  1.2360  0.9885 -0.0621
10103TIP3   OH251723   6.354   4.655   3.529  0.3089  0.0482 -0.2739
10103TIP3    H151724   6.381   4.590   3.595  0.3299  0.8023  0.4706
10103TIP3    H251725   6.310   4.603   3.461  0.7275 -0.8001  0.0906
10104TIP3   OH251726   4.363   3.171  10.424 -0.1353  0.0152 -0.5594
10104TIP3    H151727   4.455   3.144  10.428 -0.7715 -2.1801  0.8293
10104TIP3    H251728   4.354   3.236  10.494  0.4272  0.5752 -0.9891
10105TIP3   OH251729   0.898   4.346   5.087  0.2340  0.0870 -0.2872
10105TIP3    H151730   0.947   4.352   5.005  1.8534 -0.9311  0.5592
10105TIP3    H251731   0.832   4.280   5.070  0.7530 -0.3383 -0.6846
10106TIP3   OH251732   0.446   5.119   1.833 -0.3987 -0.0635  0.3078
10106TIP3    H151733   0.475   5.133   1.923 -1.8573  1.2145  0.6293
10106TIP3    H251734   0.351   5.133   1.836 -0.6553 -1.1367 -1.2226
10107TIP3   OH251735   3.565   0.453   5.342  0.1626  0.0990  0.0933
10107TIP3    H151736   3.493   0.503   5.380  0.7375 -0.7317  2.4726
10107TIP3    H251737   3.627   0.442   5.415  0.1714 -3.8412 -0.2691
10108TIP3   OH251738   1.896   0.610   4.283  0.2873 -0.4179  1.0184
10108TIP3    H151739   1.945   0.653   4.213 -0.5914 -0.4107  0.3795
10108TIP3    H251740   1.869   0.526   4.244 -2.1348  0.5188  0.4886
10109TIP3   OH251741   0.359   4.242   5.472  0.1974 -0.1616 -0.0042
10109TIP3    H151742   0.448   4.215   5.493  0.4124  0.5162 -0.0361
10109TIP3    H251743   0.370   4.316   5.412 -0.3854 -0.1146 -0.0543
10110TIP3   OH251744   0.690   4.226   0.937  0.4888  0.4820  0.6222
10110TIP3    H151745   0.739   4.277   1.001  0.4791  1.5536 -0.2056
10110TIP3    H251746   0.598   4.238   0.962  0.4615  1.2139  0.1925
10111TIP3   OH251747   0.217   1.336  15.069 -0.4552  0.4647 -0.5590
10111TIP3    H151748   0.216   1.405  15.135  0.2259 -0.0445  0.0006
10111TIP3    H251749   0.229   1.382  14.986 -0.8866  1.0793 -0.2905
10112TIP3   OH251750   1.305   1.737   5.109  0.7686 -0.3470  0.0962
10112TIP3    H151751   1.246   1.731   5.184  1.4155 -3.7938  0.4900
10112TIP3    H251752   1.246   1.755   5.035  0.0464  2.3909  1.2318
10113TIP3   OH251753   6.339   4.927  15.929 -0.3841 -0.2612 -0.2474
10113TIP3    H151754   6.404   4.923  15.860 -0.1625 -1.2919  0.0088
10113TIP3    H251755   6.327   4.837  15.957  0.1149  0.1968  1.5920
10114TIP3   OH251756   5.888   2.263   1.597 -0.0127  0.3049  0.0980
10114TIP3    H151757   5.820   2.269   1.664  0.7875  0.0625  0.9552
10114TIP3    H251758   5.920   2.352   1.586 -0.3584  0.3945 -0.1941
10115TIP3   OH251759   4.293   2.779   5.445 -0.0611  0.0520 -0.6592
10115TIP3    H151760   4.237   2.779   5.523 -0.5249  0.1887 -0.9857
10115TIP3    H251761   4.382   2.786   5.479 -0.3879  3.6058 -0.2171
10116TIP3   OH251762   6.335   1.047   0.429 -0.8909  0.2757  0.0585
10116TIP3    H151763   6.256   1.014   0.471 -1.0116  0.6230  0.1053
10116TIP3    H251764   6.317   1.139   0.412 -0.9756  0.0735 -1.0440
10117TIP3   OH251765   2.885   0.134   0.692  0.5475  0.2553  1.0325
10117TIP3    H151766   2.792   0.128   0.712  0.2082 -0.2633 -0.5370
10117TIP3    H251767   2.889   0.132   0.596  2.2073 -0.3359  1.0800
10118TIP3   OH251768   3.256   3.003  14.296 -0.4704 -0.1458 -0.0500
10118TIP3    H151769   3.208   3.079  14.263 -1.8446 -1.7088 -1.8595
10118TIP3    H251770   3.344   3.011  14.258 -0.5556  0.6007 -0.1003
10119TIP3   OH251771   0.234   3.138  13.916  0.2264  0.5296  0.0456
10119TIP3    H151772   0.309   3.147  13.858  1.6405 -0.8661  1.5296
10119TIP3    H251773   0.164   3.187  13.873  2.1652  2.5489 -1.0501
10120TIP3   OH251774   4.677   5.245  10.955  0.2675  0.3894 -0.1471
10120TIP3    H151775   4.747   5.283  11.008  1.0775 -1.5805  0.3033
10120TIP3    H251776   4.723   5.200  10.884 -0.6963  1.0635 -1.2427
10121TIP3   OH251777   4.161   0.805   2.229 -0.5501 -0.6331  0.2815
10121TIP3    H151778   4.142   0.724   2.182  0.4647 -1.0768  0.6129
10121TIP3    H251779   4.175   0.777   2.320  2.6350 -0.5242 -0.0825
10122TIP3   OH251780   2.269   1.062   5.895 -0.2371 -0.1656  0.2793
10122TIP3    H151781   2.348   1.057   5.949  0.7039  0.5372 -0.9728
10122TIP3    H251782   2.280   0.994   5.829 -0.3476  0.3505 -0.2889
10123TIP3   OH251783   4.814   4.832   3.171 -0.1162  0.2194 -0.3424
10123TIP3    H151784   4.820   4.919   3.211  0.5535  0.0776 -0.1262
10123TIP3    H251785   4.905   4.805   3.158 -0.3177 -0.5644 -0.1633
10124TIP3   OH251786   3.086   5.471  16.556  0.2217 -0.1572  0.2070
10124TIP3    H151787   3.147   5.449  16.626 -1.1777  0.4543  1.7107
10124TIP3    H251788   3.039   5.390  16.538 -0.4247 -0.0108  1.0908
10125TIP3   OH251789   1.874   4.407  12.568  0.5014  0.0377  0.4264
10125TIP3    H151790   1.936   4.420  12.639  0.3660 -1.7310  0.9212
10125TIP3    H251791   1.919   4.350  12.505 -0.4399 -0.9777  0.6239
10126TIP3   OH251792   3.404   6.380   5.081  0.3536 -0.1923  0.2136
10126TIP3    H151793   3.477   6.401   5.141  0.5696  2.0809 -0.7215
10126TIP3    H251794   3.445   6.374   4.995 -0.1616 -2.0445  0.0572
10127TIP3   OH251795   0.031   0.841  15.874 -0.3504 -0.2846  0.9264
10127TIP3    H151796   0.026   0.936  15.859 -0.5780 -0.2347  1.3153
10127TIP3    H251797  -0.045   0.821  15.928 -0.4677 -0.7424  0.5981
10128TIP3   OH251798   2.450   0.937   1.579 -0.7051 -0.3506 -0.0056
10128TIP3    H151799   2.528   0.984   1.608 -1.6211  1.5455 -0.5037
10128TIP3    H251800   2.461   0.929   1.484 -1.6714  1.0713 -0.2663
10129TIP3   OH251801   2.602   1.593  12.803 -0.3264  0.0093  0.8258
10129TIP3    H151802   2.650   1.669  12.772  0.1842 -0.9362 -0.8386
10129TIP3    H251803   2.510   1.612  12.782 -0.1660  0.0510  0.1519
10130TIP3   OH251804   3.434   4.822   2.569 -0.1833 -0.0735 -0.0655
10130TIP3    H151805   3.459   4.894   2.512 -0.4484 -1.3943 -1.9453
10130TIP3    H251806   3.500   4.822   2.638 -0.3718  2.1334  0.1727
10131TIP3   OH251807   1.505   5.097  14.248  0.1882 -0.2474 -0.6127
10131TIP3    H151808   1.483   5.063  14.334  0.7191  1.6854  0.3445
10131TIP3    H251809   1.590   5.058  14.227 -0.6949 -2.0246 -1.0533
10132TIP3   OH251810   1.828   6.091   0.108  0.0164 -0.2648 -0.2022
10132TIP3    H151811   1.920   6.064   0.108  0.3409  0.7357  1.6985
10132TIP3    H251812   1.816   6.137   0.191 -1.4321  2.2840 -1.6993
10133TIP3   OH251813   1.572   3.269   2.920 -0.2291 -0.4392  0.1629
10133TIP3    H151814   1.612   3.198   2.970 -1.6152 -1.3022  0.0884
10133TIP3    H251815   1.562   3.340   2.984  0.9095 -0.3996  0.3084
10134TIP3   OH251816   3.707   2.455   1.366 -0.2127 -0.3252 -0.4583
10134TIP3    H151817   3.729   2.504   1.286  1.1488 -2.0196 -1.1777
10134TIP3    H251818   3.651   2.384   1.336 -1.3833  0.1674  0.4454
10135TIP3   OH251819   4.778   4.518  17.175 -0.7485 -0.0827  0.4507
10135TIP3    H151820   4.861   4.544  17.135 -0.1954 -2.1993  0.1199
10135TIP3    H251821   4.799   4.504  17.267 -0.3219 -2.0160  0.1149
10136TIP3   OH251822   1.354   0.822   3.169  0.9028  0.6443  0.1427
10136TIP3    H151823   1.376   0.744   3.119  2.7751  1.1837  0.0373
10136TIP3    H251824   1.262   0.837   3.151  1.0116 -0.3708 -1.4661
10137TIP3   OH251825   4.424   4.612  13.975 -0.3483 -0.2927  0.0777
10137TIP3    H151826   4.396   4.680  14.037 -0.6360 -0.3373 -0.0025
10137TIP3    H251827   4.390   4.531  14.012  1.4484 -0.6533  1.0956
10138TIP3   OH251828   5.173   1.808   4.964  0.0681  0.2485  0.2710
10138TIP3    H151829   5.096   1.793   4.908 -0.4046 -1.7262  1.3394
10138TIP3    H251830   5.226   1.871   4.916 -1.9822  1.2965 -0.7339
10139TIP3   OH251831   2.682   3.930   3.567  0.3198 -0.1207 -0.6844
10139TIP3    H151832   2.600   3.898   3.605  0.5032  0.2422  0.0556
10139TIP3    H251833   2.709   4.001   3.626  1.3112 -0.4261 -0.7510
10140TIP3   OH251834   4.430   3.369   2.576 -0.0187  0.0864  0.6032
10140TIP3    H151835   4.391   3.439   2.523  1.2447  0.8494  0.6464
10140TIP3    H251836   4.420   3.398   2.666 -1.5293 -0.8789  0.7660
10141TIP3   OH251837   0.957   4.912   6.578  0.0141  0.1088  0.1357
10141TIP3    H151838   0.917   4.992   6.543  0.1227  0.5646  1.0339
10141TIP3    H251839   0.884   4.852   6.592 -0.0367 -0.0850 -0.8309
10142TIP3   OH251840   4.082   4.070   1.614 -0.0761 -0.1222 -0.1236
10142TIP3    H151841   4.052   4.139   1.556 -1.0988  0.7977  1.4106
10142TIP3    H251842   4.008   4.010   1.621  0.2155 -0.4916 -0.1580
10143TIP3   OH251843   5.946   1.442  12.591 -0.0447 -0.4426  0.0904
10143TIP3    H151844   6.034   1.405  12.598  0.1180  0.1758  1.8617
10143TIP3    H251845   5.889   1.378  12.635 -0.5790 -1.0675 -1.4554
10144TIP3   OH251846   4.355   2.669  15.105  0.0765  0.6444  0.0701
10144TIP3    H151847   4.386   2.741  15.160 -2.0423  0.7300  1.2617
10144TIP3    H251848   4.344   2.708  15.018  3.7034  0.4518 -0.6270
10145TIP3   OH251849   3.434   4.223  15.867 -0.1302  0.4731  0.2370
10145TIP3    H151850   3.484   4.142  15.858  0.6242  0.9367  0.1844
10145TIP3    H251851   3.362   4.201  15.925 -2.4265 -1.3859 -2.9594
10146TIP3   OH251852   5.145   4.652   0.141  0.6439 -0.0547  0.2311
10146TIP3    H151853   5.231   4.616   0.122  0.4812 -1.2691  1.6100
10146TIP3    H251854   5.114   4.603   0.217 -1.6090 -0.2161 -0.6946
10147TIP3   OH251855   4.352   0.283  10.988  0.3632 -0.1325 -0.7540
10147TIP3    H151856   4.258   0.278  11.008  0.9858 -0.0076  2.6904
10147TIP3    H251857   4.387   0.198  11.012  1.1691 -0.3024 -2.3373
10148TIP3   OH251858   5.890   0.864   4.240 -0.3121 -0.9607 -0.0344
10148TIP3    H151859   5.818   0.882   4.300 -1.0732 -1.2608 -0.8394
10148TIP3    H251860   5.848   0.851   4.155  0.7868 -0.0237 -0.7518
10149TIP3   OH251861   0.744   4.411  16.762 -0.2882 -0.0128  0.0146
10149TIP3    H151862   0.696   4.494  16.757  0.0957  0.2733  0.8218
10149TIP3    H251863   0.828   4.429  16.720 -1.2514 -0.8370 -2.4470
10150TIP3   OH251864   3.802   6.213  13.284  0.9481  0.1035  0.5708
10150TIP3    H151865   3.721   6.205  13.234  0.6439 -0.6170  1.1478
10150TIP3    H251866   3.773   6.233  13.373  1.4360  0.4769  0.6481
10151TIP3   OH251867   3.146   5.752  15.392  0.0159  0.6892 -0.0985
10151TIP3    H151868   3.139   5.846  15.373  0.7465  1.3554  2.5623
10151TIP3    H251869   3.239   5.737  15.405 -0.2654  0.0044  1.2594
10152TIP3   OH251870   6.277   4.378   4.114  0.3459  0.2519 -0.3199
10152TIP3    H151871   6.234   4.436   4.051  0.3560  0.2592 -0.3200
10152TIP3    H251872   6.260   4.418   4.199 -2.7005 -1.5934  0.0925
10153TIP3   OH251873   1.283   3.328  15.660  0.0782 -0.3640 -0.0484
10153TIP3    H151874   1.294   3.402  15.600 -1.3038  0.6615  0.9245
10153TIP3    H251875   1.329   3.354  15.739 -0.8571 -0.2907  0.4865
10154TIP3   OH251876   4.364   2.611   1.256  0.4932 -0.0418 -0.6556
10154TIP3    H151877   4.436   2.578   1.309 -1.9171 -0.7662  2.4515
10154TIP3    H251878   4.312   2.533   1.236 -0.4775  0.6995 -1.0982
10155TIP3   OH251879   0.235   0.755  16.645 -0.3670  0.0598 -0.0711
10155TIP3    H151880   0.220   0.802  16.728  0.3046  0.3287 -0.0941
10155TIP3    H251881   0.225   0.822  16.578  0.4252  0.1463 -0.1139
10156TIP3   OH251882   6.657   2.821  16.131  0.0809 -0.5949  0.2808
10156TIP3    H151883   6.701   2.839  16.214 -0.7272  0.3304  0.5299
10156TIP3    H251884   6.629   2.730  16.137  0.7825 -0.7935  0.6607
10157TIP3   OH251885   6.374   4.213  11.745 -0.2356 -0.2279 -0.6879
10157TIP3    H151886   6.377   4.234  11.651  0.7843  0.1447 -0.5838
10157TIP3    H251887   6.465   4.190  11.767 -0.2640  0.6742  0.4380
10158TIP3   OH251888   3.332   5.824  11.636  0.6058  0.3188  0.6110
10158TIP3    H151889   3.332   5.741  11.682 -0.6281 -0.1107 -0.1347
10158TIP3    H251890   3.390   5.880  11.688 -0.4455 -0.2455  2.4790
10159TIP3   OH251891   0.825   5.107  11.738 -0.1645  0.2250 -0.3269
10159TIP3    H151892   0.856   5.049  11.808  1.0028 -0.0162 -1.0148
10159TIP3    H251893   0.769   5.170  11.783 -0.2395 -0.5177  0.6745
10160TIP3   OH251894   0.837   1.182   5.653 -0.4910  0.2704  0.2686
10160TIP3    H151895   0.878   1.264   5.626 -0.9374  0.8569  1.2989
10160TIP3    H251896   0.910   1.129   5.685 -0.3069  0.6317  0.4599
10161TIP3   OH251897   6.735   3.256   0.278  0.0740 -0.2193  0.4818
10161TIP3    H151898   6.674   3.320   0.242  1.0081 -0.0425 -0.8705
10161TIP3    H251899   6.795   3.238   0.206  0.0182 -2.4007  0.9320
10162TIP3   OH251900   5.919   4.564   1.596  0.2545  0.0124  0.4613
10162TIP3    H151901   5.896   4.621   1.669 -1.1457  1.4267 -0.9887
10162TIP3    H251902   5.857   4.587   1.527  1.4421 -1.3192 -1.1468
10163TIP3   OH251903   2.377   1.097  14.166 -0.0730 -0.1946  0.2266
10163TIP3    H151904   2.347   1.118  14.254 -1.6794 -1.2954 -0.0163
10163TIP3    H251905   2.472   1.088  14.175 -0.2429 -0.6658  1.9447
10164TIP3   OH251906   1.706   4.564  10.774 -0.4502 -0.0084  0.0110
10164TIP3    H151907   1.638   4.517  10.823 -0.8902  0.6973  0.0865
10164TIP3    H251908   1.658   4.615  10.709  0.1356 -1.0406 -1.2746
10165TIP3   OH251909   6.673   1.164   2.551 -0.8469 -0.4013 -0.4700
10165TIP3    H151910   6.627   1.159   2.467 -1.4060  1.7559 -0.3575
10165TIP3    H251911   6.762   1.192   2.527 -2.0967  4.8472 -0.3192
10166TIP3   OH251912   0.747   6.439   5.765  0.5222  0.2589  0.6000
10166TIP3    H151913   0.690   6.516   5.767  0.9409  0.5748  0.7603
10166TIP3    H251914   0.832   6.474   5.739  0.3782 -0.3885 -0.7965
10167TIP3   OH251915   6.595   1.408  16.039  0.2190 -0.4558  0.1645
10167TIP3    H151916   6.625   1.375  16.123  0.6590  2.1326  1.1174
10167TIP3    H251917   6.669   1.394  15.979  0.8269 -0.1386  0.8294
10168TIP3   OH251918   6.154   4.657  14.144 -0.5575 -0.1191  0.1179
10168TIP3    H151919   6.248   4.658  14.126 -0.3696  5.5742 -0.4643
10168TIP3    H251920   6.148   4.656  14.240  0.1895  0.1304  0.1779
10169TIP3   OH251921   1.163   1.197  16.704 -0.1300 -0.2289 -0.1648
10169TIP3    H151922   1.157   1.215  16.798 -0.6925 -0.4232 -0.1613
10169TIP3    H251923   1.226   1.125  16.698  0.6415  0.4121 -0.0245
10170TIP3   OH251924   1.987   4.801  14.420 -0.1421 -0.4775  0.1943
10170TIP3    H151925   1.951   4.876  14.467 -1.2553 -0.7463 -0.1961
10170TIP3    H251926   2.060   4.837  14.369 -0.1160  0.1660  0.6798
10171TIP3   OH251927   6.323   3.098  14.928 -0.2527 -0.0525 -0.2877
10171TIP3    H151928   6.302   3.121  14.837  0.6345 -0.2863 -0.5706
10171TIP3    H251929   6.264   3.151  14.981 -0.4543  0.4531 -0.9989
10172TIP3   OH251930   6.366   2.289   4.666  0.7413  0.5122  0.5022
10172TIP3    H151931   6.384   2.354   4.598 -0.7012  1.7340  1.2205
10172TIP3    H251932   6.305   2.227   4.625 -0.5630  1.5573  0.8093
10173TIP3   OH251933   2.633   5.383  14.125 -0.2071  0.1889 -0.8666
10173TIP3    H151934   2.603   5.420  14.208 -0.5970 -0.4464 -0.7150
10173TIP3    H251935   2.627   5.455  14.063  0.8706  0.9048 -0.1821
10174TIP3   OH251936   1.598   5.690   6.672 -0.2121  0.5444  0.0302
10174TIP3    H151937   1.683   5.700   6.716  0.7514 -0.1712 -1.6010
10174TIP3    H251938   1.546   5.637   6.732  0.3615  1.2461  1.1888
10175TIP3   OH251939   5.705   3.288   3.275 -0.1062  0.2700  0.0948
10175TIP3    H151940   5.624   3.292   3.223  0.4834  0.8558 -0.8009
10175TIP3    H251941   5.753   3.214   3.240 -0.2857 -0.1403  0.6962
10176TIP3   OH251942   5.692   1.340  13.268 -0.3123 -0.2331 -0.4877
10176TIP3    H151943   5.639   1.281  13.321  1.4348 -1.8319 -0.4195
10176TIP3    H251944   5.728   1.403  13.330 -0.5282 -0.3828 -0.2115
10177TIP3   OH251945   2.332   1.555  11.659  0.6795 -0.5368  0.4974
10177TIP3    H151946   2.314   1.645  11.684 -1.4395 -0.3108 -1.4448
10177TIP3    H251947   2.427   1.548  11.659  0.9248  1.8879  0.1161
10178TIP3   OH251948   3.685   0.148  11.064 -0.3967 -0.9127 -0.3065
10178TIP3    H151949   3.606   0.199  11.076 -1.4954 -2.3851 -0.9913
10178TIP3    H251950   3.715   0.169  10.976  0.6481  0.4906  0.3473
10179TIP3   OH251951   6.388   5.219   1.715 -0.2676 -0.4571  0.3632
10179TIP3    H151952   6.320   5.231   1.781 -0.4890  3.7605 -0.3734
10179TIP3    H251953   6.342   5.226   1.631  0.3579 -3.3744 -0.3313
10180TIP3   OH251954   1.635   3.123  10.521 -0.1278 -0.0184 -0.6118
10180TIP3    H151955   1.728   3.113  10.542 -0.4789 -0.6647  0.7769
10180TIP3    H251956   1.590   3.060  10.579 -1.3640 -0.4221 -1.9481
10181TIP3   OH251957   4.224   3.148  12.874 -0.0659  0.3951  0.1281
10181TIP3    H151958   4.179   3.196  12.944  1.1587  1.8957 -0.0719
10181TIP3    H251959   4.158   3.140  12.805 -1.3395 -1.2406  1.4601
10182TIP3   OH251960   1.378   2.401   1.414 -0.1927 -0.2942  0.8524
10182TIP3    H151961   1.305   2.356   1.458  0.4403 -1.2695  0.9314
10182TIP3    H251962   1.387   2.356   1.330  1.0334 -0.9196  1.3070
10183TIP3   OH251963   5.030   5.066  12.020 -0.2406 -0.4915  0.2580
10183TIP3    H151964   5.090   5.126  12.063 -1.2688 -0.3579  1.5878
10183TIP3    H251965   5.060   4.979  12.047 -0.0890 -0.4663  0.1676
10184TIP3   OH251966   5.836   5.777   2.859 -0.2754  0.0257 -0.5101
10184TIP3    H151967   5.912   5.745   2.908 -0.8943 -0.5223  0.1151
10184TIP3    H251968   5.822   5.866   2.892 -0.1685 -0.0296 -0.3097
10185TIP3   OH251969   1.246   1.696  13.826  0.6761  0.1000  0.6877
10185TIP3    H151970   1.317   1.635  13.805  0.6948  0.5902 -0.7975
10185TIP3    H251971   1.239   1.752  13.749 -1.1181  0.2791  0.9365
10186TIP3   OH251972   5.373   1.526   5.569 -0.5151  0.1845  0.7812
10186TIP3    H151973   5.381   1.440   5.529  0.1410  0.4049  0.4298
10186TIP3    H251974   5.421   1.519   5.651 -2.0901 -0.3489  1.6876
10187TIP3   OH251975   6.512   0.777   2.302 -0.4851  0.0543 -0.8531
10187TIP3    H151976   6.440   0.833   2.333 -0.2746 -0.5533  0.7892
10187TIP3    H251977   6.522   0.801   2.210 -2.0059  0.9973 -0.8099
10188TIP3   OH251978   2.000   5.553   4.325  0.2911  0.0702 -0.2670
10188TIP3    H151979   2.005   5.458   4.323 -1.4582 -0.0571 -0.6998
10188TIP3    H251980   2.089   5.582   4.344  1.2025 -1.5969 -1.7235
10189TIP3   OH251981   4.529   6.445   5.388 -0.2021  0.2260  0.0198
10189TIP3    H151982   4.492   6.382   5.327  0.9183 -1.4118  0.9475
10189TIP3    H251983   4.615   6.467   5.351 -0.3207  0.7250  0.0313
10190TIP3   OH251984   5.700   1.234   1.098 -0.3333 -0.0071 -0.2303
10190TIP3    H151985   5.688   1.226   1.192  1.0012  3.7879  0.4105
10190TIP3    H251986   5.613   1.257   1.065 -0.2183  1.7460  0.5916
10191TIP3   OH251987   1.839   1.194   4.356  0.0604  0.3042  0.2629
10191TIP3    H151988   1.861   1.252   4.430  1.3673  0.4757 -0.2257
10191TIP3    H251989   1.793   1.250   4.295 -1.1696  0.1260  0.9946
10192TIP3   OH251990   1.824   6.559   0.568  0.2274  0.3163 -0.1329
10192TIP3    H151991   1.905   6.541   0.520 -0.0492  1.8387 -1.2424
10192TIP3    H251992   1.756   6.511   0.520  0.2946 -0.0508  0.1340
10193TIP3   OH251993   4.742   1.551  11.657  0.3296 -0.1235  0.0531
10193TIP3    H151994   4.686   1.479  11.628 -1.9753  1.7107 -0.3572
10193TIP3    H251995   4.752   1.538  11.751 -1.1087 -0.3275  0.1962
10194TIP3   OH251996   0.220   5.158   4.584 -0.0571 -0.2350  0.0068
10194TIP3    H151997   0.203   5.222   4.515  0.5329  0.3886  0.4198
10194TIP3    H251998   0.135   5.118   4.601 -0.4677  0.5412 -0.1658
10195TIP3   OH251999   0.326   3.068  16.178 -0.3820 -0.1878 -0.5748
10195TIP3    H152000   0.393   3.061  16.109  0.2755  0.9092 -0.0669
10195TIP3    H252001   0.243   3.062  16.131  0.0621  0.1221 -1.4278
10196TIP3   OH252002   3.522   0.149  16.307 -0.0193  0.3059  0.1528
10196TIP3    H152003   3.566   0.100  16.376  1.9260  0.5600 -0.8330
10196TIP3    H252004   3.569   0.125  16.227 -0.6782  1.8229 -0.7364
10197TIP3   OH252005   5.610   3.655  11.322 -0.0745 -0.1843 -0.2506
10197TIP3    H152006   5.643   3.700  11.243  1.0903  0.3307  0.4970
10197TIP3    H252007   5.666   3.578  11.330  0.9737  0.6571  0.9935
10198TIP3   OH252008   3.808   4.173   3.571 -0.0763 -0.3491  0.2585
10198TIP3    H152009   3.779   4.250   3.523 -0.8878  0.3457  1.7669
10198TIP3    H252010   3.892   4.200   3.610 -0.4594 -0.1375  0.9524
10199TIP3   OH252011   5.975   4.657   4.759  0.8162 -0.1425 -0.3463
10199TIP3    H152012   6.009   4.702   4.836 -0.5008  1.1303 -0.4553
10199TIP3    H252013   5.996   4.716   4.686 -1.4363  0.6700 -0.4276
10200TIP3   OH252014   1.593   4.238   5.022 -0.0447  0.9635  0.8113
10200TIP3    H152015   1.555   4.164   5.068 -1.0945  1.5095  0.8583
10200TIP3    H252016   1.687   4.232   5.040  0.1075 -1.1246 -0.3297
10201TIP3   OH252017   1.217   6.315  16.537 -0.0209 -0.7394 -0.4124
10201TIP3    H152018   1.189   6.396  16.580 -0.5625 -1.8261  1.3541
10201TIP3    H252019   1.313   6.316  16.543 -0.0525 -0.4799  0.0779
10202TIP3   OH252020   3.385   3.803  12.320 -0.2130  0.5955  0.2432
10202TIP3    H152021   3.301   3.770  12.287 -0.2351  1.0710 -0.1820
10202TIP3    H252022   3.380   3.790  12.415 -0.8496  0.8160  0.2423
10203TIP3   OH252023   2.711   4.752  16.794 -0.2598  0.7431  0.2440
10203TIP3    H152024   2.629   4.704  16.780 -0.0029  0.1695  0.7033
10203TIP3    H252025   2.772   4.687  16.827  0.5139  1.0767 -0.4969
10204TIP3   OH252026   1.198   3.894  12.660 -0.1256 -0.2807 -0.3960
10204TIP3    H152027   1.219   3.982  12.689  0.5101 -1.0301  1.6087
10204TIP3    H252028   1.105   3.898  12.636 -0.6824  0.5006  1.6604
10205TIP3   OH252029   4.246   5.314   6.054  0.4828 -0.8842 -0.4551
10205TIP3    H152030   4.227   5.364   6.134  1.0969 -0.8508 -0.3268
10205TIP3    H252031   4.297   5.239   6.084 -0.5806 -1.6921 -0.6295
10206TIP3   OH252032   1.739   3.752  16.647  0.2892 -0.2824  0.5088
10206TIP3    H152033   1.746   3.716  16.559  0.2835 -1.1764  0.8704
10206TIP3    H252034   1.823   3.732  16.688  0.5082  0.6236  0.5392
10207TIP3   OH252035   5.635   0.713   4.627 -0.3348 -0.3522  0.0963
10207TIP3    H152036   5.545   0.685   4.645 -0.9372 -2.2337 -4.4244
10207TIP3    H252037   5.690   0.649   4.673 -1.1869  0.6131  2.6183
10208TIP3   OH252038   1.189   0.125  16.806  0.4900 -0.1104 -0.6506
10208TIP3    H152039   1.282   0.103  16.810  0.9047  0.7507 -3.3709
10208TIP3    H252040   1.183   0.189  16.735 -1.7396  2.4034  1.5480
10209TIP3   OH252041   3.695   2.698   2.785  0.4246  0.3125  0.2804
10209TIP3    H152042   3.603   2.700   2.812  0.1203  0.1977 -0.7020
10209TIP3    H252043   3.729   2.784   2.811 -0.1917  0.6867 -0.1097
10210TIP3   OH252044   1.229   2.709  16.831 -0.0636  0.3216  0.0936
10210TIP3    H152045   1.277   2.642  16.783  0.2101  1.1389 -0.8070
10210TIP3    H252046   1.174   2.660  16.893  1.6201 -0.6518  0.8786
10211TIP3   OH252047   0.730   4.251  13.551 -0.4015  0.0203  0.7373
10211TIP3    H152048   0.789   4.323  13.527  0.0016 -0.7513 -0.6486
10211TIP3    H252049   0.787   4.175  13.559 -0.7085 -0.0633  2.9374
10212TIP3   OH252050   4.982   5.188  15.576  0.3448 -0.4504  0.0353
10212TIP3    H152051   5.032   5.232  15.508 -0.4538  2.6245  1.2562
10212TIP3    H252052   4.891   5.197  15.548  0.1082 -0.4804  0.7727
10213TIP3   OH252053   1.545   0.896  13.796  0.1954  0.3408  0.5655
10213TIP3    H152054   1.538   0.805  13.767 -1.6726  0.3958  0.7366
10213TIP3    H252055   1.515   0.947  13.721  0.7765  0.8008  0.6389
10214TIP3   OH252056   0.645   2.084  11.362  0.0575 -0.5454  0.0729
10214TIP3    H152057   0.575   2.132  11.318  2.2946  0.5107 -2.6397
10214TIP3    H252058   0.689   2.151  11.415 -0.7631 -1.1729  1.6345
10215TIP3   OH252059   0.519   3.903  13.375  0.3131 -0.4370  0.2022
10215TIP3    H152060   0.519   3.852  13.456  0.7464  2.1473  1.9362
10215TIP3    H252061   0.495   3.839  13.307 -0.4309 -2.6334  2.3645
10216TIP3   OH252062   0.612   5.907  16.194  0.5466 -0.5097 -0.0373
10216TIP3    H152063   0.679   5.921  16.128 -0.4356 -1.5913 -1.3248
10216TIP3    H252064   0.530   5.909  16.146 -0.2483 -0.7552  1.2534
10217TIP3   OH252065   3.134   1.281  14.619  0.0711 -0.2649 -0.3745
10217TIP3    H152066   3.049   1.246  14.595 -0.6742  0.1096  1.5375
10217TIP3    H252067   3.147   1.356  14.562 -0.5937 -0.6768 -1.0865
10218TIP3   OH252068   3.972   3.929  15.328  0.0372 -0.4701 -0.6189
10218TIP3    H152069   3.979   3.906  15.235 -0.6861 -0.2443 -0.7325
10218TIP3    H252070   4.063   3.944  15.355  0.3098 -1.0735 -1.1469
10219TIP3   OH252071   4.164   6.767   0.551  0.4705 -0.0007  0.3800
10219TIP3    H152072   4.075   6.790   0.522 -0.3042 -2.5361  0.4165
10219TIP3    H252073   4.157   6.757   0.646  0.1172 -2.3616  0.1875
10220TIP3   OH252074   1.465   4.353  15.364  0.4857 -0.7428  0.2126
10220TIP3    H152075   1.472   4.320  15.454  2.7414  2.6596  1.5109
10220TIP3    H252076   1.555   4.357  15.333  0.4658  3.2333  0.0588
10221TIP3   OH252077   0.238   0.710   3.826 -0.1355  0.1862  0.3249
10221TIP3    H152078   0.316   0.657   3.815  1.3464  1.8727  2.0565
10221TIP3    H252079   0.261   0.774   3.894 -3.1251  0.5391  1.1592
10222TIP3   OH252080   1.861   3.370  10.683 -0.1777 -0.1488  0.0341
10222TIP3    H152081   1.766   3.358  10.684  0.0292 -2.6025 -0.7775
10222TIP3    H252082   1.896   3.284  10.710  1.8066  0.8613  0.8945
10223TIP3   OH252083   3.589   3.314   2.704  0.3659 -0.1708 -0.5017
10223TIP3    H152084   3.593   3.407   2.680  0.2873 -0.2528 -0.8380
10223TIP3    H252085   3.569   3.269   2.622  0.3764 -0.4833 -0.3337
10224TIP3   OH252086   1.253   6.008  14.611  0.0482 -0.2135  0.5501
10224TIP3    H152087   1.281   5.930  14.563 -0.9048  0.2202 -0.7401
10224TIP3    H252088   1.158   6.010  14.602 -0.2367 -0.3673  2.8850
10225TIP3   OH252089   1.274   1.246   2.392  0.0380  0.7964 -0.1255
10225TIP3    H152090   1.323   1.204   2.462 -1.0223  0.8519  0.6604
10225TIP3    H252091   1.289   1.339   2.405  0.3369  0.7803 -0.3461
10226TIP3   OH252092   3.257   5.088   5.614 -0.4491  0.0657  0.6558
10226TIP3    H152093   3.334   5.093   5.669 -0.1164  1.6730  0.0974
10226TIP3    H252094   3.271   5.154   5.546 -0.7601 -1.9077 -1.4666
10227TIP3   OH252095   1.553   4.324   1.191  0.5328 -0.3395  0.0577
10227TIP3    H152096   1.459   4.332   1.173  0.5138  0.4547  0.4446
10227TIP3    H252097   1.595   4.355   1.111  0.4715 -1.2624 -0.3369
10228TIP3   OH252098   1.231   6.614   0.130  0.2802  0.0457  0.2630
10228TIP3    H152099   1.320   6.646   0.147  0.7568 -1.3396  0.5002
10228TIP3    H252100   1.179   6.651   0.201  0.7380  0.5325  0.3580
10229TIP3   OH252101   2.276   2.111   2.672  0.7609 -0.1148 -0.7797
10229TIP3    H152102   2.343   2.064   2.722  0.9667  1.8094  0.9024
10229TIP3    H252103   2.214   2.044   2.645  1.2176 -1.4120  1.1871
10230TIP3   OH252104   2.478   2.129   4.354 -0.0539  0.2547 -0.1588
10230TIP3    H152105   2.485   2.038   4.381  0.3115  0.4427  0.4020
10230TIP3    H252106   2.563   2.150   4.317 -0.5591 -0.0038 -1.5084
10231TIP3   OH252107   6.377   5.166  15.648 -0.3900  0.0851 -0.2185
10231TIP3    H152108   6.415   5.098  15.704 -0.8203 -0.1313 -0.1866
10231TIP3    H252109   6.447   5.190  15.588  0.5102  1.2275  1.2123
10232TIP3   OH252110   0.477   2.893   4.134  0.0738  0.2287 -0.2673
10232TIP3    H152111   0.466   2.802   4.104  0.1176 -0.1088  0.7230
10232TIP3    H252112   0.568   2.898   4.164  0.1852  0.7127 -0.6730
10233TIP3   OH252113   0.957   3.293   4.169 -0.6075  0.9224 -0.8791
10233TIP3    H152114   0.866   3.313   4.148 -0.7104  0.6941 -0.6541
10233TIP3    H252115   1.002   3.378   4.166 -0.5589  0.8687 -2.2957
10234TIP3   OH252116   3.563   4.805  11.211 -0.1833  0.1143  0.0715
10234TIP3    H152117   3.640   4.794  11.266  1.0651  2.4218 -1.0807
10234TIP3    H252118   3.489   4.803  11.272  1.0585  1.3242  1.6894
10235TIP3   OH252119   3.280   5.420   1.066 -0.2998  0.0299 -0.0285
10235TIP3    H152120   3.274   5.502   1.115 -0.1058 -0.4674  0.8375
10235TIP3    H252121   3.374   5.402   1.060 -0.3875 -0.9514  1.1943
10236TIP3   OH252122   4.061   5.836   0.395 -0.0225 -0.4568 -0.4338
10236TIP3    H152123   4.117   5.804   0.324 -1.6413 -0.5821 -1.7260
10236TIP3    H252124   4.044   5.927   0.372  0.2877 -0.1949  0.3718
10237TIP3   OH252125   5.013   6.703   0.541  0.1053 -0.0676 -0.4797
10237TIP3    H152126   5.016   6.650   0.461 -2.4133  0.1391 -0.7963
10237TIP3    H252127   5.030   6.792   0.512 -1.9996  0.1936 -1.0524
10238TIP3   OH252128   2.549   5.179   2.357  0.1410 -0.1805  0.5231
10238TIP3    H152129   2.525   5.219   2.440  0.1023  0.2396  0.3106
10238TIP3    H252130   2.468   5.181   2.305  0.3114  0.0927  0.2653
10239TIP3   OH252131   0.125   3.688   0.667 -0.0348 -0.6176  0.2384
10239TIP3    H152132   0.212   3.707   0.702 -0.3339  0.1332  0.5925
10239TIP3    H252133   0.133   3.700   0.573  0.3793 -1.0881  0.2128
10240TIP3   OH252134   0.399   5.812  12.723 -0.6776  0.6511 -0.0948
10240TIP3    H152135   0.426   5.788  12.635  2.5234  0.1947  0.8499
10240TIP3    H252136   0.323   5.869  12.711 -0.3016  0.6604 -3.1138
10241TIP3   OH252137   1.534   5.873  16.943 -0.1668 -0.8593 -0.3215
10241TIP3    H152138   1.516   5.911  16.857  1.0796 -0.8700 -0.6021
10241TIP3    H252139   1.508   5.941  17.005 -0.8866 -0.7754 -0.7054
10242TIP3   OH252140   4.554   1.912   3.110 -0.3328  0.0550 -0.2437
10242TIP3    H152141   4.548   2.005   3.130  1.6054  0.4484 -1.2661
10242TIP3    H252142   4.616   1.878   3.175 -1.3500 -0.6549  0.3966
10243TIP3   OH252143   4.976   2.795   1.776 -0.4526  0.4251 -0.8884
10243TIP3    H152144   4.964   2.795   1.681  1.3262 -0.5717 -1.1720
10243TIP3    H252145   5.028   2.873   1.793 -0.9695  0.7292 -0.6949
10244TIP3   OH252146   1.212   6.507   0.834  0.3248  0.0965 -0.2901
10244TIP3    H152147   1.164   6.513   0.752 -0.0122  0.5572 -0.0644
10244TIP3    H252148   1.304   6.515   0.809  0.2587 -0.3130 -0.6757
10245TIP3   OH252149   1.483   5.511  16.855 -0.1176  0.3663  0.2370
10245TIP3    H152150   1.448   5.455  16.925  0.9746 -1.3154 -0.5115
10245TIP3    H252151   1.578   5.504  16.864  0.1300 -1.4938 -2.5481
10246TIP3   OH252152   2.037   5.774  15.711 -0.7562  0.2027 -0.1185
10246TIP3    H152153   2.124   5.813  15.700 -0.3112 -1.1962 -1.9255
10246TIP3    H252154   2.006   5.809  15.795  2.1439 -0.3898  1.3353
10247TIP3   OH252155   2.319   0.550   5.592  0.2262  0.2678 -0.2127
10247TIP3    H152156   2.413   0.568   5.587  0.0783  1.9357  1.6865
10247TIP3    H252157   2.313   0.461   5.625  1.1123 -0.1450 -1.1093
10248TIP3   OH252158   1.062   6.085  13.636  0.4507 -0.1698  0.9601
10248TIP3    H152159   1.001   6.013  13.623  1.6628 -0.9634 -0.7198
10248TIP3    H252160   1.061   6.132  13.552  2.0891 -0.2038  0.8923
10249TIP3   OH252161   5.754   3.348  12.064  0.3036 -0.2918 -0.4008
10249TIP3    H152162   5.729   3.417  12.003  0.3344  0.6138  0.5795
10249TIP3    H252163   5.689   3.279  12.051 -0.8569  0.7208 -0.0815
10250TIP3   OH252164   0.149   0.801   2.692 -0.1887  0.1410 -0.3487
10250TIP3    H152165   0.228   0.822   2.743  0.5503 -0.1136 -1.3681
10250TIP3    H252166   0.182   0.762   2.611 -1.3335  0.8510 -1.1844
10251TIP3   OH252167   5.665   0.908   4.412 -0.2184 -0.2951 -0.2247
10251TIP3    H152168   5.608   0.985   4.414  0.4869  0.2372 -0.4262
10251TIP3    H252169   5.619   0.843   4.465 -0.3417  0.5964  0.7800
10252TIP3   OH252170   3.754   0.488   2.116  0.3179  0.5672 -0.1996
10252TIP3    H152171   3.715   0.494   2.203 -0.7372 -1.5328 -0.4584
10252TIP3    H252172   3.817   0.560   2.113  0.1958  0.8614  2.1931
10253TIP3   OH252173   2.655   5.246  14.820  0.3357  0.1609 -0.3817
10253TIP3    H152174   2.640   5.208  14.906  1.5041 -2.1920 -1.1429
10253TIP3    H252175   2.587   5.207  14.764 -0.4151  1.6596 -0.5852
10254TIP3   OH252176   4.676   3.423   6.286  0.0928 -0.2439  0.4920
10254TIP3    H152177   4.679   3.506   6.334  1.0180  0.0714 -0.0860
10254TIP3    H252178   4.736   3.366   6.335 -0.8771 -0.7255  1.1450
10255TIP3   OH252179   3.457   1.630  14.474  0.2722 -0.4062  0.1861
10255TIP3    H152180   3.500   1.708  14.437  0.8740 -1.3161 -1.1323
10255TIP3    H252181   3.466   1.640  14.569 -1.1286  1.9235  0.1551
10256TIP3   OH252182   4.202   1.112   2.728  0.4821 -0.0574  0.4164
10256TIP3    H152183   4.144   1.115   2.652 -0.2779 -0.7989  0.9486
10256TIP3    H252184   4.274   1.171   2.706  0.8247 -1.0569 -1.3267
10257TIP3   OH252185   6.773   3.662   5.122 -0.1083 -0.2252  0.0125
10257TIP3    H152186   6.773   3.756   5.105  0.5933  0.2111  2.1628
10257TIP3    H252187   6.863   3.635   5.104 -0.3308 -0.5189 -0.6878
10258TIP3   OH252188   5.821   0.928  16.635 -0.3468  0.1285 -0.1890
10258TIP3    H152189   5.762   0.980  16.581 -0.2972  0.9529  0.5154
10258TIP3    H252190   5.907   0.967  16.620 -0.4743  1.0602  1.2290
10259TIP3   OH252191   3.718   5.034  15.795  0.3413 -0.3732  0.2170
10259TIP3    H152192   3.659   5.007  15.866 -1.0139  0.8237 -0.4145
10259TIP3    H252193   3.752   4.951  15.760 -1.0608 -1.1091  0.5223
10260TIP3   OH252194   5.928   2.822  16.032  0.0016  0.0224  0.6155
10260TIP3    H152195   5.945   2.913  16.056  0.4590 -0.0598  0.6005
10260TIP3    H252196   5.974   2.810  15.949 -0.2079 -0.1726  0.5256
10261TIP3   OH252197   6.635   3.170  16.495  0.5633 -0.2197 -0.4641
10261TIP3    H152198   6.719   3.217  16.489  0.8968 -0.5562  1.0587
10261TIP3    H252199   6.570   3.232  16.462  0.6284  2.4015  3.6273
10262TIP3   OH252200   4.729   0.655   1.136  0.0656  0.0741 -0.7770
10262TIP3    H152201   4.734   0.721   1.067 -0.0032 -1.0347 -1.8771
10262TIP3    H252202   4.762   0.699   1.214  0.4892  1.2512 -1.5928
10263TIP3   OH252203   1.148   6.660  13.140  0.4015 -0.0399 -0.1390
10263TIP3    H152204   1.191   6.716  13.205 -1.1316  2.1812 -0.9144
10263TIP3    H252205   1.191   6.682  13.057  0.2014 -0.5029 -0.3696
10264TIP3   OH252206   2.099   6.406   2.554  0.0780  0.5445 -0.0786
10264TIP3    H152207   2.018   6.456   2.560  0.6357  1.4739 -0.0801
10264TIP3    H252208   2.137   6.431   2.470  0.8778  0.9181  0.3820
10265TIP3   OH252209   4.673   1.849   0.634 -0.3841 -0.0600  0.2197
10265TIP3    H152210   4.592   1.898   0.623 -1.0145 -0.9705  0.6816
10265TIP3    H252211   4.649   1.758   0.616  0.3554 -0.4491  1.0903
10266TIP3   OH252212   5.035   0.330   4.845 -0.1070  0.3183 -0.7493
10266TIP3    H152213   5.047   0.243   4.807  0.9480 -0.0645  0.3875
10266TIP3    H252214   5.014   0.313   4.937  1.2338  1.2767 -0.2444
10267TIP3   OH252215   3.341   4.995  16.463 -0.5677 -0.3937 -0.0709
10267TIP3    H152216   3.288   4.980  16.384 -1.6732  0.4914  0.4744
10267TIP3    H252217   3.360   4.907  16.495  2.0671 -0.9165 -2.6615
10268TIP3   OH252218   4.589   3.988   4.675  0.4733 -0.3600  0.0264
10268TIP3    H152219   4.561   4.072   4.711 -1.5520 -0.6475 -0.7692
10268TIP3    H252220   4.653   4.011   4.608 -1.8347  0.8208 -1.9231
10269TIP3   OH252221   2.163   2.247  14.027  0.0443  0.3924  1.0289
10269TIP3    H152222   2.257   2.265  14.022 -0.0605  0.7621  0.2394
10269TIP3    H252223   2.155   2.177  14.092  1.0063 -0.5967  0.1112
10270TIP3   OH252224   5.311   0.263  12.205  0.1997 -0.1973 -0.4262
10270TIP3    H152225   5.302   0.356  12.224  0.7774 -0.5187  1.7023
10270TIP3    H252226   5.328   0.222  12.290  0.5426 -2.1841 -1.3731
10271TIP3   OH252227   4.819   6.558   0.956 -0.3190 -0.4588  0.0878
10271TIP3    H152228   4.754   6.628   0.952  0.9236  1.1063  3.2305
10271TIP3    H252229   4.767   6.478   0.967 -1.7407  0.0051 -2.4378
10272TIP3   OH252230   6.089   3.685   2.386 -0.5689  0.9172 -0.2024
10272TIP3    H152231   6.149   3.753   2.356 -0.8735  1.4170  0.2899
10272TIP3    H252232   6.031   3.669   2.312  1.3724 -1.0246 -1.4295
10273TIP3   OH252233   2.886   6.297  11.972  0.5128 -0.2033  0.5480
10273TIP3    H152234   2.964   6.289  12.026  1.2422 -0.2359 -0.4860
10273TIP3    H252235   2.887   6.387  11.940  0.7122 -0.4974 -0.3147
10274TIP3   OH252236   6.653   1.988  13.244  0.9240  0.4004  0.4307
10274TIP3    H152237   6.667   2.080  13.264  1.9034  0.1835  0.7966
10274TIP3    H252238   6.717   1.942  13.298  1.0609 -0.4379 -0.4275
10275TIP3   OH252239   0.689   5.613  12.642 -0.4625 -0.1108 -0.4389
10275TIP3    H152240   0.622   5.625  12.709  0.9199  2.7921  0.6076
10275TIP3    H252241   0.642   5.622  12.559 -1.6002  0.5361  0.2456
10276TIP3   OH252242   3.442   3.817  16.348  0.2754 -0.1797 -0.4411
10276TIP3    H152243   3.400   3.778  16.425  0.4367  0.8043  0.1594
10276TIP3    H252244   3.377   3.808  16.278 -0.0067 -0.7765 -0.1025
10277TIP3   OH252245   0.234   6.053   5.966  0.2633 -0.3287  0.0628
10277TIP3    H152246   0.168   5.983   5.959  0.2716 -0.4350  0.9909
10277TIP3    H252247   0.213   6.098   6.048  0.8782  0.1276 -0.0261
10278TIP3   OH252248   4.713   5.467   0.444  0.1831  0.3371 -0.1457
10278TIP3    H152249   4.752   5.544   0.485 -0.5759  0.7795 -0.2278
10278TIP3    H252250   4.719   5.484   0.350  1.1797 -0.3055 -0.2219
10279TIP3   OH252251   2.994   1.858   5.785 -0.1633 -0.0444  0.3578
10279TIP3    H152252   3.040   1.775   5.797 -0.1012 -0.1956 -0.8615
10279TIP3    H252253   2.927   1.841   5.719 -2.4503  0.0252  2.5212
10280TIP3   OH252254   3.262   3.077   0.480 -0.0167  0.6977  0.0747
10280TIP3    H152255   3.265   3.170   0.460  1.5434  0.2115 -2.4646
10280TIP3    H252256   3.182   3.046   0.438  1.6080  0.2668 -3.0296
10281TIP3   OH252257   4.344   4.816  11.197 -0.1755 -0.1071  0.0317
10281TIP3    H152258   4.324   4.894  11.146 -1.6477  0.4811  1.4461
10281TIP3    H252259   4.436   4.798  11.179 -0.4525  0.4804 -2.2436
10282TIP3   OH252260   0.932   0.822  15.628 -0.5926  0.1568  0.0833
10282TIP3    H152261   0.967   0.743  15.669  0.5750  1.4878  1.8392
10282TIP3    H252262   0.873   0.790  15.560 -0.0243 -2.2029  0.6021
10283TIP3   OH252263   1.060   5.314   0.251  0.6835 -0.1495 -0.1029
10283TIP3    H152264   1.137   5.324   0.195  0.6534 -0.2761 -0.1681
10283TIP3    H252265   1.095   5.295   0.338  0.7578  1.0071  0.1397
10284TIP3   OH252266   0.578   2.561   5.803 -0.2658 -0.0698  0.4530
10284TIP3    H152267   0.605   2.494   5.741 -1.0913  1.3925 -1.5721
10284TIP3    H252268   0.660   2.595   5.839  0.2812 -0.3451 -0.4993
10285TIP3   OH252269   6.727   5.320  16.225 -0.1825 -0.0620 -0.6646
10285TIP3    H152270   6.689   5.277  16.302 -0.6964 -0.8625 -1.3443
10285TIP3    H252271   6.794   5.378  16.260  0.1218 -0.9903  0.3274
10286TIP3   OH252272   4.254   6.492  16.187 -0.8752  0.2528 -0.1894
10286TIP3    H152273   4.283   6.583  16.185  0.9380 -0.2419  1.3231
10286TIP3    H252274   4.237   6.474  16.279  1.0973 -1.5845 -0.1044
10287TIP3   OH252275   1.121   0.867  14.720 -0.7128  0.2846  0.0414
10287TIP3    H152276   1.171   0.813  14.658 -2.9215  0.8845 -2.4585
10287TIP3    H252277   1.150   0.957  14.702 -0.6365  0.3816  0.6342
10288TIP3   OH252278   3.246   4.147   5.066  0.0816  0.2017 -0.2225
10288TIP3    H152279   3.259   4.220   5.006 -0.0930  0.7990  0.4449
10288TIP3    H252280   3.319   4.154   5.129 -0.1630  0.0425  0.0843
10289TIP3   OH252281   6.374   6.235   0.614  0.3974  0.4235 -0.4594
10289TIP3    H152282   6.357   6.325   0.587 -1.0988  0.1543 -0.4926
10289TIP3    H252283   6.406   6.243   0.704 -0.4109  0.9647 -0.2059
10290TIP3   OH252284   1.554   6.684   5.314  0.3028 -0.7060 -0.3800
10290TIP3    H152285   1.528   6.662   5.224 -0.6027  0.7035 -0.4875
10290TIP3    H252286   1.624   6.749   5.304  0.4988 -0.8646 -0.0600
10291TIP3   OH252287   4.065   5.293   0.790 -0.4537 -0.6041 -0.5268
10291TIP3    H152288   4.158   5.271   0.797 -0.7631 -1.5412  1.1955
10291TIP3    H252289   4.027   5.223   0.738 -0.8169 -2.4532  2.0300
10292TIP3   OH252290   6.544   5.826  16.470 -0.3065  0.0638  0.0380
10292TIP3    H152291   6.527   5.863  16.556 -1.1031  0.9968 -0.4897
10292TIP3    H252292   6.612   5.883  16.433 -1.6317  1.1578 -0.8302
10293TIP3   OH252293   1.095   2.472  12.431  0.0381  0.3661 -0.2791
10293TIP3    H152294   1.163   2.414  12.465  1.8064  3.2429  1.5053
10293TIP3    H252295   1.115   2.482  12.338  0.7952 -0.4268 -0.2046
10294TIP3   OH252296   5.121   3.263   6.357 -0.2443 -0.6889  0.0448
10294TIP3    H152297   5.126   3.201   6.284 -0.1073  1.0676 -1.5111
10294TIP3    H252298   5.032   3.254   6.390 -0.6490 -0.7764 -1.0276
10295TIP3   OH252299   2.667   3.802  13.591  0.1738 -0.1487 -0.0222
10295TIP3    H152300   2.584   3.804  13.544 -0.0738  0.2641  0.4252
10295TIP3    H252301   2.674   3.889  13.632  1.6178  0.4419 -1.4108
10296TIP3   OH252302   4.724   0.533   0.852 -0.5098 -0.0101  0.2044
10296TIP3    H152303   4.699   0.565   0.939  3.5187  0.6893  1.2945
10296TIP3    H252304   4.729   0.438   0.862 -1.3347 -0.0452  0.3425
10297TIP3   OH252305   1.737   1.893   3.565 -0.2164  0.2915  0.1772
10297TIP3    H152306   1.780   1.931   3.642 -0.2835  0.9839 -0.1240
10297TIP3    H252307   1.647   1.875   3.594 -0.6204  1.7528 -0.1014
10298TIP3   OH252308   4.127   5.538  15.188  0.9119  0.7496  0.5362
10298TIP3    H152309   4.173   5.621  15.204 -0.1694  1.0510  2.4278
10298TIP3    H252310   4.195   5.477  15.160  1.9120  1.9981  0.1859
10299TIP3   OH252311   4.625   0.362  14.627 -0.2999 -0.3260  0.4420
10299TIP3    H152312   4.624   0.357  14.532 -0.8781  1.5774  0.2999
10299TIP3    H252313   4.533   0.379  14.651 -0.0837 -0.2933  1.2912
10300TIP3   OH252314   1.673   6.506  13.877 -0.1024  0.5113 -0.4228
10300TIP3    H152315   1.653   6.472  13.964  1.1745  2.7030  0.8315
10300TIP3    H252316   1.587   6.516  13.835 -0.7330 -0.7186  0.5040
10301TIP3   OH252317   0.487   5.588   1.471 -0.0283  0.0009  0.4583
10301TIP3    H152318   0.503   5.505   1.516  1.1364 -1.2037 -1.9815
10301TIP3    H252319   0.411   5.571   1.415 -1.4578  1.4755  1.7996
10302TIP3   OH252320   5.920   2.184   3.171  0.2305 -0.8503 -0.1298
10302TIP3    H152321   6.008   2.208   3.202 -0.7099  3.0470 -0.0032
10302TIP3    H252322   5.933   2.158   3.080  1.4229  0.9387 -0.5163
10303TIP3   OH252323   0.479   1.926   0.050  0.1394 -0.8956  0.9730
10303TIP3    H152324   0.530   1.859   0.004 -0.0306 -0.6429  0.4100
10303TIP3    H252325   0.539   1.961   0.115  0.5553 -0.8917  0.5935
10304TIP3   OH252326   1.916   5.454   0.801 -0.7114 -0.4506  0.3082
10304TIP3    H152327   1.842   5.401   0.830 -0.7282  0.4431  1.9945
10304TIP3    H252328   1.988   5.391   0.790 -1.2544 -1.0814  0.3110
10305TIP3   OH252329   4.297   5.238  13.697 -0.1745 -0.4493  0.5356
10305TIP3    H152330   4.259   5.158  13.734 -0.5173 -0.3849  0.3264
10305TIP3    H252331   4.389   5.216  13.681 -0.8633 -1.7362 -2.1428
10306TIP3   OH252332   5.601   3.376   2.114 -0.0266 -0.6618  0.1354
10306TIP3    H152333   5.686   3.338   2.092  0.6741 -0.0392  1.6253
10306TIP3    H252334   5.621   3.444   2.177 -1.5216  0.4129 -0.4901
10307TIP3   OH252335   2.759   4.149   3.720  0.2941  0.3466 -0.9065
10307TIP3    H152336   2.745   4.238   3.687 -0.1991  0.1630 -1.2104
10307TIP3    H252337   2.741   4.156   3.814 -0.5040  0.4128 -1.0588
10308TIP3   OH252338   3.056   0.733  15.637 -0.0447  0.0360 -0.1009
10308TIP3    H152339   3.006   0.655  15.614 -1.6450  1.0913 -0.3756
10308TIP3    H252340   3.132   0.731  15.580  1.3633 -2.6296  1.6438
10309TIP3   OH252341   2.468   0.962  17.067 -0.0919 -0.6989  0.0574
10309TIP3    H152342   2.541   0.958  17.129 -0.7209 -0.3737  0.8484
10309TIP3    H252343   2.406   1.023  17.107  0.3377  1.0706 -1.8426
10310TIP3   OH252344   4.366   0.286   1.604  0.2210  0.0124  0.2857
10310TIP3    H152345   4.387   0.323   1.518  1.5010 -0.4894  0.3694
10310TIP3    H252346   4.299   0.220   1.585 -0.1229  0.4934 -0.2106
10311TIP3   OH252347   4.945   4.232  11.465  0.0624  0.5001  0.2873
10311TIP3    H152348   4.942   4.202  11.373  2.8063 -2.4205  0.9500
10311TIP3    H252349   5.013   4.299  11.466  2.8128 -2.0830  0.5971
10312TIP3   OH252350   6.731   6.749   0.841 -0.3833  0.3304 -0.4899
10312TIP3    H152351   6.669   6.770   0.771 -1.7280  0.1995  0.6140
10312TIP3    H252352   6.743   6.654   0.834 -1.1281  0.1942 -0.0873
10313TIP3   OH252353   5.965   3.160   5.066  0.0934 -0.2413 -0.5716
10313TIP3    H152354   6.003   3.073   5.054  1.1997  0.0753  0.4518
10313TIP3    H252355   6.040   3.217   5.085 -0.5367  1.0651 -1.8283
10314TIP3   OH252356   2.039   5.477  14.600  0.2484  0.0131 -0.6790
10314TIP3    H152357   2.034   5.525  14.518 -0.9192  1.5645  0.2502
10314TIP3    H252358   1.987   5.528  14.661  0.9395 -1.1974  0.9992
10315TIP3   OH252359   0.382   5.167  16.648  0.1675 -0.0718  0.3219
10315TIP3    H152360   0.360   5.079  16.618 -0.3614 -0.5191  1.8998
10315TIP3    H252361   0.333   5.177  16.730  0.5956  1.5172  0.4210
10316TIP3   OH252362   2.948   2.910  14.071  0.2841 -0.1237  0.1285
10316TIP3    H152363   2.881   2.849  14.101  1.5130 -1.1220  0.9680
10316TIP3    H252364   2.901   2.991  14.051 -1.2620 -1.0620 -0.1495
10317TIP3   OH252365   4.109   0.964  11.038 -0.3233  0.2822  0.1038
10317TIP3    H152366   4.114   0.879  10.994 -0.8364  0.3001  0.0050
10317TIP3    H252367   4.034   0.956  11.096  0.5726  0.1200  1.2810
10318TIP3   OH252368   5.285   6.738   1.063  0.0475  0.3675 -0.3991
10318TIP3    H152369   5.192   6.753   1.045  0.1292  1.1557 -0.2154
10318TIP3    H252370   5.297   6.644   1.053 -0.4595  0.4376 -1.8501
10319TIP3   OH252371   2.266   6.642  14.068  0.4003 -0.6374  0.5511
10319TIP3    H152372   2.285   6.705  14.138 -0.2913 -0.4289  0.5592
10319TIP3    H252373   2.184   6.601  14.095  0.4187 -0.9508  0.1334
10320TIP3   OH252374   1.900   5.068   0.264 -0.6862 -0.3826  0.1528
10320TIP3    H152375   1.819   5.103   0.228  0.3450  0.6568 -1.2144
10320TIP3    H252376   1.940   5.021   0.192 -0.3722 -1.4905  1.0159
10321TIP3   OH252377   0.072   5.481  11.653  0.0259  0.3380  0.0083
10321TIP3    H152378   0.134   5.481  11.726 -1.1630 -0.0921  1.0520
10321TIP3    H252379   0.124   5.510  11.578  1.2251  1.0157  1.0589
10322TIP3   OH252380   1.428   3.193  16.247 -0.4122 -0.8206  0.3174
10322TIP3    H152381   1.515   3.154  16.238 -0.6986 -1.0630 -1.7899
10322TIP3    H252382   1.419   3.210  16.341  2.3987  0.3712  0.4572
10323TIP3   OH252383   3.618   0.736   1.524 -0.0829  0.6653  0.1992
10323TIP3    H152384   3.588   0.722   1.434 -1.4485  0.9222  0.5892
10323TIP3    H252385   3.540   0.766   1.570  0.1591 -1.1411  1.8840
10324TIP3   OH252386   3.372   0.727  13.885  0.1639  0.2232  0.1156
10324TIP3    H152387   3.430   0.661  13.922  1.9534  0.4409 -2.0716
10324TIP3    H252388   3.307   0.743  13.953  0.9270 -2.2072  1.5295
10325TIP3   OH252389   5.945   4.429   6.189  0.2623  0.9561 -0.3348
10325TIP3    H152390   5.896   4.503   6.224  0.1085  0.4965  0.4293
10325TIP3    H252391   6.035   4.461   6.183  0.3801  0.9025  0.9215
10326TIP3   OH252392   1.219   4.504   2.026 -0.4203 -0.6167  0.1179
10326TIP3    H152393   1.275   4.478   2.100  0.1032  0.5878  0.1556
10326TIP3    H252394   1.277   4.551   1.967 -1.0379 -0.8033 -0.6476
10327TIP3   OH252395   0.733   5.029   3.084 -0.0160 -0.2164  0.1367
10327TIP3    H152396   0.763   5.112   3.047 -0.5229  0.4194  1.1206
10327TIP3    H252397   0.711   4.975   3.007 -0.7221  0.9506 -0.5089
10328TIP3   OH252398   4.222   5.144  14.071 -0.5526 -0.4734  0.2563
10328TIP3    H152399   4.141   5.195  14.069  0.1829  0.7138 -0.6721
10328TIP3    H252400   4.291   5.209  14.078  0.5359 -1.1425 -2.6766
10329TIP3   OH252401   6.523   1.077  13.383 -0.4713  0.0894 -0.5513
10329TIP3    H152402   6.495   0.989  13.358 -2.3185  0.5408 -0.2220
10329TIP3    H252403   6.598   1.094  13.327 -0.2624 -1.5723 -0.8378
10330TIP3   OH252404   1.003   6.249   2.832 -0.3051  0.1652  0.0826
10330TIP3    H152405   1.031   6.273   2.920 -0.3655 -0.7891  0.3699
10330TIP3    H252406   0.935   6.313   2.811 -3.7922 -2.3243  2.6575
10331TIP3   OH252407   3.169   6.572   1.572  0.3669 -0.0459 -0.0616
10331TIP3    H152408   3.232   6.599   1.639 -1.1302  0.5238  1.1589
10331TIP3    H252409   3.139   6.654   1.533  0.5980 -0.3361 -0.8773
10332TIP3   OH252410   2.590   2.392  15.501  0.1794 -0.0136 -0.3338
10332TIP3    H152411   2.579   2.325  15.433 -1.7330  2.1490 -2.3479
10332TIP3    H252412   2.665   2.444  15.471 -1.8149  2.1202 -2.0654
10333TIP3   OH252413   1.917   4.640  15.883 -0.1924  0.2528  0.1365
10333TIP3    H152414   1.918   4.735  15.880  0.8102  0.2533  0.1778
10333TIP3    H252415   2.004   4.614  15.855 -0.3341 -0.6435  0.4943
10334TIP3   OH252416   5.242   0.791   2.130  0.2258  0.3186 -0.7269
10334TIP3    H152417   5.170   0.733   2.106 -0.9607  2.3074 -2.2660
10334TIP3    H252418   5.313   0.768   2.069  0.6526 -1.0311  0.2108
10335TIP3   OH252419   0.627   0.352   2.285  0.6283 -0.1908 -0.2883
10335TIP3    H152420   0.542   0.373   2.323  1.0673 -0.5619  0.9747
10335TIP3    H252421   0.615   0.267   2.242  0.4866 -0.5323  0.4035
10336TIP3   OH252422   6.384   3.863  16.441 -0.2305 -0.6608  0.7308
10336TIP3    H152423   6.474   3.888  16.418 -0.0906 -1.9438 -0.2509
10336TIP3    H252424   6.329   3.906  16.376 -0.0683 -2.0434 -0.3707
10337TIP3   OH252425   5.079   2.159  16.498  0.2580  0.1495  0.0888
10337TIP3    H152426   5.071   2.252  16.479  0.2749 -0.2342 -2.0241
10337TIP3    H252427   5.089   2.117  16.412  0.5392 -1.7762  0.9986
10338TIP3   OH252428   0.440   3.334  16.576 -0.0088  0.3619 -0.5598
10338TIP3    H152429   0.414   3.328  16.484  0.7644  1.2504 -0.8667
10338TIP3    H252430   0.391   3.409  16.610 -0.0016  0.2793 -0.3697
10339TIP3   OH252431   4.435   2.767  16.618  0.4166 -0.2584 -0.4538
10339TIP3    H152432   4.419   2.704  16.548  0.9707 -0.6799 -0.2045
10339TIP3    H252433   4.383   2.844  16.593  2.5262  0.5882 -2.7029
10340TIP3   OH252434   2.215   0.115  13.053 -0.1389  0.1689  0.4272
10340TIP3    H152435   2.148   0.133  12.988  0.3389 -0.9091 -0.4040
10340TIP3    H252436   2.298   0.128  13.006  0.2232  0.5843  1.1695
10341TIP3   OH252437   2.966   3.596  15.974 -0.1232 -0.1248 -0.7127
10341TIP3    H152438   2.963   3.661  16.044  1.6024  0.0190 -0.7405
10341TIP3    H252439   3.012   3.639  15.903  3.6761 -2.1578  0.2367
10342TIP3   OH252440   0.636   2.836  15.165  0.3698  0.2856  0.7072
10342TIP3    H152441   0.569   2.800  15.223  0.4170  1.3242  1.4395
10342TIP3    H252442   0.635   2.778  15.088  0.6453 -1.4256  1.9257
10343TIP3   OH252443   3.415   1.309   3.465 -0.2321 -0.1203  0.6020
10343TIP3    H152444   3.425   1.294   3.559 -1.6474 -1.7152  0.5611
10343TIP3    H252445   3.320   1.311   3.451 -0.0605  1.5334 -0.6200
10344TIP3   OH252446   6.548   5.592  15.777 -0.3029  0.1339 -0.3129
10344TIP3    H152447   6.554   5.542  15.858 -1.9851  2.1458  1.1407
10344TIP3    H252448   6.628   5.644  15.774 -0.6467  0.7254  0.5504
10345TIP3   OH252449   5.177   4.449  16.167 -0.2859 -0.0048  0.8754
10345TIP3    H152450   5.151   4.370  16.214 -0.1031 -1.3641 -1.1541
10345TIP3    H252451   5.127   4.445  16.085  2.1476  0.2178 -0.7130
10346TIP3   OH252452   6.158   6.140   1.219 -0.0258 -0.6439  0.0402
10346TIP3    H152453   6.150   6.225   1.175 -2.0412  1.1013  3.3771
10346TIP3    H252454   6.099   6.083   1.170  1.4697 -0.2643 -2.3541
10347TIP3   OH252455   6.175   4.172   5.910 -0.1177 -0.1160 -0.3245
10347TIP3    H152456   6.205   4.243   5.854  0.1478 -1.1537 -1.5584
10347TIP3    H252457   6.233   4.099   5.889 -0.5036 -0.7622  0.7639
10348TIP3   OH252458   6.187   1.277   0.808 -0.1186 -0.1650 -0.1857
10348TIP3    H152459   6.266   1.310   0.764 -0.2020  0.9245  0.4430
10348TIP3    H252460   6.198   1.304   0.899 -1.3403  0.2279 -0.1454
10349TIP3   OH252461   2.566   4.409  13.679  0.2267  0.0022 -0.0580
10349TIP3    H152462   2.535   4.471  13.745  0.6850  0.4640 -0.2705
10349TIP3    H252463   2.486   4.365  13.648 -0.0627  0.2435  0.3328
10350TIP3   OH252464   3.085   0.429   6.493  0.0426  0.4913  0.2551
10350TIP3    H152465   3.128   0.436   6.578 -2.0118 -0.2045  1.4171
10350TIP3    H252466   3.001   0.475   6.504  0.4370  1.9263 -1.9546
10351TIP3   OH252467   4.822   1.848  13.537 -0.3788  0.5172 -0.3334
10351TIP3    H152468   4.912   1.821  13.516  1.1814  2.3783  3.1525
10351TIP3    H252469   4.825   1.944  13.533 -0.9208  0.8653  3.8130
10352TIP3   OH252470   2.386   4.056   5.310  0.4285 -0.5363 -0.0030
10352TIP3    H152471   2.311   4.115   5.300  1.7140  1.0818 -0.4409
10352TIP3    H252472   2.432   4.089   5.387  1.5657 -0.5119 -0.6798
10353TIP3   OH252473   0.280   4.835  16.921  0.1443  0.4072  0.0360
10353TIP3    H152474   0.325   4.767  16.871  1.1316  1.0589  0.0052
10353TIP3    H252475   0.343   4.860  16.990 -0.7422  0.3247  0.9007
10354TIP3   OH252476   4.507   0.992   2.418 -0.2000 -0.3410  0.4410
10354TIP3    H152477   4.419   0.998   2.381 -0.1981 -1.4701  0.2329
10354TIP3    H252478   4.523   1.079   2.454 -1.0431  0.1496 -0.3127
10355TIP3   OH252479   3.882   0.102  15.825 -0.6201  0.8200  0.7377
10355TIP3    H152480   3.946   0.140  15.764  1.4352 -0.3400  2.0305
10355TIP3    H252481   3.803   0.090  15.772  0.8418  0.4736 -1.5610
10356TIP3   OH252482   3.839   5.926  14.005 -0.4228 -0.1302  0.6876
10356TIP3    H152483   3.768   5.895  14.062  0.0765  0.6316  1.7637
10356TIP3    H252484   3.795   5.979  13.939 -0.9096 -0.0644  1.0555
10357TIP3   OH252485   0.498   1.587  11.363 -0.1220  0.4104  0.4859
10357TIP3    H152486   0.529   1.670  11.399  0.3060  0.1757  0.6611
10357TIP3    H252487   0.416   1.571  11.409  0.0084  0.5244  0.7620
10358TIP3   OH252488   6.073   4.426  11.154 -0.5974 -0.5034 -0.2424
10358TIP3    H152489   6.126   4.505  11.160 -0.1057 -0.8958  0.8377
10358TIP3    H252490   6.026   4.435  11.071  1.4109 -0.3109 -1.4256
10359TIP3   OH252491   6.532   2.930  15.628 -0.3229  0.0666  0.4939
10359TIP3    H152492   6.502   2.892  15.711 -1.5966  2.1417  1.0512
10359TIP3    H252493   6.493   2.875  15.561 -0.1670 -1.0070  1.2592
10360TIP3   OH252494   4.081   6.033   0.108 -0.0624 -0.1916 -0.1663
10360TIP3    H152495   4.150   5.970   0.127  0.0110 -0.7984 -2.1943
10360TIP3    H252496   4.000   5.985   0.124 -0.0018 -0.6661 -1.1856
10361TIP3   OH252497   1.558   0.541  12.613  0.9754 -0.2155 -0.0265
10361TIP3    H152498   1.518   0.488  12.683  1.5764  0.0383  0.5162
10361TIP3    H252499   1.486   0.596  12.581  0.2878 -1.4386 -0.7064
10362TIP3   OH252500   3.407   3.040   2.642  0.2027  0.0894 -0.4128
10362TIP3    H152501   3.389   2.954   2.605  0.1755  0.0627 -0.3380
10362TIP3    H252502   3.487   3.028   2.694 -0.1414 -0.0387  0.1028
10363TIP3   OH252503   6.560   2.263  11.811  0.3797  0.0977 -1.1366
10363TIP3    H152504   6.642   2.305  11.786  0.4855  0.4262 -0.2689
10363TIP3    H252505   6.579   2.220  11.895 -0.2644 -0.0280 -1.0482
10364TIP3   OH252506   5.792   0.178   4.604 -0.2085  0.0662  0.0899
10364TIP3    H152507   5.766   0.216   4.520  1.3658 -1.7983 -1.3687
10364TIP3    H252508   5.851   0.242   4.643  2.6581 -0.7698 -2.4455
10365TIP3   OH252509   1.897   0.585  12.402  0.6310 -0.4782  0.4760
10365TIP3    H152510   1.944   0.508  12.368  0.6459 -0.7068  1.0068
10365TIP3    H252511   1.966   0.644  12.432  0.8072  1.1164 -2.6857
10366TIP3   OH252512   4.581   2.721  15.484 -0.0170 -0.0200  0.1559
10366TIP3    H152513   4.536   2.639  15.467 -0.2918  0.6048 -2.4980
10366TIP3    H252514   4.669   2.695  15.513  0.0364 -1.2476 -1.0513
10367TIP3   OH252515   6.276   2.385  11.078  0.3200 -0.2358 -0.3751
10367TIP3    H152516   6.214   2.313  11.081 -0.1762  0.1622 -0.7857
10367TIP3    H252517   6.342   2.363  11.143 -0.4911 -0.4586  0.4067
10368TIP3   OH252518   2.218   1.285   4.724  0.1482 -0.4252  0.4986
10368TIP3    H152519   2.273   1.222   4.676 -1.0553 -1.3934  0.3155
10368TIP3    H252520   2.279   1.337   4.775  1.3707 -0.3012 -1.0165
10369TIP3   OH252521   2.283   4.640   3.737  0.2064  0.2562  0.2782
10369TIP3    H152522   2.208   4.653   3.796  1.3038 -0.0132  1.8115
10369TIP3    H252523   2.285   4.546   3.722 -1.8886  0.5657 -2.7995
10370TIP3   OH252524   1.758   4.493  15.469 -0.3331 -0.8908  0.1025
10370TIP3    H152525   1.703   4.435  15.522 -0.2691 -0.0617  1.1016
10370TIP3    H252526   1.838   4.503  15.521  0.1230 -0.8038 -0.5984
10371TIP3   OH252527   3.490   4.195   4.106  0.1791  0.1479  0.0012
10371TIP3    H152528   3.468   4.259   4.173 -0.9016  1.3081 -1.3951
10371TIP3    H252529   3.475   4.110   4.148 -0.2815  0.8338  1.2774
10372TIP3   OH252530   1.116   1.999  14.311  0.5873  0.0640  0.5790
10372TIP3    H152531   1.123   1.904  14.307 -1.4160 -0.0943 -0.9727
10372TIP3    H252532   1.179   2.030  14.246  0.6362 -0.2617  0.4666
10373TIP3   OH252533   5.588   5.529  14.210  0.9545  0.2028  0.2667
10373TIP3    H152534   5.657   5.566  14.155  1.2895  1.1127  1.2829
10373TIP3    H252535   5.524   5.495  14.147  1.8951  0.1200 -0.6876
10374TIP3   OH252536   3.215   4.696   1.106 -0.3637 -0.0361  0.3396
10374TIP3    H152537   3.247   4.766   1.163  0.1007  1.0779 -1.2058
10374TIP3    H252538   3.164   4.639   1.163 -2.1415  2.4355  1.3844
10375TIP3   OH252539   2.118   4.323   5.812 -0.0805  0.5877 -0.0275
10375TIP3    H152540   2.186   4.388   5.829  1.8811 -1.2512 -0.3532
10375TIP3    H252541   2.098   4.286   5.898  0.7644 -0.1758 -0.1443
10376TIP3   OH252542   5.263   3.128  14.864 -0.3391 -0.2441  0.0829
10376TIP3    H152543   5.319   3.130  14.942  1.2715 -1.5506 -0.9680
10376TIP3    H252544   5.201   3.200  14.877  1.8691  1.6042  1.1061
10377TIP3   OH252545   3.007   1.397   1.280  0.7879 -0.1546  0.2404
10377TIP3    H152546   3.084   1.347   1.254  1.0107  0.5164 -0.4084
10377TIP3    H252547   3.038   1.455   1.349  0.7097 -0.3458  0.4379
10378TIP3   OH252548   2.461   2.848  13.190 -0.3454  0.3708  0.0696
10378TIP3    H152549   2.552   2.827  13.170 -0.3137  0.9477 -0.4485
10378TIP3    H252550   2.417   2.764  13.197 -0.0181  0.1066 -0.8992
10379TIP3   OH252551   5.506   3.630   2.638  0.1893 -1.2674 -0.5661
10379TIP3    H152552   5.553   3.645   2.556 -0.1020 -1.4204 -0.7603
10379TIP3    H252553   5.419   3.667   2.623  0.0053 -1.6566 -0.4672
10380TIP3   OH252554   4.059   4.218   1.299  0.0705  0.7847 -0.3056
10380TIP3    H152555   4.024   4.214   1.210 -1.2668  0.6427  0.2065
10380TIP3    H252556   4.130   4.153   1.299 -0.9831 -0.4246 -0.8276
10381TIP3   OH252557   4.113   4.576  14.455 -0.4213 -0.2035 -0.0462
10381TIP3    H152558   4.019   4.554  14.451 -0.8737  1.7130 -2.4544
10381TIP3    H252559   4.155   4.510  14.399 -0.6935  0.2820 -0.8476
10382TIP3   OH252560   6.303   1.398  13.388 -0.1331 -0.2644  0.1287
10382TIP3    H152561   6.268   1.365  13.306  1.4083 -1.4919 -0.0751
10382TIP3    H252562   6.279   1.331  13.453  0.3616 -0.2854  0.2956
10383TIP3   OH252563   5.682   4.160   1.853  0.4522 -0.6256 -0.3504
10383TIP3    H152564   5.641   4.228   1.800  1.6150 -0.1763 -0.7017
10383TIP3    H252565   5.616   4.091   1.860 -0.6531  0.4262 -0.1946
10384TIP3   OH252566   3.512   5.215  15.289 -0.0392 -0.4549  0.4232
10384TIP3    H152567   3.582   5.172  15.338  1.6539  2.6164  0.9192
10384TIP3    H252568   3.440   5.223  15.352 -0.0570 -1.6415  0.5789
10385TIP3   OH252569   5.776   6.543  16.281 -0.2116  1.0491  0.1584
10385TIP3    H152570   5.828   6.464  16.301 -0.1218  0.5260 -1.8817
10385TIP3    H252571   5.840   6.605  16.245 -0.2309  2.2210  2.0064
10386TIP3   OH252572   3.188   4.370  14.230  0.0568  0.3076 -0.6722
10386TIP3    H152573   3.205   4.376  14.324  1.0478  0.9654 -0.8708
10386TIP3    H252574   3.178   4.277  14.212 -1.8963  0.2688  0.3536
10387TIP3   OH252575   2.015   1.441  15.727 -0.2489 -0.2361  0.3420
10387TIP3    H152576   2.034   1.469  15.816  2.8116 -1.0780  0.0685
10387TIP3    H252577   1.989   1.349  15.735 -0.7457 -0.0879  0.4293
10388TIP3   OH252578   3.944   4.247   5.963  0.4678  0.5126 -0.6243
10388TIP3    H152579   3.914   4.194   5.889  0.0914 -0.3580  0.1404
10388TIP3    H252580   4.038   4.259   5.947  1.0153 -2.0718  0.1635
10389TIP3   OH252581   0.789   1.571   5.670  0.8972  0.1970 -0.5537
10389TIP3    H152582   0.883   1.559   5.660  1.0914  0.7535  0.4483
10389TIP3    H252583   0.759   1.492   5.715  0.3858 -1.2823 -3.2728
10390TIP3   OH252584   0.441   2.190  17.187 -0.1162 -0.3146 -0.4107
10390TIP3    H152585   0.514   2.186  17.126  0.4328  0.7283  0.1527
10390TIP3    H252586   0.433   2.101  17.221  1.9449 -0.1170  0.7234
10391TIP3   OH252587   1.618   0.445  15.665 -0.1846  0.4429 -0.3677
10391TIP3    H152588   1.647   0.404  15.584 -0.3831  0.7510 -0.5990
10391TIP3    H252589   1.523   0.440  15.662 -0.1833  0.2069 -0.0231
10392TIP3   OH252590   1.729   1.544   4.718  0.3504 -0.4387  0.4032
10392TIP3    H152591   1.779   1.602   4.661  1.7593  0.0303  2.0357
10392TIP3    H252592   1.787   1.470   4.734 -0.2984 -0.8996  0.6837
10393TIP3   OH252593   2.642   1.463  16.332  0.2979 -0.3448  0.2856
10393TIP3    H152594   2.707   1.393  16.329 -0.7878 -1.3430 -1.2067
10393TIP3    H252595   2.681   1.534  16.280  2.1694  0.9510  3.2309
10394TIP3   OH252596   2.152   2.987   4.275  0.3621 -0.5192 -0.0940
10394TIP3    H152597   2.230   3.017   4.228  0.4481  1.1350  1.0127
10394TIP3    H252598   2.179   2.906   4.318  1.2583 -0.3375 -0.3067
10395TIP3   OH252599   6.272   6.356   0.869 -0.1640  0.5107  0.1980
10395TIP3    H152600   6.286   6.419   0.798  0.8682 -1.3219 -1.3007
10395TIP3    H252601   6.358   6.345   0.909  0.5363 -2.4645 -1.8354
10396TIP3   OH252602   5.170   3.033  13.051 -0.2814 -0.3274  0.1395
10396TIP3    H152603   5.257   3.034  13.090  0.1664 -0.9261 -0.8105
10396TIP3    H252604   5.110   3.035  13.126  0.5059  1.7204  0.7846
10397TIP3   OH252605   1.979   4.515   1.207  0.1264  0.4699  0.5102
10397TIP3    H152606   1.997   4.597   1.253  0.6379  0.5495  0.1806
10397TIP3    H252607   1.914   4.539   1.141  1.1836  0.8977 -0.4077
10398TIP3   OH252608   4.769   2.176  14.810 -0.1113  0.0114  0.4591
10398TIP3    H152609   4.736   2.265  14.827  1.4826  0.9099 -0.8381
10398TIP3    H252610   4.859   2.178  14.842  0.9063 -0.1677 -2.1787
10399TIP3   OH252611   2.553   1.000  15.960 -0.2273  0.2916 -0.0674
10399TIP3    H152612   2.576   1.031  16.047 -0.6268 -2.3591  1.0806
10399TIP3    H252613   2.633   1.009  15.909  0.4715  0.4729  1.0197
10400TIP3   OH252614   0.805   1.579  16.543  0.0375 -0.4332  0.6873
10400TIP3    H152615   0.801   1.558  16.450 -1.8675  0.1795  0.5712
10400TIP3    H252616   0.879   1.529  16.577 -0.1020 -1.7685 -0.8908
10401TIP3   OH252617   3.103   1.710  16.345  0.1215  0.4497  0.1928
10401TIP3    H152618   3.147   1.772  16.403  0.2027  0.9456 -0.3825
10401TIP3    H252619   3.174   1.661  16.304  0.3324  2.4202 -2.0495
10402TIP3   OH252620   4.903   0.432  16.352  0.4370  0.2035 -0.1056
10402TIP3    H152621   4.860   0.366  16.407 -0.7834  0.3788 -0.7969
10402TIP3    H252622   4.833   0.493  16.329  1.5144  1.7207  0.4384
10403TIP3   OH252623   1.195   6.686  14.039  0.2295 -0.0369 -0.0297
10403TIP3    H152624   1.225   6.704  13.950  2.2405 -2.0144  0.1392
10403TIP3    H252625   1.112   6.641  14.028 -0.2441  0.9805 -0.8017
10404TIP3   OH252626   6.692   1.572  17.019  0.1301 -1.0036  0.4448
10404TIP3    H152627   6.678   1.666  17.023 -1.0817 -1.2304  2.5303
10404TIP3    H252628   6.787   1.562  17.012  0.2824  0.3387  0.3881
10405TIP3   OH252629   1.522   5.573  14.764 -0.2777 -0.0166 -0.2607
10405TIP3    H152630   1.589   5.624  14.809  0.1628 -1.4025  0.7026
10405TIP3    H252631   1.442   5.586  14.816  0.0904 -1.1429  0.6128
10406TIP3   OH252632   2.635   3.569  13.823  0.2911 -0.5102 -0.3012
10406TIP3    H152633   2.610   3.595  13.734  1.9228 -1.4719 -1.1084
10406TIP3    H252634   2.659   3.651  13.866 -0.5350 -0.0304 -0.7434
10407TIP3   OH252635   0.503   2.783  14.921 -0.5914 -0.4887 -0.6167
10407TIP3    H152636   0.440   2.852  14.942 -0.3874 -0.3931 -0.3142
10407TIP3    H252637   0.545   2.813  14.840  0.1540  0.2002  0.0062
10408TIP3   OH252638   1.116   1.627   0.830 -0.8401 -0.1812 -0.2688
10408TIP3    H152639   1.114   1.531   0.840 -1.0858 -0.3594 -1.7257
10408TIP3    H252640   1.104   1.641   0.736  1.0505  1.2322 -0.3456
10409TIP3   OH252641   4.441   5.613  14.828  0.4935  0.2068 -0.7816
10409TIP3    H152642   4.499   5.687  14.851 -1.9456  2.0769 -0.2327
10409TIP3    H252643   4.393   5.644  14.751 -2.0300  0.0907  0.6653
10410TIP3   OH252644   5.367   6.405  15.428 -0.7458 -0.0898  0.0518
10410TIP3    H152645   5.391   6.344  15.358 -0.1435 -0.9958  1.0300
10410TIP3    H252646   5.333   6.481  15.381  3.1588  0.9799 -1.5080
10411TIP3   OH252647   0.415   1.117   0.089 -0.4993  0.1878  0.1928
10411TIP3    H152648   0.399   1.120   0.184 -2.0319  3.3158 -0.0547
10411TIP3    H252649   0.334   1.081   0.052  0.2642 -1.4601  0.0133
10412TIP3   OH252650   3.602   2.578  12.748 -0.4246 -0.1310  0.4922
10412TIP3    H152651   3.665   2.640  12.786  1.5977 -2.4168  1.1147
10412TIP3    H252652   3.554   2.544  12.822 -0.1687 -0.7125  0.3966
10413TIP3   OH252653   6.547   2.661  12.776 -0.0753 -0.0654  0.2885
10413TIP3    H152654   6.561   2.576  12.818 -0.1603 -0.5986 -0.7343
10413TIP3    H252655   6.616   2.667  12.709  1.8334  1.9834  2.2298
10414TIP3   OH252656   2.481   2.052   2.367 -0.7356  1.1616  0.0875
10414TIP3    H152657   2.567   2.069   2.329  0.1332  0.0223  1.4395
10414TIP3    H252658   2.472   1.957   2.363 -0.5297  0.9530  2.7566
10415TIP3   OH252659   0.920   1.635  11.803  0.7225 -0.3214 -0.5354
10415TIP3    H152660   0.868   1.668  11.877 -1.7857 -1.7474 -1.5717
10415TIP3    H252661   0.994   1.697  11.797  0.2142  0.6922  2.1904
10416TIP3   OH252662   1.614   5.310   3.848  0.0417 -0.6042 -0.4566
10416TIP3    H152663   1.573   5.275   3.768  1.2474 -2.3978 -0.3542
10416TIP3    H252664   1.586   5.249   3.916 -0.2066  0.3794  0.3424
10417TIP3   OH252665   2.332   5.696   5.490  0.8954  0.3562 -0.1542
10417TIP3    H152666   2.270   5.703   5.562  0.0464 -0.9411 -0.7061
10417TIP3    H252667   2.324   5.779   5.443  0.2577  0.5779  0.3268
10418TIP3   OH252668   4.246   2.669  12.182 -0.3824  0.1818  0.3806
10418TIP3    H152669   4.182   2.608  12.145 -2.5935  3.1102 -1.0381
10418TIP3    H252670   4.295   2.701  12.106  1.4118 -0.4687  1.2138
10419TIP3   OH252671   3.882   5.449  15.805  0.1681 -0.3102  0.3266
10419TIP3    H152672   3.831   5.407  15.874  0.4435 -1.4609 -0.1594
10419TIP3    H252673   3.961   5.480  15.848 -1.3990  2.6026  1.3711
10420TIP3   OH252674   5.517   1.880  15.139 -0.2878  1.4100  0.3914
10420TIP3    H152675   5.536   1.870  15.232 -1.9486 -0.8165  0.5659
10420TIP3    H252676   5.595   1.847  15.095  0.6079  2.6934  0.9407
10421TIP3   OH252677   2.044   4.947   0.050  0.0006 -0.1379  0.4300
10421TIP3    H152678   2.082   4.860   0.062 -0.0657 -0.3236 -0.6346
10421TIP3    H252679   2.115   5.000   0.014 -1.1536 -1.0090 -3.5811
10422TIP3   OH252680   3.468   2.410  15.873 -0.2910 -0.1082 -0.1829
10422TIP3    H152681   3.379   2.422  15.907 -0.8275 -0.3476 -1.4240
10422TIP3    H252682   3.455   2.376  15.784  1.0461 -3.7028  0.8309
10423TIP3   OH252683   2.313   0.198  12.282  0.2253 -0.1567 -0.7293
10423TIP3    H152684   2.245   0.187  12.349  0.6661  0.0817 -0.2282
10423TIP3    H252685   2.267   0.194  12.199 -0.4032  0.0176 -0.3945
10424TIP3   OH252686   4.363   2.429  11.958  0.0076 -0.2943 -0.2251
10424TIP3    H152687   4.426   2.382  12.013  0.5056  1.7940  1.0793
10424TIP3    H252688   4.278   2.413  11.999  0.1955  0.0503  0.3123
10425TIP3   OH252689   6.062   5.247   5.243  0.6939 -0.4514 -0.6536
10425TIP3    H152690   5.977   5.206   5.226 -0.8636  2.1914  0.2568
10425TIP3    H252691   6.063   5.262   5.337  0.4007  2.9854 -1.0788
10426TIP3   OH252692   1.159   6.701  12.222 -0.0552 -0.0327  0.0843
10426TIP3    H152693   1.192   6.791  12.226  0.2268 -0.0856 -0.7573
10426TIP3    H252694   1.068   6.707  12.250 -0.3364  0.6799 -0.9492
10427TIP3   OH252695   1.563   5.770  16.245  0.2042 -0.2505 -0.1200
10427TIP3    H152696   1.474   5.770  16.208  0.3187 -1.0335 -0.4190
10427TIP3    H252697   1.553   5.808  16.332 -0.3986 -0.1903 -0.2097
10428TIP3   OH252698   1.932   0.843  16.865  0.4321 -0.6982  0.6146
10428TIP3    H152699   1.944   0.938  16.869  0.7813 -0.6706 -0.6294
10428TIP3    H252700   2.008   0.808  16.912  0.6203 -0.3637  0.5684
10429TIP3   OH252701   6.273   2.793  11.646  0.4130 -0.4643 -0.2477
10429TIP3    H152702   6.281   2.888  11.644 -0.0101 -0.4318 -0.9258
10429TIP3    H252703   6.247   2.772  11.736 -0.2442  0.1308 -0.2925
10430TIP3   OH252704   5.523   0.903  16.689 -0.1636 -0.0888 -0.3951
10430TIP3    H152705   5.522   0.816  16.647 -2.8254 -0.2209 -0.2396
10430TIP3    H252706   5.615   0.923  16.700  0.6595 -1.3414 -3.6549
10431TIP3   OH252707   2.427   2.283  14.089 -0.4239 -0.0547  0.3498
10431TIP3    H152708   2.496   2.349  14.081 -0.0832 -0.3966  0.4675
10431TIP3    H252709   2.404   2.284  14.182 -0.8038  0.2839  0.2564
10432TIP3   OH252710   0.746   3.459   5.568  0.0093 -0.1312 -0.5713
10432TIP3    H152711   0.708   3.371   5.572  0.9373 -0.5107  0.5649
10432TIP3    H252712   0.686   3.509   5.513 -0.3194 -1.5824 -1.5933
10433TIP3   OH252713   5.512   0.245  15.799 -0.0854  0.5575  0.2558
10433TIP3    H152714   5.559   0.164  15.818  1.0077  0.6045 -1.9345
10433TIP3    H252715   5.503   0.288  15.885  1.3814 -0.7872  1.1360
10434TIP3   OH252716   0.128   3.918   1.777  0.1334 -0.1368 -0.7865
10434TIP3    H152717   0.054   3.965   1.739 -1.2129 -0.7881  0.8779
10434TIP3    H252718   0.176   3.984   1.826 -0.3610 -0.0294 -0.4431
10435TIP3   OH252719   5.115   5.299  13.930 -0.4426  0.2773  0.0262
10435TIP3    H152720   5.181   5.324  13.865 -0.9395  0.5857 -0.3699
10435TIP3    H252721   5.161   5.242  13.991  0.9261  2.5422  1.2673
10436TIP3   OH252722   3.389   5.320   6.526 -0.1852 -0.4112  0.1082
10436TIP3    H152723   3.344   5.401   6.502 -0.6449 -0.4570  0.7763
10436TIP3    H252724   3.351   5.254   6.469 -0.3876 -0.3014  0.1138
10437TIP3   OH252725   1.874   6.358  13.527  0.5067  0.3476  0.3281
10437TIP3    H152726   1.790   6.403  13.536  0.2658  0.2217 -1.0642
10437TIP3    H252727   1.915   6.366  13.614 -0.8571  0.5484  0.9777
10438TIP3   OH252728   6.566   0.039   5.654  0.2794 -0.2136 -0.2799
10438TIP3    H152729   6.496   0.042   5.589  1.8231  0.1345 -2.0163
10438TIP3    H252730   6.581   0.130   5.678 -0.5493 -0.3676  0.9178
10439TIP3   OH252731   3.604   5.095   1.218  0.6894 -0.4249 -0.1884
10439TIP3    H152732   3.531   5.082   1.278 -0.0952 -1.0067 -1.2380
10439TIP3    H252733   3.581   5.044   1.140  1.5230  0.5487 -1.1074
10440TIP3   OH252734   3.471   0.599  12.221  0.1496  0.1757 -0.1289
10440TIP3    H152735   3.383   0.561  12.218  0.0573  0.3210  0.6483
10440TIP3    H252736   3.530   0.524  12.228 -0.0161  0.1501  1.1295
10441TIP3   OH252737   3.358   1.107  16.684  0.2596  0.4094 -0.3965
10441TIP3    H152738   3.426   1.152  16.733 -0.1836  0.5691  0.0814
10441TIP3    H252739   3.281   1.164  16.690 -0.0973 -0.0552 -0.3961
10442TIP3   OH252740   2.518   5.723   1.243  0.1927  0.1610  0.2952
10442TIP3    H152741   2.478   5.764   1.320 -0.2760  0.1304  0.0683
10442TIP3    H252742   2.511   5.629   1.260  0.6904  0.1566  0.5167
10443TIP3   OH252743   1.562   3.865  14.583  0.0081 -0.1583 -0.1412
10443TIP3    H152744   1.552   3.899  14.494 -2.2341  0.2059  0.1819
10443TIP3    H252745   1.644   3.904  14.614 -0.8149  2.4573 -0.9252
10444TIP3   OH252746   6.736   0.971  13.964  0.1188 -0.2777 -0.1882
10444TIP3    H152747   6.693   0.892  13.995  0.9134 -0.9885 -0.8163
10444TIP3    H252748   6.757   0.952  13.872  0.7459  0.4709 -0.2138
10445TIP3   OH252749   2.716   3.253   4.978  0.0275 -0.1911  0.1741
10445TIP3    H152750   2.649   3.316   4.953  1.5005  0.8393 -1.3483
10445TIP3    H252751   2.792   3.306   5.003  0.1935 -1.3120  2.3290
10446TIP3   OH252752   2.513   3.433   2.658  0.2577  0.2226 -0.3527
10446TIP3    H152753   2.580   3.370   2.632 -0.3066 -0.4876 -0.1168
10446TIP3    H252754   2.511   3.496   2.587  1.5229  0.5362 -0.1263
10447TIP3   OH252755   5.135   6.720  16.072 -0.5137 -0.1136 -0.3074
10447TIP3    H152756   5.076   6.668  16.017 -1.2977  0.4343 -0.0124
10447TIP3    H252757   5.169   6.787  16.012 -1.4589  0.5559 -0.1264
10448TIP3   OH252758   1.593   0.985  14.673 -0.2925  0.2609  0.1679
10448TIP3    H152759   1.671   1.036  14.694 -0.7422  0.4159  1.5666
10448TIP3    H252760   1.619   0.894  14.689 -0.0644  0.2101 -0.4728
10449TIP3   OH252761   1.212   2.751   0.321  0.2675 -0.1486  0.0003
10449TIP3    H152762   1.137   2.798   0.285 -0.2060 -1.1851 -0.4043
10449TIP3    H252763   1.202   2.661   0.289  0.2738 -0.9351  2.0410
10450TIP3   OH252764   4.379   2.213   0.969 -0.1487 -0.1562 -1.2961
10450TIP3    H152765   4.364   2.120   0.988 -1.6625  0.3318  0.1696
10450TIP3    H252766   4.300   2.242   0.925 -1.5535  1.3012  1.8867
10451TIP3   OH252767   2.553   1.875   3.398 -0.5696  0.0352 -0.7014
10451TIP3    H152768   2.623   1.817   3.370 -0.7260  0.1169 -1.2783
10451TIP3    H252769   2.595   1.940   3.454 -0.3049 -0.3112 -0.4948
10452TIP3   OH252770   2.254   2.531  14.187  0.0444  0.2378 -0.2177
10452TIP3    H152771   2.321   2.516  14.254 -0.2271 -0.4536 -0.0932
10452TIP3    H252772   2.176   2.556  14.236 -0.0993 -0.0775 -0.2789
10453TIP3   OH252773   1.030   1.522   4.986 -0.4688 -0.2723 -0.2008
10453TIP3    H152774   0.983   1.596   4.947  1.9214  0.9008 -1.0455
10453TIP3    H252775   1.122   1.544   4.975  0.3252 -2.9833  0.3443
10454TIP3   OH252776   2.358   1.366   5.391  0.1371 -0.2051  0.0008
10454TIP3    H152777   2.449   1.365   5.420  0.0668  0.9456  0.2818
10454TIP3    H252778   2.320   1.287   5.430  0.9438 -0.5773  0.0632
10455TIP3   OH252779   1.234   2.119  13.215  0.3010  0.2845  0.3394
10455TIP3    H152780   1.242   2.025  13.203  1.1426  0.3980 -0.0955
10455TIP3    H252781   1.320   2.154  13.190  0.0051  1.1647  0.4974
10456TIP3   OH252782   0.164   4.011  13.872 -0.1387 -0.0959  0.1791
10456TIP3    H152783   0.193   4.099  13.892  0.4687 -0.6702  1.9859
10456TIP3    H252784   0.123   4.018  13.785 -1.0702  2.1436  0.7454
10457TIP3   OH252785   5.503   4.545  12.672  0.3897  0.0263 -0.1553
10457TIP3    H152786   5.491   4.561  12.765  0.6042 -1.0336  0.0635
10457TIP3    H252787   5.597   4.540  12.659  0.3319 -1.1190 -0.1920
10458TIP3   OH252788   3.871   5.809   6.489 -0.1752 -0.0185  0.2314
10458TIP3    H152789   3.885   5.894   6.530 -1.5094  0.4567 -0.2595
10458TIP3    H252790   3.899   5.821   6.398 -1.9209  0.4124 -0.2796
10459TIP3   OH252791   5.823   2.111  11.361 -0.1913  0.2727 -0.1008
10459TIP3    H152792   5.735   2.119  11.398 -0.6324  0.0028 -1.0474
10459TIP3    H252793   5.852   2.023  11.386 -0.3670  0.2004 -0.1514
10460TIP3   OH252794   0.578   3.909   2.066  0.1607  0.0098  0.6631
10460TIP3    H152795   0.501   3.854   2.054  0.2610 -0.1671  0.8362
10460TIP3    H252796   0.567   3.979   2.001 -0.6063  0.4956  1.2926
10461TIP3   OH252797   3.240   5.713  14.784  0.2379 -0.0382  0.4777
10461TIP3    H152798   3.304   5.674  14.725  2.4411  0.8177  2.1281
10461TIP3    H252799   3.234   5.804  14.756  1.4242  0.4166  1.5563
10462TIP3   OH252800   1.363   0.798  11.539 -0.2241 -0.2414  0.0523
10462TIP3    H152801   1.296   0.827  11.601 -0.8648 -1.8251  0.1511
10462TIP3    H252802   1.314   0.777  11.459  0.3938  0.2851 -0.4753
10463TIP3   OH252803   6.408   4.602  15.832 -0.0965 -0.4816 -0.2256
10463TIP3    H152804   6.433   4.512  15.811  0.7057 -0.0762 -1.0436
10463TIP3    H252805   6.321   4.613  15.793  0.0025 -0.7512 -0.5212
10464TIP3   OH252806   1.670   1.854  15.257  0.6956 -0.0332  0.2485
10464TIP3    H152807   1.743   1.915  15.249 -0.1417  0.7772 -1.5891
10464TIP3    H252808   1.598   1.907  15.291  0.3715 -0.3515  0.0659
10465TIP3   OH252809   3.272   2.723  13.484 -0.0591 -0.3582  0.3945
10465TIP3    H152810   3.354   2.770  13.499  0.0750 -0.4147 -0.1490
10465TIP3    H252811   3.258   2.674  13.565 -0.4265  0.9272  1.1379
10466TIP3   OH252812   2.922   2.201   3.904  0.3764 -0.0991 -0.1410
10466TIP3    H152813   2.869   2.274   3.872  0.0470 -0.6686 -0.9034
10466TIP3    H252814   2.874   2.168   3.980 -0.7478 -1.0430 -1.2210
10467TIP3   OH252815   0.040   4.294  12.078  0.0682 -0.2676  0.2840
10467TIP3    H152816  -0.014   4.282  12.156 -0.3885  0.0063  0.0156
10467TIP3    H252817   0.105   4.224  12.083 -0.4343 -0.7271  0.5071
10468TIP3   OH252818   1.152   2.214  11.139  0.0608  0.1953 -0.5068
10468TIP3    H152819   1.136   2.169  11.056 -1.0284  1.0057 -0.7690
10468TIP3    H252820   1.073   2.197  11.191 -1.7003  3.8395 -1.5922
10469TIP3   OH252821   4.881   1.570   6.297 -0.0293  0.6271  0.3353
10469TIP3    H152822   4.925   1.492   6.265 -0.3606  0.5027  0.1740
10469TIP3    H252823   4.801   1.537   6.339 -0.5622  0.9274 -0.4134
10470TIP3   OH252824   0.822   1.043  13.948 -0.4474 -0.2090 -0.3012
10470TIP3    H152825   0.838   1.117  14.006 -0.9484  0.4016 -0.9341
10470TIP3    H252826   0.767   1.078  13.877 -1.3192 -1.3437 -0.2244
10471TIP3   OH252827   3.580   2.804  10.711  0.9077  0.5102  0.3068
10471TIP3    H152828   3.514   2.786  10.644  2.0341  2.4249 -1.4060
10471TIP3    H252829   3.659   2.760  10.681  1.7774  2.4274 -0.3791
10472TIP3   OH252830   0.520   3.380   1.369 -0.2246 -0.0868  0.3874
10472TIP3    H152831   0.514   3.467   1.330 -2.0729 -0.3596 -0.0685
10472TIP3    H252832   0.464   3.385   1.447  1.3370 -0.2951  1.5640
10473TIP3   OH252833   3.538   5.702   2.719 -0.4505 -0.0294 -0.2685
10473TIP3    H152834   3.520   5.785   2.676  0.9198 -0.0776 -1.0111
10473TIP3    H252835   3.597   5.656   2.659  2.5219  0.3812  2.1040
10474TIP3   OH252836   2.874   0.371   2.696 -0.1155  0.4407  0.3892
10474TIP3    H152837   2.904   0.455   2.730  0.1535  0.4699  0.0904
10474TIP3    H252838   2.779   0.377   2.695 -0.0804  0.9209 -0.0826
10475TIP3   OH252839   6.123   5.885  15.419 -0.5059 -0.3819 -0.2024
10475TIP3    H152840   6.166   5.936  15.351 -0.0495 -3.0611 -2.1160
10475TIP3    H252841   6.190   5.821  15.446 -1.6401 -1.2649  0.5890
10476TIP3   OH252842   6.658   3.622   2.516 -0.2890 -0.3598  0.4959
10476TIP3    H152843   6.621   3.681   2.449  0.9159  0.1628  0.2721
10476TIP3    H252844   6.581   3.579   2.554 -1.2630  1.6355  0.9329
10477TIP3   OH252845   2.663   2.117  12.053  0.1906 -0.4234  0.2304
10477TIP3    H152846   2.584   2.105  12.001  0.7580 -1.8771 -0.3556
10477TIP3    H252847   2.718   2.175  12.000 -0.1203 -0.1325  0.2258
10478TIP3   OH252848   4.272   3.616   0.139  0.2744  0.2865 -0.0560
10478TIP3    H152849   4.293   3.584   0.051  1.7240  2.3436 -0.5357
10478TIP3    H252850   4.194   3.670   0.126  1.1310  1.4934 -0.3231
10479TIP3   OH252851   6.260   4.478  14.613  0.1504 -0.4527 -0.1095
10479TIP3    H152852   6.261   4.394  14.660 -0.1035 -0.0988  0.5389
10479TIP3    H252853   6.309   4.537  14.670 -0.2201 -0.0004 -0.2587
10480TIP3   OH252854   0.802   3.022   1.650 -0.4163 -0.2496  0.2800
10480TIP3    H152855   0.743   3.043   1.577  0.7793  0.5618 -0.4973
10480TIP3    H252856   0.820   3.106   1.691 -3.4852 -0.9521  3.5667
10481TIP3   OH252857   1.327   3.476   0.543  0.4713 -0.1512  0.0569
10481TIP3    H152858   1.267   3.550   0.552 -0.8875 -1.4016  2.6636
10481TIP3    H252859   1.410   3.507   0.580  0.2694  0.4312  0.0296
10482TIP3   OH252860   3.106   5.741  13.516 -0.2534 -0.2600 -0.0725
10482TIP3    H152861   3.108   5.798  13.593 -2.6342  0.2815 -0.3502
10482TIP3    H252862   3.137   5.797  13.444 -0.0212 -0.1447  0.1148
10483TIP3   OH252863   1.190   3.438   4.062 -0.0319  0.0988  0.2036
10483TIP3    H152864   1.247   3.490   4.005 -1.6154  0.4228 -1.1521
10483TIP3    H252865   1.222   3.456   4.151  1.3286  1.0385 -0.4512
10484TIP3   OH252866   2.680   4.031   1.259 -0.0665 -0.3740 -0.2503
10484TIP3    H152867   2.657   3.997   1.173  0.3527  1.3540 -1.0894
10484TIP3    H252868   2.599   4.027   1.309 -0.3153 -1.3764 -0.7048
10485TIP3   OH252869   5.665   1.162   4.523 -0.0923  0.5294  0.3207
10485TIP3    H152870   5.650   1.140   4.615  1.4179 -2.6868 -0.0777
10485TIP3    H252871   5.754   1.132   4.506 -0.9054 -0.5318 -2.5864
10486TIP3   OH252872   5.917   2.909   5.569 -0.1144 -0.5079  0.2302
10486TIP3    H152873   5.978   2.981   5.584  1.1459 -1.1158 -1.6031
10486TIP3    H252874   5.874   2.931   5.486 -0.3446 -1.4228  0.0953
10487TIP3   OH252875   3.577   1.819  11.043 -0.6391  0.4601  0.2891
10487TIP3    H152876   3.646   1.796  11.105 -0.4415  2.2387  0.7773
10487TIP3    H252877   3.618   1.814  10.957 -0.3276  0.0203  0.4645
10488TIP3   OH252878   1.294   0.184   5.296  0.5258 -0.2717 -0.7360
10488TIP3    H152879   1.324   0.211   5.209  1.5288  0.5845 -0.1495
10488TIP3    H252880   1.374   0.162   5.343 -0.0486 -1.2753 -0.1827
10489TIP3   OH252881   5.162   0.725  12.444  0.1465  0.5501 -0.8366
10489TIP3    H152882   5.192   0.784  12.514  0.1120  0.1417 -0.4730
10489TIP3    H252883   5.069   0.712  12.463  0.2791 -0.0698 -0.5793
10490TIP3   OH252884   2.531   3.263  12.721  0.2555 -0.2206 -0.0593
10490TIP3    H152885   2.609   3.309  12.750  0.1666  0.1874 -0.4721
10490TIP3    H252886   2.549   3.238  12.631  0.0574 -0.4514 -0.0375
10491TIP3   OH252887   1.396   0.243  16.080  0.4071  0.4232 -0.1454
10491TIP3    H152888   1.464   0.307  16.057  0.3150  0.5853  0.0298
10491TIP3    H252889   1.423   0.210  16.165  0.7041 -0.1168 -0.4461
10492TIP3   OH252890   6.278   6.125  11.656 -0.5987  0.2226  0.2953
10492TIP3    H152891   6.340   6.053  11.661  0.8241  1.3716 -0.1892
10492TIP3    H252892   6.243   6.133  11.745  2.5354  1.7156  1.5239
10493TIP3   OH252893   5.324   5.060   1.469  0.1420 -0.2100  0.1157
10493TIP3    H152894   5.312   5.047   1.375 -3.4727 -3.3527  0.7708
10493TIP3    H252895   5.256   5.123   1.493 -0.9822 -1.6726  0.9425
10494TIP3   OH252896   4.423   1.548  12.885 -0.2162  0.1419 -0.2112
10494TIP3    H152897   4.449   1.518  12.972 -0.0901  3.6738  1.1485
10494TIP3    H252898   4.499   1.597  12.853 -1.0965  0.8660 -1.2540
10495TIP3   OH252899   0.279   3.457   0.939  0.5437 -0.2284 -0.1234
10495TIP3    H152900   0.319   3.484   0.856 -2.7191 -1.2460 -2.2500
10495TIP3    H252901   0.331   3.383   0.969  2.0882  0.4768 -0.9791
10496TIP3   OH252902   5.433   6.460   3.106  0.1227 -0.6590  0.1590
10496TIP3    H152903   5.415   6.494   3.194  0.0005 -1.6690  0.5360
10496TIP3    H252904   5.347   6.450   3.066  0.1111 -1.1149  0.2869
10497TIP3   OH252905   1.190   1.741  12.300 -0.0447 -0.1067  0.0740
10497TIP3    H152906   1.199   1.836  12.302  0.1284 -0.1152 -0.2909
10497TIP3    H252907   1.182   1.716  12.392  1.0189  0.1547  0.2427
10498TIP3   OH252908   4.009   2.925   5.761  0.0020 -0.1740  0.5231
10498TIP3    H152909   4.024   2.970   5.678 -1.0334 -0.9483 -0.1063
10498TIP3    H252910   4.016   2.994   5.827  0.8642  0.4536 -0.1865
10499TIP3   OH252911   5.116   6.432   2.422  0.8467  0.0200 -0.2302
10499TIP3    H152912   5.204   6.430   2.459  1.5610  1.5498 -1.7059
10499TIP3    H252913   5.092   6.525   2.420 -0.1654 -0.2286 -1.2198
10500TIP3   OH252914   6.333   1.150  12.981  0.3544  0.4856  0.0492
10500TIP3    H152915   6.429   1.149  12.982  0.3853 -1.3867  1.8123
10500TIP3    H252916   6.308   1.058  12.982 -1.4401  0.9316  1.2784
10501TIP3   OH252917   1.664   2.652  12.807 -0.5066  0.1618 -0.0325
10501TIP3    H152918   1.609   2.633  12.883 -0.4445  3.0576  0.8355
10501TIP3    H252919   1.601   2.673  12.738 -0.5399  0.6183  0.1328
10502TIP3   OH252920   1.865   3.245  11.621  0.7965  0.4499 -0.2523
10502TIP3    H152921   1.867   3.205  11.708  1.7503  0.8944 -0.0482
10502TIP3    H252922   1.927   3.318  11.627 -1.9164  2.9005 -0.1902
10503TIP3   OH252923   3.684   4.981  12.781  0.2695  0.2040 -0.3137
10503TIP3    H152924   3.639   5.036  12.717  0.6903 -0.0558 -0.8388
10503TIP3    H252925   3.766   4.956  12.738 -0.5779 -2.1286 -0.7726
10504TIP3   OH252926   4.490   4.979  15.264  0.9181  0.1095 -0.2113
10504TIP3    H152927   4.561   4.964  15.326 -0.3839 -0.0953  1.2895
10504TIP3    H252928   4.411   4.950  15.310 -0.2779  1.2986 -1.4234
10505TIP3   OH252929   2.660   4.134  16.212  0.3860 -0.1848 -0.3616
10505TIP3    H152930   2.731   4.184  16.254  1.7468 -0.8508 -1.7999
10505TIP3    H252931   2.667   4.155  16.119  1.0499 -3.0762 -1.0345
10506TIP3   OH252932   5.210   2.278  11.204  0.2995  0.3490 -0.2136
10506TIP3    H152933   5.209   2.219  11.129 -2.3907  1.3339 -1.0736
10506TIP3    H252934   5.219   2.220  11.280  1.4303 -0.8007 -1.1909
10507TIP3   OH252935   3.869   2.038   3.408  0.2268 -0.1223 -0.4463
10507TIP3    H152936   3.799   2.048   3.344  0.0232  0.0720 -0.1920
10507TIP3    H252937   3.836   2.079   3.488  0.0283 -1.3496  0.1309
10508TIP3   OH252938   1.740   2.770   3.827  0.1106  0.0726 -0.1160
10508TIP3    H152939   1.660   2.738   3.784  0.8408 -1.0340 -0.7026
10508TIP3    H252940   1.733   2.739   3.917  0.5168 -1.2439 -0.5198
10509TIP3   OH252941   5.602   1.567   3.996  0.3658  0.4646 -0.3052
10509TIP3    H152942   5.623   1.654   3.961 -0.3019  0.9034  0.3621
10509TIP3    H252943   5.518   1.545   3.955  0.2044  0.4248  0.0483
10510TIP3   OH252944   2.973   1.461  11.962 -0.1622  0.1727  0.5002
10510TIP3    H152945   2.985   1.375  12.001 -1.3534 -0.3205 -0.1668
10510TIP3    H252946   2.970   1.445  11.868 -0.3515  0.9529  0.3640
10511TIP3   OH252947   6.551   6.202   3.026 -0.1818 -0.5504  0.8975
10511TIP3    H152948   6.489   6.254   2.975 -0.7342 -1.9110  0.1077
10511TIP3    H252949   6.508   6.187   3.110 -0.9201 -1.4226  0.3814
10512TIP3   OH252950   0.286   2.355   1.288  0.0627 -0.2974 -0.2085
10512TIP3    H152951   0.347   2.300   1.239  0.0443 -1.1430  0.6896
10512TIP3    H252952   0.328   2.366   1.374 -0.2890  0.4732 -0.1307
10513TIP3   OH252953   2.798   1.120   3.287  0.8166  0.3090  0.5845
10513TIP3    H152954   2.782   1.203   3.243 -2.0863 -0.1226  0.5905
10513TIP3    H252955   2.835   1.063   3.220 -1.7729  0.2170 -0.8964
10514TIP3   OH252956   1.943   3.668   0.287 -0.4284 -0.4607 -0.1301
10514TIP3    H152957   1.849   3.685   0.296 -0.7411 -1.6833 -0.9603
10514TIP3    H252958   1.974   3.660   0.378 -0.9462  0.7411  0.1823
10515TIP3   OH252959   5.396   4.290   4.061 -0.2746 -0.8673 -0.1662
10515TIP3    H152960   5.490   4.303   4.056 -0.3412 -0.5023 -0.5672
10515TIP3    H252961   5.377   4.285   4.155 -0.0856  0.8766 -0.0036
10516TIP3   OH252962   3.905   1.292  15.087  0.1554  0.1943  0.1997
10516TIP3    H152963   3.945   1.378  15.077  0.4826  0.1692  1.1924
10516TIP3    H252964   3.812   1.307  15.072  0.0966  0.8826  1.1388
10517TIP3   OH252965   0.759   0.394  15.456 -0.0623 -0.1984 -0.7609
10517TIP3    H152966   0.833   0.382  15.396 -0.0986 -3.0476 -0.3860
10517TIP3    H252967   0.720   0.477  15.429  1.9839  0.3317 -2.3700
10518TIP3   OH252968   6.490   2.627  11.192 -0.3041 -0.1266 -0.1724
10518TIP3    H152969   6.396   2.635  11.207 -0.1004  3.0452  0.0906
10518TIP3    H252970   6.521   2.577  11.267 -1.3915  1.9186  1.7793
10519TIP3   OH252971   5.039   1.628   0.082 -0.6945  0.3313  0.2625
10519TIP3    H152972   5.030   1.543   0.126 -0.9558  0.3007  0.1513
10519TIP3    H252973   5.117   1.667   0.122  0.1586 -0.4845 -0.5414
10520TIP3   OH252974   2.756   6.770  15.282  0.3203  0.9975 -0.1947
10520TIP3    H152975   2.666   6.766  15.317  0.9916  2.0343  1.7952
10520TIP3    H252976   2.796   6.689  15.312  0.7375  1.6413  1.0384
10521TIP3   OH252977   0.623   0.187   0.128 -0.6825 -0.2848 -0.3053
10521TIP3    H152978   0.624   0.227   0.040  2.1308  0.6119  0.0120
10521TIP3    H252979   0.605   0.260   0.187  1.5813  0.0312  0.0806
10522TIP3   OH252980   4.855   2.483   5.432  0.2116 -0.3286 -0.4464
10522TIP3    H152981   4.813   2.420   5.372 -0.1349 -1.2667  0.7382
10522TIP3    H252982   4.941   2.445   5.450 -0.2951 -0.9195  0.8983
10523TIP3   OH252983   2.523   5.763  10.831 -0.2787  0.4574 -0.6526
10523TIP3    H152984   2.556   5.732  10.747 -1.4182 -1.1443 -0.5407
10523TIP3    H252985   2.585   5.728  10.895 -0.7184 -0.3119 -0.6457
10524TIP3   OH252986   0.827   5.064  16.237  0.0513  0.2603  0.7784
10524TIP3    H152987   0.890   5.024  16.297 -1.5676 -0.7125  1.9217
10524TIP3    H252988   0.811   5.152  16.273  1.4312  0.8749 -0.0616
10525TIP3   OH252989   3.716   5.796  12.815  0.3352 -0.2821 -0.2935
10525TIP3    H152990   3.750   5.784  12.727 -0.6310 -0.3913 -0.6672
10525TIP3    H252991   3.721   5.890  12.831  1.7221 -0.3964  0.0546
10526TIP3   OH252992   4.573   3.329  12.273  0.2417  0.0402  0.5215
10526TIP3    H152993   4.600   3.250  12.227  2.0175  1.5137 -1.1394
10526TIP3    H252994   4.478   3.329  12.268  0.3254 -0.4463 -2.2002
10527TIP3   OH252995   3.203   0.372  12.520  0.3802  0.0043  0.0092
10527TIP3    H152996   3.298   0.377  12.534  0.4637 -1.0467 -0.0999
10527TIP3    H252997   3.188   0.282  12.494 -0.6635  0.1593  0.0495
10528TIP3   OH252998   5.458   3.228   5.747 -0.3504 -0.3371 -0.0071
10528TIP3    H152999   5.410   3.225   5.665  0.1794  2.7302 -0.5432
10528TIP3    H253000   5.525   3.160   5.739 -2.2539 -2.2340 -0.7089
10529TIP3   OH253001   1.414   0.781  14.319  0.2594 -0.1820  0.3984
10529TIP3    H153002   1.486   0.719  14.315  0.4031 -0.0216  0.4717
10529TIP3    H253003   1.414   0.822  14.232  1.2905  0.9681  0.9098
10530TIP3   OH253004   6.558   2.560   4.106  0.0719 -0.2864  0.4069
10530TIP3    H153005   6.567   2.477   4.152  1.2748 -0.8789 -0.8015
10530TIP3    H253006   6.585   2.540   4.016  1.3632  1.6216  0.3093
10531TIP3   OH253007   2.792   4.161  12.400 -0.5274  0.3654 -0.1762
10531TIP3    H153008   2.810   4.221  12.473  1.7161 -0.6623  0.1899
10531TIP3    H253009   2.873   4.112  12.389 -2.1548 -2.4276 -0.6472
10532TIP3   OH253010   6.154   5.152  15.515  0.1308  0.0335  0.4913
10532TIP3    H153011   6.233   5.146  15.568  1.2610  1.3572 -0.9366
10532TIP3    H253012   6.131   5.061  15.496  0.7951 -0.3983  1.6400
10533TIP3   OH253013   5.103   1.449   3.923 -0.3814 -0.8173  0.2596
10533TIP3    H153014   5.010   1.438   3.901 -0.1738 -1.5760 -0.2428
10533TIP3    H253015   5.135   1.360   3.937  0.6856 -0.7049 -1.2568
10534TIP3   OH253016   3.631   2.535   3.141 -0.4810 -0.0252  0.0197
10534TIP3    H153017   3.607   2.503   3.054 -1.2840  2.9986 -1.0152
10534TIP3    H253018   3.550   2.572   3.176  0.5238  1.8052  0.5788
10535TIP3   OH253019   2.163   0.962  17.114  0.0806  0.5063 -0.0911
10535TIP3    H153020   2.159   0.873  17.079  2.5494  0.9021 -1.6455
10535TIP3    H253021   2.166   0.950  17.209  1.5190 -1.1849 -0.2889
10536TIP3   OH253022   0.335   0.918  14.987  0.6309  0.0657  0.3214
10536TIP3    H153023   0.271   0.987  15.006  0.2939 -0.3311  0.6331
10536TIP3    H253024   0.353   0.928  14.893  1.0051  0.9269  0.4786
10537TIP3   OH253025   6.257   2.359  16.838  0.8792  0.2087  0.2055
10537TIP3    H153026   6.343   2.320  16.855  1.4572  1.7012  0.8841
10537TIP3    H253027   6.212   2.355  16.923  0.6321  0.2856  0.0803
10538TIP3   OH253028   1.713   2.338   3.611  0.9073 -0.1781 -0.5212
10538TIP3    H153029   1.803   2.339   3.644  0.8168 -2.4813 -0.0126
10538TIP3    H253030   1.722   2.330   3.516  1.1846  1.4728 -0.6692
10539TIP3   OH253031   1.951   0.014   3.697 -0.3216  0.0568 -0.5374
10539TIP3    H153032   2.027   0.024   3.639 -0.1960 -2.1807 -0.8444
10539TIP3    H253033   1.985  -0.036   3.771 -1.6308 -1.7930 -1.1071
10540TIP3   OH253034   4.507   2.017  16.930 -1.4650 -0.2746  0.2381
10540TIP3    H153035   4.553   2.082  16.876 -0.5300  0.3066  1.6830
10540TIP3    H253036   4.422   2.056  16.947 -1.8908 -0.5957 -1.0350
10541TIP3   OH253037   2.689   4.129   1.737 -0.5545  0.1421 -0.3623
10541TIP3    H153038   2.615   4.070   1.725 -1.0394  0.8675 -1.0674
10541TIP3    H253039   2.744   4.086   1.803 -1.7115 -0.2998  0.3447
10542TIP3   OH253040   6.652   0.127   1.060  0.1251  0.2499  0.2034
10542TIP3    H153041   6.705   0.074   1.001  2.5045  3.3609 -0.7070
10542TIP3    H253042   6.582   0.163   1.005  0.3030  0.4377  0.1000
10543TIP3   OH253043   3.403   4.621   3.672  0.1265 -0.0610  0.1012
10543TIP3    H153044   3.391   4.659   3.585  0.5312  0.3051  0.2050
10543TIP3    H253045   3.495   4.594   3.674  1.1702  3.1001  1.6260
10544TIP3   OH253046   6.759   1.166   4.203 -0.0069  0.3895 -0.6236
10544TIP3    H153047   6.683   1.181   4.147  0.6253  2.3358 -1.0336
10544TIP3    H253048   6.723   1.149   4.290 -0.9440 -0.9000 -1.2325
10545TIP3   OH253049   2.207   1.281   0.559 -0.1720 -0.7353 -0.1986
10545TIP3    H153050   2.151   1.358   0.568 -1.3548 -1.6925  1.0154
10545TIP3    H253051   2.262   1.280   0.637 -0.8318 -1.6140  0.2759
10546TIP3   OH253052   3.158   6.543  12.650  0.9918  0.2063 -0.1617
10546TIP3    H153053   3.120   6.472  12.599  0.2829 -0.0355  0.6703
10546TIP3    H253054   3.229   6.501  12.700 -0.1549 -0.2039  1.1950
10547TIP3   OH253055   6.788   4.388  13.868  0.3603 -0.2263  0.2020
10547TIP3    H153056   6.743   4.329  13.808 -2.0055  1.5340  0.1514
10547TIP3    H253057   6.752   4.474  13.850  2.4925  1.0072  1.4485
10548TIP3   OH253058   0.933   6.274  12.504 -0.4936 -0.0991  0.0309
10548TIP3    H153059   0.965   6.220  12.432 -0.2820  1.8260 -1.3883
10548TIP3    H253060   0.838   6.265  12.501 -0.4059 -1.4517  0.7057
10549TIP3   OH253061   0.243   0.550  11.457  0.7394 -0.5257 -0.0495
10549TIP3    H153062   0.241   0.606  11.535 -3.3023  0.6785 -0.7830
10549TIP3    H253063   0.320   0.580  11.408  0.6099  2.1427  1.1657
10550TIP3   OH253064   3.246   5.964   4.277 -0.3124 -0.2410 -0.3774
10550TIP3    H153065   3.322   5.909   4.259  1.6579  1.9174  0.7228
10550TIP3    H253066   3.233   5.957   4.372 -0.8049  0.2103 -0.4070
10551TIP3   OH253067   2.499   5.549   6.375  0.1059  0.2837  0.2151
10551TIP3    H153068   2.413   5.533   6.335 -0.0811 -1.9795  1.3477
10551TIP3    H253069   2.478   5.589   6.460  0.2163  0.4469  0.1650
10552TIP3   OH253070   5.546   3.612   4.718  0.2533 -0.0264  0.2725
10552TIP3    H153071   5.635   3.578   4.705 -0.0270 -1.0934  1.0061
10552TIP3    H253072   5.549   3.656   4.803  0.1766  0.2533  0.1293
10553TIP3   OH253073   0.992   1.509   3.524  0.2365 -0.1601 -0.4648
10553TIP3    H153074   0.897   1.511   3.513  0.2567  0.3612 -0.5691
10553TIP3    H253075   1.015   1.417   3.518 -0.3909 -0.4081  0.6651
10554TIP3   OH253076   1.711   0.745   2.400 -0.3889  0.0712 -0.2387
10554TIP3    H153077   1.741   0.678   2.339  0.3081 -0.2106  0.3904
10554TIP3    H253078   1.728   0.708   2.487 -1.1269  0.5648  0.1253
10555TIP3   OH253079   0.509   2.134   0.512 -0.5776 -0.1985 -0.0817
10555TIP3    H153080   0.506   2.095   0.599  0.9894  1.4771  0.7972
10555TIP3    H253081   0.601   2.136   0.489 -0.9671 -0.6049 -1.8054
10556TIP3   OH253082   0.206   5.241   1.582 -0.2927  0.0530  0.4040
10556TIP3    H153083   0.154   5.321   1.583 -0.0257  0.2350  1.9293
10556TIP3    H253084   0.185   5.198   1.665 -0.5733 -1.5712 -0.4728
10557TIP3   OH253085   4.610   4.343  13.997  0.2186  0.2461 -0.0876
10557TIP3    H153086   4.552   4.309  14.064 -2.3491  1.6557 -1.4218
10557TIP3    H253087   4.652   4.419  14.037  0.5991 -0.3325  0.6381
10558TIP3   OH253088   2.333   2.612  13.926 -0.6636 -0.1579  0.2479
10558TIP3    H153089   2.249   2.616  13.882 -0.4776 -0.4523 -0.1420
10558TIP3    H253090   2.312   2.604  14.019 -1.0620  0.0779  0.1768
10559TIP3   OH253091   3.102   1.122  13.210 -0.2182  0.2368  0.0568
10559TIP3    H153092   3.129   1.085  13.125  1.0412  0.1099  0.4936
10559TIP3    H253093   3.013   1.154  13.194  0.3430  1.1280 -1.5931
10560TIP3   OH253094   0.759   0.125   5.420  0.0509 -0.0591  0.5711
10560TIP3    H153095   0.733   0.159   5.335 -2.3028 -1.2141  0.7471
10560TIP3    H253096   0.848   0.093   5.408  0.7261  2.1385 -0.7166
10561TIP3   OH253097   4.464   1.734  12.584  0.5952 -0.1284 -0.4129
10561TIP3    H153098   4.491   1.708  12.495  0.0761  0.3730 -0.7202
10561TIP3    H253099   4.515   1.677  12.641  2.5452  0.9487 -0.9607
10562TIP3   OH253100   1.241   1.301  15.595  0.5284  0.2642 -0.5314
10562TIP3    H153101   1.269   1.306  15.687 -2.1001  1.2432  0.3347
10562TIP3    H253102   1.187   1.380  15.583 -1.2867 -1.1177 -2.1134
10563TIP3   OH253103   2.145   4.251   3.104  0.1617  0.7595 -0.0547
10563TIP3    H153104   2.201   4.238   3.027 -1.6949 -0.0414 -1.3457
10563TIP3    H253105   2.060   4.276   3.068 -1.5607 -2.2414  1.4793
10564TIP3   OH253106   2.477   0.304   0.515  0.0533  0.0584 -0.2163
10564TIP3    H153107   2.564   0.285   0.548 -0.0589  0.4865  0.3509
10564TIP3    H253108   2.467   0.247   0.439  0.5986 -0.4207  0.0603
10565TIP3   OH253109   2.912   2.784  13.510 -0.7875  0.2158  0.0128
10565TIP3    H153110   2.991   2.818  13.467  0.9705 -2.1892  1.0768
10565TIP3    H253111   2.907   2.833  13.592 -0.2560  0.2712  0.0200
10566TIP3   OH253112   1.125   5.868   2.362 -0.0060 -0.0411  0.1608
10566TIP3    H153113   1.164   5.782   2.344  0.5097  0.3609 -0.6896
10566TIP3    H253114   1.033   5.857   2.339 -0.2057 -0.7005  1.1945
10567TIP3   OH253115   2.778   0.210  14.027 -0.3560 -0.8138  0.4695
10567TIP3    H153116   2.713   0.176  13.966  0.4347 -1.1066 -0.2201
10567TIP3    H253117   2.729   0.272  14.081 -1.4379 -1.7978  0.6594
10568TIP3   OH253118   5.999   4.165  14.445 -0.9390  0.2052 -0.0146
10568TIP3    H153119   6.016   4.071  14.435  1.3220  0.6936 -1.4594
10568TIP3    H253120   6.073   4.197  14.496 -1.0950  1.3930 -0.5128
10569TIP3   OH253121   5.587   4.700   4.463 -0.0887  0.0942  0.0168
10569TIP3    H153122   5.555   4.694   4.553  0.9938  0.0538  0.4150
10569TIP3    H253123   5.557   4.620   4.421 -0.5041  0.0611  0.3728
10570TIP3   OH253124   4.516   6.737   3.785  0.0537 -0.3287  1.1201
10570TIP3    H153125   4.579   6.728   3.714  0.0197  0.6888  0.9503
10570TIP3    H253126   4.550   6.808   3.839 -1.6680  1.2396  0.2310
10571TIP3   OH253127   5.293   0.343  14.352 -0.0723 -0.3722  0.4129
10571TIP3    H153128   5.259   0.255  14.367  1.0269 -1.0066 -0.6436
10571TIP3    H253129   5.314   0.346  14.258  1.6494  0.3426  0.7657
10572TIP3   OH253130   3.565   0.626  12.771  0.6596 -0.2068  0.2274
10572TIP3    H153131   3.657   0.617  12.793  0.8816 -2.0892 -1.1255
10572TIP3    H253132   3.564   0.683  12.694  0.4409  1.5970  1.5135
10573TIP3   OH253133   4.015   3.196  15.965  0.1203 -0.2755 -0.0096
10573TIP3    H153134   3.970   3.129  16.016  0.7861 -0.8201 -0.1156
10573TIP3    H253135   3.975   3.278  15.993  0.0872 -0.6125  0.9837
10574TIP3   OH253136   5.494   4.927  14.440 -0.2287 -0.3404 -0.2044
10574TIP3    H153137   5.527   4.886  14.520  0.9903 -0.0010 -0.5130
10574TIP3    H253138   5.495   5.021  14.458  1.3326 -0.1686 -1.0594
10575TIP3   OH253139   0.084   0.917   4.683 -0.2456 -0.0600 -0.1995
10575TIP3    H153140   0.117   0.868   4.758 -0.3057 -1.5192 -1.0758
10575TIP3    H253141   0.137   0.886   4.609 -1.7627 -0.4710 -1.1719
10576TIP3   OH253142   1.226   0.732  12.689 -0.3807  0.1874 -0.8349
10576TIP3    H153143   1.173   0.798  12.645 -0.9215  0.1740 -0.2185
10576TIP3    H253144   1.163   0.664  12.716 -0.0691  0.2068 -0.0340
10577TIP3   OH253145   0.357   4.199  15.108  0.3910 -0.2533 -0.3207
10577TIP3    H153146   0.427   4.153  15.062  0.3503 -0.6319 -0.0098
10577TIP3    H253147   0.347   4.151  15.190  1.3939  1.2270  0.7112
10578TIP3   OH253148   6.320   5.137  16.528  1.1709 -0.5647 -0.5736
10578TIP3    H153149   6.228   5.137  16.503  0.5120 -0.4803  1.6914
10578TIP3    H253150   6.349   5.228  16.513  0.9850 -0.6380 -1.4717
10579TIP3   OH253151   0.522   1.506   0.870  0.5452 -0.3503 -0.1876
10579TIP3    H153152   0.580   1.445   0.823  0.4400 -0.6374  0.0585
10579TIP3    H253153   0.563   1.592   0.857  1.5187 -0.6564  0.7166
10580TIP3   OH253154   3.922   6.611   3.145  0.5929  0.4759 -0.0691
10580TIP3    H153155   3.839   6.651   3.119  0.4698  1.8673  2.2009
10580TIP3    H253156   3.989   6.661   3.099  0.2551  0.3140 -0.7522
10581TIP3   OH253157   6.702   6.775   4.927  0.3132 -0.2700 -0.1311
10581TIP3    H153158   6.693   6.697   4.872  1.4857 -2.2755  2.3431
10581TIP3    H253159   6.716   6.846   4.865  0.3547 -2.1867 -2.4635
10582TIP3   OH253160   3.506   4.166   6.552  0.1204 -0.2915  0.2624
10582TIP3    H153161   3.562   4.097   6.587  0.8799 -0.1194 -0.5708
10582TIP3    H253162   3.553   4.247   6.571  0.3225 -0.1666 -0.7141
10583TIP3   OH253163   5.610   0.955   3.773  0.3075  0.1054 -0.3682
10583TIP3    H153164   5.540   0.899   3.741  1.2731 -0.9779 -0.6485
10583TIP3    H253165   5.640   1.004   3.696 -0.5320  1.0408 -0.1246
10584TIP3   OH253166   0.941   6.060   1.681 -0.8167 -0.0153  0.3364
10584TIP3    H153167   0.868   6.000   1.665 -2.0078  1.7949 -1.4825
10584TIP3    H253168   0.961   6.049   1.774 -2.3335 -1.7055  0.5243
10585TIP3   OH253169   5.020   0.681   4.550 -0.1333 -0.0309 -0.6231
10585TIP3    H153170   5.054   0.677   4.460  0.6557  2.3055 -0.5071
10585TIP3    H253171   5.008   0.774   4.566 -2.7337 -0.5355  0.8469
10586TIP3   OH253172   3.322   4.318   1.644  0.1326 -0.3947 -0.1154
10586TIP3    H153173   3.382   4.385   1.609 -0.2576 -0.3296 -0.6678
10586TIP3    H253174   3.259   4.368   1.696 -0.1538 -0.3309 -0.5210
10587TIP3   OH253175   2.798   5.619   0.963  0.5222  0.4215 -0.3537
10587TIP3    H153176   2.828   5.697   0.918  0.9438  1.3588  1.4311
10587TIP3    H253177   2.795   5.644   1.056 -2.5086 -0.6591 -0.0386
10588TIP3   OH253178   3.650   3.178  12.374  0.2966  0.0577 -0.7836
10588TIP3    H153179   3.581   3.190  12.310  0.2416  3.9477 -0.2172
10588TIP3    H253180   3.724   3.145  12.323 -1.0013 -1.1678 -1.9654
10589TIP3   OH253181   3.831   1.839   2.245  0.2151  0.0706 -0.3305
10589TIP3    H153182   3.744   1.844   2.205 -0.8024  0.2406  1.7618
10589TIP3    H253183   3.836   1.750   2.280  0.1901  0.5541  0.9583
10590TIP3   OH253184   2.599   4.604   1.290  0.1218  0.3855  0.8326
10590TIP3    H153185   2.575   4.696   1.280 -0.8940  0.0584  0.1063
10590TIP3    H253186   2.640   4.580   1.207 -0.3700 -0.0231  0.6989
10591TIP3   OH253187   6.453   0.945   3.898  0.0626 -0.4564  0.7238
10591TIP3    H153188   6.362   0.945   3.867 -0.0607 -2.8320  0.9227
10591TIP3    H253189   6.451   0.997   3.978 -0.9619  0.1540  0.3193
10592TIP3   OH253190   2.061   1.765  12.553  0.2459 -0.4360 -0.2365
10592TIP3    H153191   2.031   1.805  12.634 -0.7295 -0.9689 -0.3242
10592TIP3    H253192   2.145   1.724  12.576  0.1618 -0.2563  0.4008
10593TIP3   OH253193   1.694   5.734   2.625 -0.8664 -0.1846  0.0304
10593TIP3    H153194   1.685   5.740   2.720 -0.9980 -0.3034  0.0254
10593TIP3    H253195   1.605   5.719   2.593 -0.8902  0.3152 -0.1462
10594TIP3   OH253196   2.510   1.684  10.573  0.5205  0.2007  0.4059
10594TIP3    H153197   2.427   1.643  10.598  0.6484  0.1319  0.7244
10594TIP3    H253198   2.557   1.615  10.526 -0.2181  0.6987 -1.1152
10595TIP3   OH253199   6.588   6.545   0.392 -0.2027 -0.1204  0.8300
10595TIP3    H153200   6.537   6.549   0.473  0.2010 -1.2345  1.1603
10595TIP3    H253201   6.658   6.610   0.405 -0.2279 -0.1846  1.3158
10596TIP3   OH253202   5.779   4.195   1.315  0.5103 -0.3850  0.0475
10596TIP3    H153203   5.873   4.203   1.333  1.0275 -1.8427 -1.7360
10596TIP3    H253204   5.774   4.188   1.219 -1.6761  2.5572 -0.2025
10597TIP3   OH253205   5.349   3.586  16.635  0.2885 -0.2818  0.5475
10597TIP3    H153206   5.427   3.642  16.638  0.2942 -0.3479  1.8879
10597TIP3    H253207   5.282   3.642  16.597  0.4354  0.4742  1.3807
10598TIP3   OH253208   5.478   0.645  12.428 -0.9536  0.3756  0.0354
10598TIP3    H153209   5.525   0.726  12.409  0.9762 -0.9372 -1.1552
10598TIP3    H253210   5.413   0.638  12.358  0.2153 -0.0699 -1.0270
10599TIP3   OH253211   6.374   2.828  12.033  0.4848  0.2928  0.2676
10599TIP3    H153212   6.320   2.820  12.112  1.1963  0.1707  0.7568
10599TIP3    H253213   6.416   2.914  12.041  2.7327 -0.8023  1.4867
10600TIP3   OH253214   6.555   2.227   6.193 -0.2360  0.1130 -0.5008
10600TIP3    H153215   6.522   2.145   6.155  0.8897 -0.9917  0.7755
10600TIP3    H253216   6.625   2.254   6.135  0.5377 -0.7953 -0.0159
10601TIP3   OH253217   4.393   6.287  16.498  0.3899  0.3232  0.9641
10601TIP3    H153218   4.373   6.193  16.493 -0.1267  0.3747  1.9119
10601TIP3    H253219   4.447   6.303  16.421  1.1527 -0.9284  1.1942
10602TIP3   OH253220   0.106   5.894  12.630  0.2965 -0.3923 -0.6693
10602TIP3    H153221   0.057   5.971  12.656 -0.1565 -0.7732 -0.3774
10602TIP3    H253222   0.100   5.892  12.534  0.9364  0.3388 -0.7306
10603TIP3   OH253223   4.800   2.524  12.794 -0.0854  0.3000  1.2050
10603TIP3    H153224   4.716   2.505  12.752  0.3827  2.0945 -0.7141
10603TIP3    H253225   4.865   2.488  12.734  0.6232  3.3509 -0.0431
10604TIP3   OH253226   0.955   5.949  13.267  0.7859  0.0646  0.1044
10604TIP3    H153227   0.871   5.932  13.225  0.1005 -0.7856  1.6839
10604TIP3    H253228   1.020   5.921  13.204 -0.0647  1.4773 -1.4682
10605TIP3   OH253229   3.539   2.139   0.091  0.1113  0.3577 -0.0789
10605TIP3    H153230   3.589   2.069   0.133 -1.1024 -0.6235 -0.1895
10605TIP3    H253231   3.453   2.099   0.074  0.5584  0.5559 -3.6603
10606TIP3   OH253232   3.779   2.483  12.432  0.4195 -0.4976  0.0340
10606TIP3    H153233   3.752   2.433  12.355 -0.4605  0.8629 -0.5943
10606TIP3    H253234   3.699   2.529  12.459  1.6679  2.6070 -1.0368
10607TIP3   OH253235   6.762   6.438   1.825 -0.0022  0.0167 -0.4228
10607TIP3    H153236   6.709   6.411   1.750 -0.2771 -2.4543  0.5402
10607TIP3    H253237   6.707   6.418   1.901  1.0344  0.5547  0.4840
10608TIP3   OH253238   0.980   3.932  13.139 -0.1064  1.2394  0.5189
10608TIP3    H153239   1.056   3.974  13.180  0.8854  0.1286 -0.1158
10608TIP3    H253240   0.904   3.971  13.183  0.8664  0.9645  2.5772
10609TIP3   OH253241   1.061   5.182   0.966  0.3649  0.0211  0.5439
10609TIP3    H153242   1.100   5.142   0.888 -0.5198  0.8778 -0.3700
10609TIP3    H253243   1.059   5.111   1.031 -0.8518 -1.3581 -0.9116
10610TIP3   OH253244   1.488   2.396  13.634  0.1084  0.0566  1.0248
10610TIP3    H153245   1.460   2.470  13.687 -0.4002  0.1936  0.5696
10610TIP3    H253246   1.584   2.399  13.638  0.0818  0.4462  1.4102
10611TIP3   OH253247   3.004   2.216   4.328 -0.9268 -0.1661  0.0043
10611TIP3    H153248   3.046   2.136   4.295 -2.8128 -1.4931  0.6745
10611TIP3    H253249   2.932   2.232   4.267 -0.9917  0.6244  0.2861
10612TIP3   OH253250   5.411   3.378   5.991 -0.4358 -0.2501 -0.3265
10612TIP3    H153251   5.469   3.450   5.967  0.1012 -0.7521 -0.5778
10612TIP3    H253252   5.420   3.315   5.919 -1.1875 -0.3973 -0.2976
10613TIP3   OH253253   2.295   5.941   6.814  0.2774 -0.1472  0.0208
10613TIP3    H153254   2.245   5.995   6.752 -0.3552 -1.0984 -0.3232
10613TIP3    H253255   2.335   6.004   6.873 -2.5899  0.6492  1.3121
10614TIP3   OH253256   2.863   4.483   0.534 -0.0379 -0.0217  0.3568
10614TIP3    H153257   2.871   4.391   0.508 -1.5576 -0.2966  0.7531
10614TIP3    H253258   2.855   4.480   0.629  0.0190  0.5237  0.3783
10615TIP3   OH253259   3.191   5.520  12.207  0.6993 -0.4417 -0.1004
10615TIP3    H153260   3.194   5.498  12.114  0.4938  1.9715 -0.7205
10615TIP3    H253261   3.098   5.528  12.227  0.7781  0.0279  0.0746
10616TIP3   OH253262   2.102   4.070   0.213  0.2244 -0.3757  0.7502
10616TIP3    H153263   2.154   4.078   0.133  1.2988 -0.8805  1.3789
10616TIP3    H253264   2.060   4.156   0.222  1.2817  0.1883  0.4496
10617TIP3   OH253265   3.831   4.429  13.727  0.3172 -0.3468 -0.3195
10617TIP3    H153266   3.796   4.462  13.810  0.9418 -0.1261 -0.1374
10617TIP3    H253267   3.786   4.480  13.660  1.5765  1.2048 -0.0277
10618TIP3   OH253268   1.826   4.221  12.853  0.0342 -0.5864  0.2034
10618TIP3    H153269   1.857   4.293  12.908  1.5310 -1.3402  0.4045
10618TIP3    H253270   1.757   4.260  12.799 -0.3677  0.5605  1.4911
10619TIP3   OH253271   1.039   4.275  13.206  0.3851 -0.5455 -0.6610
10619TIP3    H153272   0.955   4.234  13.229  0.9778 -1.2846  0.2594
10619TIP3    H253273   1.015   4.362  13.173 -0.6832 -0.4026  0.4367
10620TIP3   OH253274   2.839   1.632  14.921  0.1454 -0.0506 -0.0277
10620TIP3    H153275   2.908   1.577  14.886  0.7024  1.2864 -1.1543
10620TIP3    H253276   2.798   1.671  14.844  0.1877  1.5618  0.7127
10621TIP3   OH253277   4.435   1.870  13.299 -0.2102 -0.0375 -0.0012
10621TIP3    H153278   4.500   1.833  13.359 -0.2560 -0.9733 -0.5131
10621TIP3    H253279   4.367   1.804  13.293  0.1883 -0.3543 -1.7291
10622TIP3   OH253280   0.173   2.002  13.138 -0.1407  0.1742  0.0139
10622TIP3    H153281   0.120   2.076  13.107 -0.8809  0.1709  1.2040
10622TIP3    H253282   0.130   1.974  13.219  1.6399  0.1333  0.9997
10623TIP3   OH253283   2.776   5.777  15.760  0.7054  0.1521 -0.0725
10623TIP3    H153284   2.697   5.748  15.804  0.1867  0.2548 -0.9217
10623TIP3    H253285   2.836   5.800  15.831  0.6992 -1.8098  0.6091
10624TIP3   OH253286   2.030   5.300  17.042 -0.0299 -0.4205  0.0100
10624TIP3    H153287   2.035   5.395  17.043  1.9441 -0.4806  0.4721
10624TIP3    H253288   2.100   5.272  17.101 -1.4380 -2.1569  0.9598
10625TIP3   OH253289   3.772   4.118   5.045  0.0870  0.4768  0.1179
10625TIP3    H153290   3.776   4.162   5.130 -0.1735 -2.4391  1.8011
10625TIP3    H253291   3.843   4.156   4.994  3.4220 -0.7747  3.3536
10626TIP3   OH253292   2.079   6.562   2.100 -0.0668 -0.2970  0.0308
10626TIP3    H153293   1.991   6.592   2.123 -0.9668 -3.0681  0.5825
10626TIP3    H253294   2.099   6.606   2.018 -0.8664  2.3543  1.1720
10627TIP3   OH253295   1.023   4.813   3.714 -0.0408 -0.0212  0.0712
10627TIP3    H153296   0.960   4.878   3.744  0.6194  0.6112  0.1280
10627TIP3    H253297   0.971   4.733   3.699 -0.9332  0.6313 -0.4010
10628TIP3   OH253298   0.292   3.621   4.638 -0.4231  0.4737  0.1074
10628TIP3    H153299   0.233   3.696   4.645  0.2046  0.9686  0.1269
10628TIP3    H253300   0.377   3.659   4.619 -0.4206 -0.3090 -1.7414
10629TIP3   OH253301   4.922   5.585   1.756  0.1804  0.0984  0.3260
10629TIP3    H153302   4.845   5.595   1.700 -0.5989  1.4678  1.5515
10629TIP3    H253303   4.915   5.496   1.790 -0.7783  0.1303  0.2480
10630TIP3   OH253304   3.397   0.011   0.532  0.2164 -0.2706 -0.1017
10630TIP3    H153305   3.331   0.080   0.534  0.6292  0.1111  0.9833
10630TIP3    H253306   3.355  -0.062   0.486 -0.3176  0.5959 -1.0206
10631TIP3   OH253307   3.862   0.728  13.671 -0.0586 -0.7988 -0.6844
10631TIP3    H153308   3.891   0.780  13.596  0.5114  0.3616  0.3145
10631TIP3    H253309   3.887   0.638  13.649  0.4628 -0.4130 -1.7070
10632TIP3   OH253310   3.434   5.595   0.382  0.8144  0.2060 -0.4826
10632TIP3    H153311   3.524   5.564   0.370  0.0062 -2.2152 -1.0760
10632TIP3    H253312   3.415   5.579   0.474  0.5514 -0.6962 -0.6831
10633TIP3   OH253313   0.701   3.120   1.389  0.0902  0.5858 -0.1375
10633TIP3    H153314   0.720   3.192   1.328 -1.0294  1.3403  0.3787
10633TIP3    H253315   0.621   3.146   1.433 -1.1060 -1.6071 -0.8738
10634TIP3   OH253316   0.370   3.845  17.027 -0.6521 -0.3298  0.1498
10634TIP3    H153317   0.342   3.839  16.936 -1.2223  3.6162 -0.1129
10634TIP3    H253318   0.462   3.818  17.026 -0.5733 -0.1038 -1.6689
10635TIP3   OH253319   0.909   3.157   4.673 -0.3739  0.8834  0.1758
10635TIP3    H153320   0.869   3.127   4.755 -0.7086 -1.5037 -0.7607
10635TIP3    H253321   0.835   3.166   4.613  0.1681 -1.7539 -1.0449
10636TIP3   OH253322   1.063   3.199  12.527 -0.2685 -0.4081 -0.2848
10636TIP3    H153323   1.071   3.260  12.454  0.7741  0.1643  0.2810
10636TIP3    H253324   1.013   3.248  12.593  0.4517 -0.2033  0.1172
10637TIP3   OH253325   0.289   1.574   5.636 -0.3122  0.4269 -0.7382
10637TIP3    H153326   0.271   1.601   5.726  1.3335 -0.3842 -0.1203
10637TIP3    H253327   0.362   1.629   5.608 -0.3580  0.1975 -1.3373
10638TIP3   OH253328   1.686   1.378   1.716  0.0358  0.2834  0.0647
10638TIP3    H153329   1.774   1.363   1.752 -0.1698  0.6563  0.7329
10638TIP3    H253330   1.675   1.473   1.719  0.0056  0.3174 -0.9792
10639TIP3   OH253331   0.356   4.189  16.391 -0.5395  0.3422  0.2002
10639TIP3    H153332   0.449   4.206  16.375 -1.0976  2.0870 -1.6760
10639TIP3    H253333   0.325   4.264  16.440 -1.2133  0.4349 -0.3437
10640TIP3   OH253334   5.365   6.394   5.311  0.2123  0.2423  0.3971
10640TIP3    H153335   5.367   6.484   5.280 -0.4311 -0.0428 -0.5287
10640TIP3    H253336   5.450   6.380   5.351  0.7657  0.9000 -0.5077
10641TIP3   OH253337   6.432   4.764   4.414  0.3040  0.0834  0.1750
10641TIP3    H153338   6.444   4.842   4.360  0.7039  1.2505  1.8475
10641TIP3    H253339   6.507   4.765   4.474 -0.2630 -0.9655  0.9366
10642TIP3   OH253340   3.429   4.509  12.610 -0.2637 -0.0565  1.0303
10642TIP3    H153341   3.372   4.488  12.536 -2.9399  0.2398  2.8427
10642TIP3    H253342   3.466   4.425  12.637 -0.9292 -0.4939  0.6102
10643TIP3   OH253343   4.786   3.196  14.672  0.7126 -0.4056  0.2942
10643TIP3    H153344   4.847   3.204  14.746 -0.8668  1.3074  1.4975
10643TIP3    H253345   4.810   3.268  14.614  0.8968 -0.7597 -0.0748
10644TIP3   OH253346   5.258   2.385  14.639  0.2098 -0.4501  0.4192
10644TIP3    H153347   5.162   2.381  14.638  0.2241 -0.7263  0.1323
10644TIP3    H253348   5.278   2.454  14.703 -0.2038  0.3419 -0.2811
10645TIP3   OH253349   6.631   4.172  12.603 -0.2131 -0.3679 -0.1366
10645TIP3    H153350   6.572   4.113  12.650 -0.9469 -0.2031 -0.8332
10645TIP3    H253351   6.574   4.239  12.566  0.8182  2.1051  2.4738
10646TIP3   OH253352   2.646   3.497  17.028 -0.5816 -0.5373  0.3048
10646TIP3    H153353   2.741   3.504  17.027 -0.5630 -0.2620  1.6517
10646TIP3    H253354   2.623   3.495  17.121 -1.9275  0.0578  0.0189
10647TIP3   OH253355   5.751   6.124  15.912  0.4500 -0.4629  0.1365
10647TIP3    H153356   5.837   6.096  15.944  0.3188 -1.6480 -0.5124
10647TIP3    H253357   5.696   6.046  15.920 -0.4080  0.1097 -0.0532
10648TIP3   OH253358   2.962   4.654   2.062 -0.2649  0.3252 -0.1575
10648TIP3    H153359   2.936   4.712   2.133  0.7499  0.1475  0.3728
10648TIP3    H253360   3.037   4.698   2.022  0.0713 -0.2838 -0.1974
10649TIP3   OH253361   6.356   0.772  11.645 -0.0259 -0.0016  0.2392
10649TIP3    H153362   6.360   0.866  11.628 -1.5141  0.0271 -0.1307
10649TIP3    H253363   6.266   0.757  11.673 -0.4648 -1.6172 -1.7533
10650TIP3   OH253364   1.583   0.659   3.715  0.1402 -0.0324  1.0194
10650TIP3    H153365   1.530   0.583   3.691 -1.3668  0.9071  1.2724
10650TIP3    H253366   1.660   0.621   3.758 -0.4490 -1.4191  0.9223
10651TIP3   OH253367   3.809   3.202   0.931  0.2038  0.4507 -0.2430
10651TIP3    H153368   3.787   3.189   1.023  0.7291 -0.4441 -0.2366
10651TIP3    H253369   3.905   3.203   0.929  0.2179 -0.4917 -0.8903
10652TIP3   OH253370   4.410   3.763   5.859  0.2191 -0.2719  0.0402
10652TIP3    H153371   4.322   3.745   5.827  0.1419  0.5992 -0.2668
10652TIP3    H253372   4.464   3.762   5.780  0.1250  1.3094 -0.0628
10653TIP3   OH253373   2.164   0.553   0.060  0.1298 -0.3073 -0.2327
10653TIP3    H153374   2.146   0.535   0.152  0.1173  2.0603  0.2970
10653TIP3    H253375   2.252   0.592   0.059 -0.0090  0.0275 -1.1660
10654TIP3   OH253376   0.585   4.222  16.890  0.2029 -0.2466 -0.1761
10654TIP3    H153377   0.662   4.165  16.897  0.9708  0.7359 -0.2761
10654TIP3    H253378   0.622   4.309  16.876 -0.9045  0.4004  0.7399
10655TIP3   OH253379   3.406   5.255   6.786  0.3563  0.1195 -0.1783
10655TIP3    H153380   3.318   5.240   6.819 -0.0879 -1.3101 -1.8808
10655TIP3    H253381   3.394   5.300   6.703  1.1647 -0.8857 -0.8641
10656TIP3   OH253382   5.551   6.184   3.121 -0.3964 -0.1979 -0.6348
10656TIP3    H153383   5.534   6.272   3.087 -0.8867 -0.8215 -2.0988
10656TIP3    H253384   5.633   6.192   3.169  0.9671  0.5449 -2.9250
10657TIP3   OH253385   6.417   4.689  12.075  0.0551 -0.0685  0.4148
10657TIP3    H153386   6.424   4.769  12.023  0.6267  0.6236  1.5283
10657TIP3    H253387   6.371   4.716  12.155  0.1408 -0.8845  0.7545
10658TIP3   OH253388   3.021   4.065   4.036  0.1293  0.5971 -0.1909
10658TIP3    H153389   3.017   4.026   3.949  1.3195  3.0047 -1.4273
10658TIP3    H253390   3.078   4.007   4.086  0.0625 -0.4106 -1.2530
10659TIP3   OH253391   4.646   0.135  11.918 -0.1680 -0.4563 -0.5411
10659TIP3    H153392   4.701   0.073  11.870  0.6826  0.7847 -1.2171
10659TIP3    H253393   4.652   0.216  11.869  0.0376  0.6340  1.1924
10660TIP3   OH253394   1.136   0.944  14.207 -0.3507  0.3142 -0.0871
10660TIP3    H153395   1.122   0.959  14.300  1.0457 -0.5334  0.2808
10660TIP3    H253396   1.080   1.008  14.164 -2.0265 -0.1553  1.3023
10661TIP3   OH253397   0.067   3.843   4.610 -0.3802 -0.4381  0.1494
10661TIP3    H153398  -0.016   3.859   4.565 -0.1755  1.5144  0.3540
10661TIP3    H253399   0.042   3.830   4.702 -0.4318  1.4452  0.4485
10662TIP3   OH253400   3.200   6.614  17.145  0.0823 -0.4001 -0.6285
10662TIP3    H153401   3.188   6.547  17.212 -1.9510  0.6076  0.0808
10662TIP3    H253402   3.291   6.643  17.155  0.4391 -1.7570  0.2355
10663TIP3   OH253403   1.623   5.529  13.446 -0.1071  0.1936 -0.1243
10663TIP3    H153404   1.622   5.442  13.486  0.5577  0.8522  1.3890
10663TIP3    H253405   1.582   5.586  13.511  1.0371  1.3041 -0.3227
10664TIP3   OH253406   3.204   5.539   3.728 -0.4932 -0.1252 -0.1947
10664TIP3    H153407   3.187   5.445   3.723 -0.1609 -0.1616 -0.7575
10664TIP3    H253408   3.177   5.564   3.816 -0.4813 -0.7674 -0.0045
10665TIP3   OH253409   2.198   4.103   4.646  0.0196 -0.0378 -0.1425
10665TIP3    H153410   2.279   4.088   4.695 -0.1252  1.6143  0.6783
10665TIP3    H253411   2.137   4.036   4.678  0.4186  0.0384  0.8027
10666TIP3   OH253412   1.655   3.100   3.327  0.0053 -0.0828 -0.0853
10666TIP3    H153413   1.723   3.145   3.278  0.2419 -1.0191 -0.6397
10666TIP3    H253414   1.702   3.041   3.386 -0.3005 -1.4289 -1.1317
10667TIP3   OH253415   0.237   5.995  11.829  0.6371 -0.3173 -0.6056
10667TIP3    H153416   0.234   6.081  11.786 -1.7424 -1.1847 -2.4115
10667TIP3    H253417   0.156   5.990  11.879  1.7706 -0.7149  1.2760
10668TIP3   OH253418   4.756   3.734   5.212  0.1861  0.0235 -0.1335
10668TIP3    H153419   4.819   3.677   5.167 -0.7909 -0.7424 -0.5741
10668TIP3    H253420   4.692   3.674   5.250 -0.2216  0.7783  0.4008
10669TIP3   OH253421   0.735   2.341  11.134  1.1302 -0.1618 -0.1102
10669TIP3    H153422   0.672   2.398  11.178  0.9298 -1.1002  0.8478
10669TIP3    H253423   0.685   2.261  11.114  2.1508 -1.1765  1.2463
10670TIP3   OH253424   5.797   3.741  15.477 -0.2563 -0.0597 -0.0253
10670TIP3    H153425   5.820   3.659  15.520 -0.9142 -0.0211  0.4136
10670TIP3    H253426   5.863   3.804  15.508  0.8023 -0.6088 -1.0647
10671TIP3   OH253427   4.342   4.169  13.584  0.0819 -0.4591 -0.6076
10671TIP3    H153428   4.279   4.154  13.514  0.2884 -1.6017 -0.5824
10671TIP3    H253429   4.309   4.118  13.658  1.0734 -1.1840 -0.6375
10672TIP3   OH253430   4.478   0.727   2.998 -0.1546 -0.2321  0.2287
10672TIP3    H153431   4.392   0.709   3.037 -0.1991  1.5709  1.0416
10672TIP3    H253432   4.458   0.765   2.912 -0.2285  0.9150  0.7317
10673TIP3   OH253433   4.877   0.041  12.888  0.4109  0.3005  0.0774
10673TIP3    H153434   4.803   0.050  12.948  0.4718  0.9051  0.0669
10673TIP3    H253435   4.867   0.115  12.827  0.7939  0.1469 -0.1756
10674TIP3   OH253436   6.315   5.514   3.578  0.6436 -0.2216  0.3204
10674TIP3    H153437   6.346   5.453   3.644 -2.5058 -2.1401  0.2496
10674TIP3    H253438   6.394   5.552   3.540  2.6056 -1.2360  3.1413
10675TIP3   OH253439   2.083   4.251   6.075 -0.1676  0.0045  0.5827
10675TIP3    H153440   2.074   4.185   6.144 -0.2152 -0.1323  0.4465
10675TIP3    H253441   2.026   4.323   6.102  1.5393  0.9513  1.8651
10676TIP3   OH253442   4.427   2.383   3.852  0.3141  0.7232  0.3427
10676TIP3    H153443   4.487   2.309   3.857 -0.2195  0.0466 -1.9929
10676TIP3    H253444   4.362   2.367   3.920  1.4321  0.2399  1.3267
10677TIP3   OH253445   6.650   0.786   1.102 -0.3597 -0.1275 -0.2575
10677TIP3    H153446   6.694   0.799   1.018  0.0286 -0.8418 -0.1716
10677TIP3    H253447   6.705   0.832   1.166 -0.5492  0.2481 -0.3623
10678TIP3   OH253448   3.851   4.294  14.057  0.0849 -0.1875 -0.0881
10678TIP3    H153449   3.794   4.221  14.082  0.7699  0.0877  2.5714
10678TIP3    H253450   3.793   4.355  14.010 -1.0705 -1.2608 -0.1060
10679TIP3   OH253451   6.623   4.049  13.996  0.3370 -0.3543 -0.0484
10679TIP3    H153452   6.676   4.004  13.929  0.5227 -0.7333  0.3480
10679TIP3    H253453   6.543   3.995  14.003  0.3867 -0.4028  0.1454
10680TIP3   OH253454   4.956   1.028   3.255  0.1353  0.2472 -0.5635
10680TIP3    H153455   4.953   1.053   3.162 -2.1704  0.3873 -0.5080
10680TIP3    H253456   4.997   1.102   3.298  1.6879 -0.0186 -1.4988
10681TIP3   OH253457   1.113   6.260  14.729  0.3044  0.0614 -0.0325
10681TIP3    H153458   1.141   6.214  14.650 -1.2238  0.2497 -0.7194
10681TIP3    H253459   1.144   6.350  14.716  4.1564 -0.8101  1.7508
10682TIP3   OH253460   2.106   5.310   2.412 -0.3303  0.9262 -0.0077
10682TIP3    H153461   2.091   5.288   2.504 -0.0447 -1.1062 -0.3950
10682TIP3    H253462   2.019   5.310   2.373 -0.2929 -0.3523 -0.1375
10683TIP3   OH253463   5.533   4.174  12.559 -0.2118 -0.5059 -0.1655
10683TIP3    H153464   5.458   4.121  12.585  1.8766 -3.5037  0.3859
10683TIP3    H253465   5.604   4.146  12.617  1.6692  1.1981 -1.4733
10684TIP3   OH253466   3.920   2.502   0.534 -0.3927 -0.9798  0.1884
10684TIP3    H153467   4.003   2.495   0.580 -0.8476 -1.5406  0.9608
10684TIP3    H253468   3.904   2.415   0.498  0.0183 -0.5085 -1.1699
10685TIP3   OH253469   0.965   1.399  12.818  0.3390 -0.3497  0.4895
10685TIP3    H153470   0.955   1.319  12.870 -0.4402  0.4375  1.6279
10685TIP3    H253471   1.019   1.456  12.873 -0.2538  0.3985  0.3076
10686TIP3   OH253472   5.879   5.962   5.645 -0.0563 -0.7069 -0.5355
10686TIP3    H153473   5.931   5.925   5.574 -0.6135 -0.9818 -0.8060
10686TIP3    H253474   5.943   6.004   5.703  0.5376 -1.6544 -0.4931
10687TIP3   OH253475   4.928   5.407   5.975  0.0138 -0.3552 -0.2731
10687TIP3    H153476   4.965   5.456   6.048 -0.2225  0.0690 -0.4363
10687TIP3    H253477   4.941   5.315   5.999  0.6113 -0.2159 -0.0450
10688TIP3   OH253478   0.072   2.572  13.128 -0.3741 -0.2522  0.0256
10688TIP3    H153479   0.107   2.651  13.085  0.7394 -0.3094  0.8007
10688TIP3    H253480   0.149   2.520  13.149 -0.8834 -0.2681  2.0171
10689TIP3   OH253481   3.950   1.564  13.420 -0.2835 -0.2940 -0.1959
10689TIP3    H153482   3.867   1.537  13.460 -0.0180  0.4006  0.8797
10689TIP3    H253483   3.927   1.596  13.333 -1.0042 -1.0365 -0.2843
10690TIP3   OH253484   3.261   3.117   4.754  0.0366 -0.2773 -0.3729
10690TIP3    H153485   3.313   3.166   4.690  0.8659 -2.0958 -1.1584
10690TIP3    H253486   3.184   3.087   4.706 -0.7112  0.5876  0.2299
10691TIP3   OH253487   1.084   5.862  13.958  0.1519  0.3830 -0.9262
10691TIP3    H153488   1.016   5.795  13.968  0.9139 -0.2345  0.4291
10691TIP3    H253489   1.149   5.839  14.025 -0.5547  3.6838  1.0982
10692TIP3   OH253490   2.148   0.472  13.850 -0.2377 -0.4044 -0.2954
10692TIP3    H153491   2.181   0.543  13.795  2.3683 -0.9764  0.3619
10692TIP3    H253492   2.060   0.500  13.875 -0.3336  1.2928 -2.2196
10693TIP3   OH253493   1.527   4.527  16.081  0.3097  0.8287 -0.1876
10693TIP3    H153494   1.525   4.583  16.158 -1.4648  0.0154  0.4100
10693TIP3    H253495   1.435   4.507  16.063  0.7871 -0.5076 -1.3985
10694TIP3   OH253496   2.775   1.121   0.130  0.1976 -0.5407  0.5374
10694TIP3    H153497   2.815   1.167   0.057  0.1252 -0.0834  0.7862
10694TIP3    H253498   2.783   1.181   0.204 -0.3964 -0.6961  0.7332
10695TIP3   OH253499   0.677   0.173   2.717  0.2254 -0.2578 -0.2758
10695TIP3    H153500   0.678   0.097   2.658  1.9138 -0.0804 -0.5025
10695TIP3    H253501   0.656   0.136   2.803 -0.0698 -0.8170 -0.5791
10696TIP3   OH253502   4.162   4.511  12.675  0.1319  0.3869 -0.0874
10696TIP3    H153503   4.231   4.578  12.678 -0.1833  0.6914  1.3730
10696TIP3    H253504   4.082   4.560  12.659  0.2030  0.0563 -1.5571
10697TIP3   OH253505   0.148   0.299   3.362 -0.7019  0.6534 -0.1688
10697TIP3    H153506   0.078   0.242   3.393 -0.5811  1.4032  1.5936
10697TIP3    H253507   0.229   0.253   3.387 -0.6037  1.5139  1.1881
10698TIP3   OH253508   6.632   5.031  13.082  0.0364 -0.4718  0.1681
10698TIP3    H153509   6.600   5.116  13.051  2.4358  0.9000  1.1236
10698TIP3    H253510   6.615   4.971  13.009 -0.0314  1.2513 -1.3154
10699TIP3   OH253511   2.482   5.768   4.264  0.0318 -0.0193  0.3456
10699TIP3    H153512   2.549   5.708   4.297  0.4701  0.5374  0.4700
10699TIP3    H253513   2.529   5.849   4.246 -0.7861  0.7334  1.4626
10700TIP3   OH253514   2.273   4.366   0.419 -0.3317 -0.0115 -0.1464
10700TIP3    H153515   2.181   4.342   0.435 -0.1571 -0.1039  0.7623
10700TIP3    H253516   2.318   4.344   0.500  0.7003 -0.9699 -0.9463
10701TIP3   OH253517   6.432   2.389  15.588 -0.2510 -0.3109  0.0220
10701TIP3    H153518   6.390   2.367  15.505  0.1635  0.5672 -0.4364
10701TIP3    H253519   6.435   2.306  15.636 -1.9268 -0.5222 -0.1679
10702TIP3   OH253520   6.734   2.015  15.061 -0.1421  0.0932 -0.1909
10702TIP3    H153521   6.777   1.930  15.046  0.5651  0.5890 -1.0559
10702TIP3    H253522   6.750   2.033  15.154  1.9702  0.4752 -0.5786
10703TIP3   OH253523   4.916   3.358   6.797  0.3503  0.1459 -0.5979
10703TIP3    H153524   4.841   3.407   6.830  0.2562 -1.1803  1.3166
10703TIP3    H253525   4.879   3.290   6.741  0.3969  1.4207 -2.2443
10704TIP3   OH253526   1.686   3.231   1.819  0.6980  0.4879 -0.4136
10704TIP3    H153527   1.677   3.275   1.903  2.3650 -0.4811  0.3157
10704TIP3    H253528   1.624   3.157   1.824  1.4783 -0.1332  0.3798
10705TIP3   OH253529   6.493   2.262  15.331  0.4860 -0.3331  0.3904
10705TIP3    H153530   6.485   2.270  15.236  1.3939  0.5966  0.3691
10705TIP3    H253531   6.536   2.178  15.344 -0.2200 -0.7590  0.0147
10706TIP3   OH253532   3.644   5.558  10.341 -0.3360  0.3881  0.1103
10706TIP3    H153533   3.715   5.563  10.405 -0.6297  0.2283  0.4596
10706TIP3    H253534   3.582   5.495  10.379 -0.4821  0.2375 -0.3692
10707TIP3   OH253535   2.620   4.531   2.809 -0.2114 -0.2133 -0.9510
10707TIP3    H153536   2.529   4.562   2.802 -0.4832 -0.8767 -0.4054
10707TIP3    H253537   2.672   4.606   2.781 -0.7988  1.1517  1.3231
10708TIP3   OH253538   2.155   0.949   1.390  0.3607 -0.7163 -0.4406
10708TIP3    H153539   2.240   0.989   1.372  1.4911 -3.1553 -0.9931
10708TIP3    H253540   2.175   0.874   1.446 -1.5944 -0.6979  0.3626
10709TIP3   OH253541   6.012   2.529  16.768 -0.4882 -0.1037 -0.0973
10709TIP3    H153542   5.948   2.574  16.823  1.3823  1.1268  1.2183
10709TIP3    H253543   5.983   2.438  16.768 -1.3644  0.1113  1.8163
10710TIP3   OH253544   0.105   4.234   0.272 -0.6992 -0.3025  0.1902
10710TIP3    H153545   0.184   4.181   0.268 -1.2228 -1.2063  1.2476
10710TIP3    H253546   0.061   4.206   0.353 -2.5591 -0.4938 -0.8286
10711TIP3   OH253547   6.561   6.091   4.656  0.0144  0.4991  0.3000
10711TIP3    H153548   6.568   6.086   4.561  0.2731 -0.6340  0.3569
10711TIP3    H253549   6.485   6.147   4.672  0.7249  1.7469 -0.5438
10712TIP3   OH253550   1.203   2.317   2.795 -0.9463 -0.4367  0.4139
10712TIP3    H153551   1.212   2.288   2.886  0.2377 -1.6168 -0.0379
10712TIP3    H253552   1.132   2.264   2.760 -0.0176 -1.5229  0.1054
10713TIP3   OH253553   6.757   0.504  14.585 -0.0044 -0.2437  0.0222
10713TIP3    H153554   6.814   0.506  14.662  2.5348 -0.3372 -1.7311
10713TIP3    H253555   6.756   0.594  14.553 -0.0154 -0.4364 -0.5301
10714TIP3   OH253556   6.364   1.202   3.147  0.1463 -0.3238  0.1145
10714TIP3    H153557   6.320   1.283   3.121  0.1920 -0.1102  0.7056
10714TIP3    H253558   6.302   1.158   3.206 -0.1318 -1.0139 -0.6588
10715TIP3   OH253559   4.818   6.312   2.834  0.2345  0.0909 -0.3391
10715TIP3    H153560   4.755   6.363   2.886  0.1685  0.2960 -0.6203
10715TIP3    H253561   4.857   6.251   2.897  0.9508  1.0694  0.1830
10716TIP3   OH253562   2.871   3.188   1.570 -0.1649  0.1467 -0.1516
10716TIP3    H153563   2.783   3.182   1.533 -0.4273 -0.4918  0.5388
10716TIP3    H253564   2.922   3.123   1.521 -0.3102 -0.1312  0.0625
10717TIP3   OH253565   2.516   1.401   5.818  0.1331 -0.0515  0.4915
10717TIP3    H153566   2.592   1.357   5.780  0.4719 -0.5197  1.6687
10717TIP3    H253567   2.545   1.429   5.904 -0.2054  2.1703 -0.0551
10718TIP3   OH253568   2.150   5.482   0.198  0.1530 -0.3727  0.1972
10718TIP3    H153569   2.176   5.528   0.278 -1.5678  0.9948  0.0269
10718TIP3    H253570   2.089   5.414   0.228  1.4823 -1.5734  0.2780
10719TIP3   OH253571   3.855   1.836   3.714  0.1595  0.2913  0.4358
10719TIP3    H153572   3.861   1.797   3.801 -0.5559  0.9749  0.8008
10719TIP3    H253573   3.934   1.890   3.706  0.2701  0.1577  0.6240
10720TIP3   OH253574   1.054   4.088   4.234 -0.2824 -0.2313  0.1140
10720TIP3    H153575   1.057   4.093   4.329 -1.6708 -0.3617  0.1833
10720TIP3    H253576   1.137   4.045   4.210  0.4461  0.5122  1.1840
10721TIP3   OH253577   1.710   2.546  17.091 -0.0672  0.3423  0.4018
10721TIP3    H153578   1.632   2.601  17.095 -0.1264  0.3624 -0.7155
10721TIP3    H253579   1.679   2.462  17.058  0.4319  0.5046 -0.5516
10722TIP3   OH253580   4.307   1.888  12.291 -0.1503 -0.2667  0.5984
10722TIP3    H153581   4.287   1.794  12.291  1.3821 -0.6233  0.2201
10722TIP3    H253582   4.388   1.896  12.342  0.4484  0.6616 -0.4444
10723TIP3   OH253583   1.154   0.257   1.864  0.0991  0.0886  0.6088
10723TIP3    H153584   1.085   0.322   1.874 -0.5217 -0.4053 -0.3031
10723TIP3    H253585   1.121   0.180   1.909 -0.1968 -0.3196 -0.2883
10724TIP3   OH253586   5.733   3.346  13.243 -0.1533 -0.1101 -0.1797
10724TIP3    H153587   5.672   3.386  13.181  0.4595  0.5790 -0.3515
10724TIP3    H253588   5.698   3.258  13.258 -3.1861  1.3030  2.3690
10725TIP3   OH253589   0.804   4.975  15.827  1.2782 -0.5626 -0.1697
10725TIP3    H153590   0.833   4.989  15.737  1.0332 -0.7982 -0.2885
10725TIP3    H253591   0.814   5.060  15.869  1.1021 -0.3758 -0.5021
10726TIP3   OH253592   2.205   6.668  16.992  0.4541 -0.1244 -0.3572
10726TIP3    H153593   2.160   6.597  16.946  0.1162  0.8630 -1.6196
10726TIP3    H253594   2.148   6.688  17.066 -0.3014 -0.0865 -0.9341
10727TIP3   OH253595   4.775   4.594   1.867 -0.8100  0.2348  0.6748
10727TIP3    H153596   4.723   4.515   1.855  0.1628 -0.1127 -1.7585
10727TIP3    H253597   4.864   4.563   1.881 -0.5706  0.8873  0.6481
10728TIP3   OH253598   6.731   0.883   6.621  0.2374 -0.5784  0.6600
10728TIP3    H153599   6.802   0.923   6.672  0.3570  0.0448  0.0199
10728TIP3    H253600   6.775   0.820   6.564  0.3914  0.3649 -0.2961
10729TIP3   OH253601   5.257   5.639   2.602 -0.4400  0.6230 -0.1263
10729TIP3    H153602   5.333   5.696   2.593 -0.0099  0.2324  0.9441
10729TIP3    H253603   5.293   5.552   2.619 -1.1072  0.1700 -0.9341
10730TIP3   OH253604   1.351   2.088   5.134  0.4579  0.4875  0.2861
10730TIP3    H153605   1.295   2.164   5.116  0.4008  0.0428 -1.6315
10730TIP3    H253606   1.436   2.125   5.157 -0.2995  1.1491  2.3050
10731TIP3   OH253607   0.019   0.917   2.443  0.2606 -0.0816 -0.1406
10731TIP3    H153608  -0.026   0.998   2.464 -0.3056 -0.7235  1.3223
10731TIP3    H253609   0.110   0.942   2.429 -0.0549  0.8905 -0.4925
10732TIP3   OH253610   6.674   4.174  11.210  0.4839 -0.8201 -0.5082
10732TIP3    H153611   6.740   4.227  11.254  0.9749 -1.2773 -0.6788
10732TIP3    H253612   6.653   4.105  11.273  0.5318 -0.9625 -0.6481
10733TIP3   OH253613   1.592   5.085  11.386 -1.2005 -0.1327 -0.5109
10733TIP3    H153614   1.538   5.163  11.398 -0.6687  0.0687  0.7043
10733TIP3    H253615   1.655   5.111  11.319 -0.6997  0.6722  0.2491
10734TIP3   OH253616   5.614   4.119  11.943 -0.6447  0.4977  0.7221
10734TIP3    H153617   5.709   4.130  11.946 -0.4741 -0.7301  0.2839
10734TIP3    H253618   5.595   4.095  11.853 -1.4096  0.9668  0.7478
10735TIP3   OH253619   5.241   0.752   2.401 -0.1852 -0.4581  0.0947
10735TIP3    H153620   5.163   0.808   2.402 -0.0542 -0.2416 -0.5596
10735TIP3    H253621   5.267   0.750   2.308  0.7357 -0.3096  0.3403
10736TIP3   OH253622   3.091   3.377   1.546 -0.4174 -0.2474 -0.5441
10736TIP3    H153623   3.037   3.454   1.532  0.6841  0.4014 -1.3642
10736TIP3    H253624   3.029   3.304   1.549 -1.3605  0.5115 -1.1093
10737TIP3   OH253625   0.036   6.279   3.014 -0.4384  0.1554  0.4928
10737TIP3    H153626   0.069   6.262   2.926  1.5451 -0.2445  1.2560
10737TIP3    H253627  -0.058   6.259   3.010 -0.5810  1.0262 -1.7298
10738TIP3   OH253628   1.223   3.815  12.275 -0.3146 -0.3779 -0.5232
10738TIP3    H153629   1.142   3.808  12.325  0.5653  2.1786  1.4769
10738TIP3    H253630   1.210   3.892  12.219  0.9553  0.5244  0.3770
10739TIP3   OH253631   1.020   0.531  16.054 -0.0209  0.3160  0.2385
10739TIP3    H153632   0.942   0.517  16.108  0.1047 -0.7530  0.1778
10739TIP3    H253633   1.075   0.589  16.107 -1.1690  1.7098 -0.0531
10740TIP3   OH253634   0.726   5.550   6.052 -0.4893 -0.1244 -0.0323
10740TIP3    H153635   0.689   5.610   5.987  1.5852  0.6931 -0.5406
10740TIP3    H253636   0.813   5.586   6.071  0.5394 -2.5608  0.2135
10741TIP3   OH253637   6.402   3.052  16.706  0.6697 -0.0439 -0.2209
10741TIP3    H153638   6.417   3.052  16.611  1.4947  0.4543 -0.1044
10741TIP3    H253639   6.489   3.038  16.743  0.4746  0.5563  0.4775
10742TIP3   OH253640   0.813   4.755  16.303  0.1338  0.0420 -0.3768
10742TIP3    H153641   0.733   4.801  16.329  0.9809  1.3095  0.0859
10742TIP3    H253642   0.882   4.795  16.357  0.9655 -1.5688 -0.1895
10743TIP3   OH253643   6.115   1.399   2.132  0.0252 -0.0206  0.8495
10743TIP3    H153644   6.088   1.483   2.170 -0.1524 -0.1653  1.0506
10743TIP3    H253645   6.204   1.414   2.101 -0.1006  0.3159  0.6466
10744TIP3   OH253646   3.553   6.218   4.264 -0.1467 -0.1084 -1.4851
10744TIP3    H153647   3.527   6.149   4.203  3.4181  0.1609 -3.5453
10744TIP3    H253648   3.648   6.218   4.261  0.1181  2.0093  1.8699
10745TIP3   OH253649   5.331   4.483  15.854 -0.4872 -0.0156  0.5600
10745TIP3    H153650   5.284   4.548  15.906 -2.4432 -0.2106 -0.8592
10745TIP3    H253651   5.329   4.518  15.765  1.9969 -0.1229  0.3811
10746TIP3   OH253652   6.597   2.332  13.379  0.3538  0.9192 -0.1154
10746TIP3    H153653   6.535   2.279  13.428  1.0609 -0.2649 -0.4587
10746TIP3    H253654   6.556   2.346  13.294 -0.4529  2.1555  0.4576
10747TIP3   OH253655   6.025   6.204  14.594 -0.0743 -0.1137  0.0268
10747TIP3    H153656   6.032   6.118  14.634 -0.1272 -0.0440  0.1866
10747TIP3    H253657   6.015   6.265  14.668  0.7344  0.1120 -0.0426
10748TIP3   OH253658   5.520   3.878  14.012  0.4502  0.1954 -0.2099
10748TIP3    H153659   5.597   3.886  13.955  1.5207 -0.9563  1.0066
10748TIP3    H253660   5.478   3.797  13.983 -1.0401  1.4148 -1.6567
10749TIP3   OH253661   1.137   3.312   4.726 -0.6111 -0.1227  0.4446
10749TIP3    H153662   1.154   3.297   4.819 -0.2301  0.4828  0.4762
10749TIP3    H253663   1.061   3.256   4.706 -0.7022 -0.2454  1.1162
10750TIP3   OH253664   0.180   3.379   3.007  0.3268 -0.1994  0.5300
10750TIP3    H153665   0.126   3.368   3.085  1.3871  0.8606  1.4341
10750TIP3    H253666   0.250   3.438   3.033  0.3868  0.6692 -1.3895
10751TIP3   OH253667   5.198   3.425   1.845  0.6023  0.1235 -0.0735
10751TIP3    H153668   5.177   3.518   1.855 -1.2683  0.0110 -2.2024
10751TIP3    H253669   5.280   3.424   1.796  0.3941  0.6778 -0.4442
10752TIP3   OH253670   2.946   0.891  16.216  0.6988  0.0159  0.0275
10752TIP3    H153671   2.859   0.855  16.199  0.6006  0.4985 -0.5284
10752TIP3    H253672   2.961   0.875  16.309  0.4913 -1.0863 -0.1096
10753TIP3   OH253673   1.841   0.405  15.835  0.2729 -0.4779 -0.7886
10753TIP3    H153674   1.761   0.407  15.783 -0.2478  1.7280  0.0044
10753TIP3    H253675   1.878   0.493  15.826  1.1568 -0.6158  1.0367
10754TIP3   OH253676   0.939   0.258  10.912  0.1425  0.0363 -0.2119
10754TIP3    H153677   1.005   0.205  10.867  0.7224  0.8382 -0.3263
10754TIP3    H253678   0.978   0.346  10.917 -0.4788  0.2714  0.6578
10755TIP3   OH253679   4.139   6.423   0.111 -0.2998 -0.0382  0.1822
10755TIP3    H153680   4.198   6.443   0.184 -0.0939  1.8504 -0.4478
10755TIP3    H253681   4.198   6.404   0.038 -0.5047 -1.6856  0.4156
10756TIP3   OH253682   4.535   3.351  15.695  0.4078  0.1204 -0.5078
10756TIP3    H153683   4.604   3.318  15.752 -0.4474  1.2621  1.2768
10756TIP3    H253684   4.464   3.287  15.704  0.3886  0.1405 -0.5157
10757TIP3   OH253685   4.064   0.890   3.682  0.4467  0.0034  0.5514
10757TIP3    H153686   4.082   0.871   3.590  0.3299  0.5138  0.4182
10757TIP3    H253687   4.004   0.822   3.710 -2.1772  1.6563 -0.6677
10758TIP3   OH253688   3.825   5.896  12.572  0.2109  0.0381 -0.1021
10758TIP3    H153689   3.812   5.871  12.480  1.3519  0.4399 -0.3846
10758TIP3    H253690   3.792   5.986  12.576 -0.4825 -0.2171  0.0539
10759TIP3   OH253691   6.165   6.243   1.743 -0.5822  0.2859  0.0407
10759TIP3    H153692   6.072   6.256   1.762 -0.2014  2.7943  0.5379
10759TIP3    H253693   6.166   6.190   1.664 -2.4564  0.7033 -0.3120
10760TIP3   OH253694   1.832   1.283  16.619 -0.1097  0.5895 -0.4017
10760TIP3    H153695   1.831   1.328  16.704 -3.5298 -1.4220  0.8297
10760TIP3    H253696   1.883   1.204  16.636 -0.1632  0.5462 -0.4462
10761TIP3   OH253697   5.140   0.108   4.504 -0.1139 -0.0266  0.2911
10761TIP3    H153698   5.225   0.065   4.507 -0.2341 -0.2395  0.8134
10761TIP3    H253699   5.084   0.054   4.560 -0.1414  1.0634  1.3699
10762TIP3   OH253700   3.056   5.691  14.172  0.4711 -0.6155 -0.7485
10762TIP3    H153701   3.099   5.743  14.239 -0.5403  1.1959 -1.4172
10762TIP3    H253702   3.047   5.750  14.097 -0.7429 -1.7565 -1.5647
10763TIP3   OH253703   5.265   3.918   4.101 -0.4297 -0.1987 -0.8643
10763TIP3    H153704   5.176   3.943   4.127 -0.7526 -0.7945 -1.3811
10763TIP3    H253705   5.269   3.824   4.116  0.1697 -0.1522 -0.7037
10764TIP3   OH253706   4.239   3.659  10.596 -0.2636  0.8331 -0.8600
10764TIP3    H153707   4.168   3.673  10.533 -0.4128  1.4901 -0.5529
10764TIP3    H253708   4.194   3.627  10.675 -0.1615  0.7949 -0.8180
10765TIP3   OH253709   3.122   3.848   5.949 -0.3024  0.1195 -0.5980
10765TIP3    H153710   3.074   3.931   5.948 -1.0247 -0.2792  0.0228
10765TIP3    H253711   3.085   3.798   5.876  0.2799  0.4149 -1.1048
10766TIP3   OH253712   6.767   2.662  13.365  0.2926 -0.1569 -0.8490
10766TIP3    H153713   6.680   2.696  13.344  0.7778  1.7892  0.0669
10766TIP3    H253714   6.816   2.669  13.283 -0.0720 -0.1336 -1.0651
10767TIP3   OH253715   4.030   6.366  12.584 -0.2809 -0.4047 -0.2059
10767TIP3    H153716   4.098   6.364  12.517 -0.3742  0.8681 -0.3505
10767TIP3    H253717   4.076   6.383  12.666 -0.2613 -1.1357 -0.0558
10768TIP3   OH253718   4.253   1.860  13.631 -0.0809  0.0518 -0.0090
10768TIP3    H153719   4.331   1.816  13.666 -0.6752 -1.3364 -0.3664
10768TIP3    H253720   4.282   1.949  13.613  1.2940 -0.3046  0.3219
10769TIP3   OH253721   5.604   4.719   0.192  0.2015  0.0988 -0.4726
10769TIP3    H153722   5.696   4.742   0.201  0.3079 -0.7338  0.6923
10769TIP3    H253723   5.585   4.661   0.265 -0.5437 -1.9801 -2.1926
10770TIP3   OH253724   6.014   6.002   4.685  0.5006 -0.1262  0.1359
10770TIP3    H153725   5.934   5.979   4.639 -0.3340  1.0122  0.9833
10770TIP3    H253726   6.059   5.918   4.698  0.0413 -0.6329 -1.3906
10771TIP3   OH253727   3.436   2.396  14.862  0.0226 -0.1282 -0.1040
10771TIP3    H153728   3.521   2.387  14.819  0.5971 -1.4808  1.2373
10771TIP3    H253729   3.405   2.484  14.836  2.7573  1.2805  1.0121
10772TIP3   OH253730   2.967   4.925  10.691 -0.2993  0.5591  0.4476
10772TIP3    H153731   2.937   4.834  10.690 -1.5654  0.9405  1.2884
10772TIP3    H253732   2.895   4.974  10.651  0.1531  1.2596  0.4736
10773TIP3   OH253733   3.679   4.471  13.942 -0.1525 -0.3466 -0.3485
10773TIP3    H153734   3.668   4.562  13.968 -2.0074 -0.6803  0.1920
10773TIP3    H253735   3.592   4.444  13.912  0.6765 -1.5437 -1.8743
10774TIP3   OH253736   5.056   1.077   0.126  0.5444 -0.4309 -0.1278
10774TIP3    H153737   5.045   1.081   0.221 -0.6717  0.9664 -0.2847
10774TIP3    H253738   5.037   0.986   0.102 -1.9660 -0.1928  0.6919
10775TIP3   OH253739   5.164   3.986  15.086  0.5023 -0.1443  0.0847
10775TIP3    H153740   5.141   4.051  15.019 -3.6861 -0.4489  0.9611
10775TIP3    H253741   5.193   4.038  15.161  0.9132  0.4474 -0.4731
10776TIP3   OH253742   6.340   5.981   0.867 -0.3572  0.4429  0.5534
10776TIP3    H153743   6.347   5.985   0.772  0.8439  1.2312  0.6629
10776TIP3    H253744   6.264   6.037   0.888 -0.4454  0.4990  0.0857
10777TIP3   OH253745   0.212   0.219  12.808 -0.0004  0.6022 -0.3344
10777TIP3    H153746   0.286   0.274  12.782  0.3422  0.0166 -0.6132
10777TIP3    H253747   0.222   0.210  12.903 -0.3300  1.4004 -0.2120
10778TIP3   OH253748   4.320   1.133  14.293 -0.1109 -0.3982  0.8646
10778TIP3    H153749   4.343   1.176  14.376  0.3923 -0.4007  0.7279
10778TIP3    H253750   4.343   1.041  14.307 -0.0387 -0.4009  0.7289
10779TIP3   OH253751   1.948   0.913   0.664  0.1314  0.2700 -0.3602
10779TIP3    H153752   1.993   0.829   0.679  0.6719  0.2757 -1.7869
10779TIP3    H253753   1.998   0.976   0.717  1.4729  0.1571 -1.4152
10780TIP3   OH253754   3.182   2.141  12.920 -0.0953  0.5320  0.1943
10780TIP3    H153755   3.196   2.178  13.007 -1.5211 -0.3129  0.8095
10780TIP3    H253756   3.116   2.073  12.933 -0.3479  0.4049 -1.5618
10781TIP3   OH253757   4.025   0.218   3.005  0.5684  0.1968 -0.1091
10781TIP3    H153758   3.962   0.223   2.933  0.1869  0.5301  0.2505
10781TIP3    H253759   4.089   0.287   2.986  1.7968 -1.1811 -1.3754
10782TIP3   OH253760   4.783   0.823   6.081 -0.3778  0.0889 -0.2108
10782TIP3    H153761   4.831   0.841   6.162  0.3896 -0.8677 -0.4375
10782TIP3    H253762   4.786   0.906   6.033  0.0139  0.3775  0.3008
10783TIP3   OH253763   0.188   2.414  11.737  0.1439  0.3186 -0.0621
10783TIP3    H153764   0.243   2.414  11.815 -1.3904  1.0809  1.0885
10783TIP3    H253765   0.108   2.461  11.764 -0.9153 -0.4103 -1.7401
10784TIP3   OH253766   3.012   6.126  17.137 -0.3029  0.2863 -0.1071
10784TIP3    H153767   3.079   6.069  17.174 -0.3545  1.7079  2.4883
10784TIP3    H253768   3.061   6.193  17.089 -0.2475 -1.7762 -3.1934
10785TIP3   OH253769   0.510   5.800   5.015  0.2857 -0.2920  0.1709
10785TIP3    H153770   0.465   5.885   5.010 -0.7076 -0.7610  0.7481
10785TIP3    H253771   0.510   5.778   5.108  0.5516 -0.9101  0.0304
10786TIP3   OH253772   6.347   2.109  13.313  0.0018 -0.2663 -0.0156
10786TIP3    H153773   6.408   2.086  13.243 -0.2498 -0.8402 -0.0503
10786TIP3    H253774   6.263   2.077  13.282 -0.6062  1.6899 -0.5862
10787TIP3   OH253775   2.989   5.995   3.259  0.0659 -0.2113  0.0555
10787TIP3    H153776   2.948   5.947   3.332 -0.9701 -0.0045 -0.3671
10787TIP3    H253777   3.030   6.070   3.301  0.8501 -0.9321  0.6080
10788TIP3   OH253778   5.850   4.033   3.170  0.6940  0.1829  0.4935
10788TIP3    H153779   5.824   4.070   3.086 -0.6858  1.0556  1.2640
10788TIP3    H253780   5.860   3.939   3.153  0.3955  0.3420 -0.6281
10789TIP3   OH253781   1.949   2.939  16.321  0.0174 -0.0345 -0.5280
10789TIP3    H153782   1.987   2.972  16.402  1.4608 -0.3911 -1.0205
10789TIP3    H253783   2.018   2.884  16.283 -0.8925 -0.4557 -1.6375
10790TIP3   OH253784   0.898   3.335  15.016 -1.1804  0.2726  0.1209
10790TIP3    H153785   0.924   3.262  15.072  0.9057  0.8382 -0.0541
10790TIP3    H253786   0.943   3.319  14.933 -1.7929  1.0554 -0.3763
10791TIP3   OH253787   2.088   3.905   0.517  0.2044  0.2956  0.3183
10791TIP3    H153788   2.117   3.991   0.546  0.7777 -0.0852  0.9128
10791TIP3    H253789   2.010   3.922   0.465  0.0027  1.1304  0.8723
10792TIP3   OH253790   2.865   0.717   5.277 -0.0217 -0.0385 -0.3193
10792TIP3    H153791   2.776   0.749   5.295 -1.0259 -2.0382 -1.3424
10792TIP3    H253792   2.865   0.700   5.183  0.9734 -1.3754 -0.0991
10793TIP3   OH253793   1.632   0.505  11.664  0.4738 -0.1317  0.2661
10793TIP3    H153794   1.537   0.501  11.675  0.3817  0.9153 -0.0553
10793TIP3    H253795   1.666   0.436  11.721 -0.5949 -2.0443 -1.2887
10794TIP3   OH253796   6.109   0.650  17.191  0.1074  0.3635 -0.2995
10794TIP3    H153797   6.028   0.663  17.142  1.1899  1.3780 -1.8889
10794TIP3    H253798   6.147   0.570  17.155 -0.3001 -0.2709  0.6414
10795TIP3   OH253799   1.152   5.912   3.028  0.0098  0.5450 -0.2016
10795TIP3    H153800   1.056   5.916   3.036  0.0978  0.9993  0.7538
10795TIP3    H253801   1.179   6.003   3.022  0.4184  0.4348 -0.0218
10796TIP3   OH253802   1.439   4.354   5.623 -0.2847 -0.4181 -0.6319
10796TIP3    H153803   1.349   4.344   5.592 -0.3954 -0.2413 -0.3778
10796TIP3    H253804   1.456   4.273   5.671 -0.8730  0.1881  0.6722
10797TIP3   OH253805   0.260   2.446   0.818  0.6426  0.4264 -0.5092
10797TIP3    H153806   0.191   2.478   0.876 -0.6194  0.0606 -1.7629
10797TIP3    H253807   0.276   2.519   0.757  3.2545  1.5314  1.2882
10798TIP3   OH253808   6.728   6.623   5.488 -0.0992 -0.3910  1.2133
10798TIP3    H153809   6.702   6.647   5.577 -2.2074  0.3072  0.4489
10798TIP3    H253810   6.762   6.704   5.450  1.3628 -0.8216  1.5209
10799TIP3   OH253811   2.624   4.627   0.843 -0.4728  0.0323 -0.7873
10799TIP3    H153812   2.548   4.624   0.900 -0.7365  0.1038 -1.1336
10799TIP3    H253813   2.591   4.602   0.757  0.1099 -1.0468 -0.7116
10800TIP3   OH253814   5.069   4.204  12.694  0.5371 -0.0866 -0.1378
10800TIP3    H153815   5.011   4.259  12.746 -1.1709 -0.1925 -1.8056
10800TIP3    H253816   5.157   4.235  12.715 -0.2535  1.9156  0.4700
10801TIP3   OH253817   4.036   3.588  12.571  0.0183 -0.3892 -0.2272
10801TIP3    H153818   3.969   3.576  12.503  0.0810  1.6582 -0.7308
10801TIP3    H253819   4.112   3.622  12.523  0.2274  0.6245  0.7835
10802TIP3   OH253820   5.625   1.183   0.414 -0.2834 -0.6670 -0.0357
10802TIP3    H153821   5.535   1.153   0.407 -0.4931 -0.1045  0.2282
10802TIP3    H253822   5.626   1.270   0.376 -0.5258  0.6043  2.6550
10803TIP3   OH253823   5.479   4.238   2.125  0.1260 -0.6773 -0.7634
10803TIP3    H153824   5.471   4.314   2.067  0.1185 -1.2962 -1.5917
10803TIP3    H253825   5.410   4.179   2.096 -0.6728 -0.5045  0.6752
10804TIP3   OH253826   3.738   5.395   3.521 -0.0578 -0.0208 -0.0989
10804TIP3    H153827   3.709   5.484   3.504 -2.3702 -1.0313 -1.9846
10804TIP3    H253828   3.775   5.365   3.438 -0.5983 -1.2564  0.0743
10805TIP3   OH253829   4.855   4.530   2.711 -0.3557  0.0499  0.3048
10805TIP3    H153830   4.846   4.578   2.628 -1.9077  0.2361  0.5603
10805TIP3    H253831   4.766   4.523   2.744  0.2260 -0.1778  1.8848
10806TIP3   OH253832   4.713   6.507  15.429 -0.4772 -0.1262  0.3468
10806TIP3    H153833   4.738   6.503  15.337  0.4510  4.1555  0.2468
10806TIP3    H253834   4.776   6.451  15.474  1.5085  0.7283 -1.2597
10807TIP3   OH253835   4.943   2.355   3.743 -0.0123  0.3310  0.0534
10807TIP3    H153836   4.858   2.327   3.711 -0.2558  1.7934 -0.6464
10807TIP3    H253837   4.993   2.273   3.753 -1.2088 -0.4718 -0.3057
10808TIP3   OH253838   6.343   2.168  15.737  0.0911  0.3402  0.3942
10808TIP3    H153839   6.342   2.073  15.727  1.2915  0.3088  0.4189
10808TIP3    H253840   6.301   2.183  15.822  0.1040 -0.1832  0.4963
10809TIP3   OH253841   0.827   0.729   2.498 -0.1422 -0.3463  0.0304
10809TIP3    H153842   0.821   0.645   2.543  1.5646 -0.7071 -0.3553
10809TIP3    H253843   0.820   0.794   2.568  0.4047 -0.8536  0.5665
10810TIP3   OH253844   1.427   6.231  12.936  0.3931  0.1441 -0.1392
10810TIP3    H153845   1.389   6.270  13.015  0.2011 -0.1507 -0.0817
10810TIP3    H253846   1.353   6.226  12.874  0.7043  1.0356 -0.5935
10811TIP3   OH253847   6.047   1.742  16.216 -0.3856 -0.1563  0.5198
10811TIP3    H153848   6.044   1.797  16.294  2.4579  1.6226 -0.4928
10811TIP3    H253849   6.013   1.797  16.146  2.2806  0.3748 -0.4660
10812TIP3   OH253850   1.606   4.274  16.542  0.4183  0.2951 -0.3200
10812TIP3    H153851   1.535   4.284  16.605  1.3568  1.4782  0.5935
10812TIP3    H253852   1.623   4.363  16.510  0.2770 -0.2151 -1.9290
10813TIP3   OH253853   4.029   2.426  13.108  0.2054 -0.4891  0.0200
10813TIP3    H153854   3.967   2.452  13.177  0.1021 -0.1520 -0.1942
10813TIP3    H253855   4.114   2.455  13.139 -0.0297  0.9812 -0.6345
10814TIP3   OH253856   4.832   4.983   0.547  0.3914 -0.0484  0.1816
10814TIP3    H153857   4.776   4.932   0.605 -0.8282  0.9497 -0.0682
10814TIP3    H253858   4.832   5.071   0.584 -0.7946  0.7281 -1.5280
10815TIP3   OH253859   1.038   2.366   4.695  0.3800 -0.2975 -0.3306
10815TIP3    H153860   1.110   2.419   4.729 -0.3630  0.3872  0.2177
10815TIP3    H253861   0.993   2.334   4.773 -1.3669  1.3252 -0.6088
10816TIP3   OH253862   3.269   2.578   2.959  0.0043  0.4474 -0.0101
10816TIP3    H153863   3.357   2.544   2.977  0.8928  2.8292  0.4093
10816TIP3    H253864   3.211   2.514   3.000  1.6485  0.2749  2.2609
10817TIP3   OH253865   3.528   5.371   5.274  0.1166 -0.2177 -0.6832
10817TIP3    H153866   3.466   5.312   5.317 -0.8214  1.3025  0.1434
10817TIP3    H253867   3.602   5.376   5.333 -1.3030  2.1172  1.0557
10818TIP3   OH253868   0.388   3.215   0.522  0.0307  0.1461  0.3733
10818TIP3    H153869   0.390   3.122   0.544  1.6165 -0.1567 -0.8701
10818TIP3    H253870   0.295   3.234   0.507 -0.2634 -1.3711  0.1271
10819TIP3   OH253871   0.987   6.219   5.930  0.5699  0.5594  0.0608
10819TIP3    H153872   0.943   6.184   5.852  0.6775 -1.6700  0.9487
10819TIP3    H253873   1.048   6.151   5.956  0.2053  1.0295  2.3895
10820TIP3   OH253874   6.589   4.641  13.817 -0.4147  0.0644  0.1121
10820TIP3    H153875   6.673   4.643  13.772 -0.5844  2.3409 -0.1888
10820TIP3    H253876   6.530   4.593  13.758  0.2765 -0.2283 -0.3472
10821TIP3   OH253877   0.464   5.421  13.235  0.3728  0.0626 -0.9920
10821TIP3    H153878   0.552   5.457  13.219 -0.3868  2.3155 -0.4805
10821TIP3    H253879   0.433   5.468  13.312 -1.0743 -1.1361 -0.8025
10822TIP3   OH253880   6.594   1.986   3.908  0.0600  0.2002  0.1986
10822TIP3    H153881   6.569   2.013   3.996 -1.1916  2.3461 -0.7498
10822TIP3    H253882   6.647   2.058   3.875  1.5623 -1.1220 -0.4150
10823TIP3   OH253883   3.960   5.435  12.888  0.7817 -0.3307  0.9273
10823TIP3    H153884   3.873   5.400  12.909  0.8431 -0.4067  1.0603
10823TIP3    H253885   3.972   5.509  12.947 -0.3809  1.5335 -1.0489
10824TIP3   OH253886   6.777   2.241  13.038  0.0403  0.0762  0.1851
10824TIP3    H153887   6.797   2.256  13.130  2.2762 -0.7996 -0.0859
10824TIP3    H253888   6.828   2.308  12.992  0.4438 -0.6715 -0.4763
10825TIP3   OH253889   2.706   4.970   2.292  0.0829 -0.1281 -0.0792
10825TIP3    H153890   2.654   5.043   2.324 -0.1540 -0.4588  0.2975
10825TIP3    H253891   2.643   4.910   2.254  0.4339  0.6584 -2.0042
10826TIP3   OH253892   0.691   0.938   2.132 -0.0796 -0.2894  0.2724
10826TIP3    H153893   0.705   0.843   2.138  0.1110 -0.2959 -0.2290
10826TIP3    H253894   0.602   0.947   2.100 -0.6642 -0.2702  1.8205
10827TIP3   OH253895   1.356   3.831  10.999 -0.0398  0.0612 -0.0678
10827TIP3    H153896   1.318   3.897  11.056 -0.6214 -0.0494 -0.3163
10827TIP3    H253897   1.409   3.880  10.936 -1.8093  0.4763 -1.3070
10828TIP3   OH253898   2.421   1.426   3.409  0.1909 -0.0217 -0.3919
10828TIP3    H153899   2.497   1.420   3.467  0.6549 -1.7755 -1.0957
10828TIP3    H253900   2.368   1.350   3.431 -0.1302 -0.1547 -1.5428
10829TIP3   OH253901   3.893   1.781   6.300  0.4894  0.5641  0.7597
10829TIP3    H153902   3.908   1.696   6.342 -0.2607  0.7131  1.3315
10829TIP3    H253903   3.980   1.821   6.297  0.9019 -0.3331  0.2282
10830TIP3   OH253904   5.482   0.081  15.451 -0.2977 -0.0999  0.4427
10830TIP3    H153905   5.572   0.111  15.462 -0.0181 -1.1138  1.0155
10830TIP3    H253906   5.471   0.012  15.516 -1.5704  0.1665  0.5422
10831TIP3   OH253907   1.343   0.589   3.410  0.4787 -0.3087 -0.1732
10831TIP3    H153908   1.327   0.581   3.316  2.7833  1.2023 -0.7821
10831TIP3    H253909   1.265   0.634   3.444 -1.0455 -2.1723 -1.0330
10832TIP3   OH253910   2.715   5.713   4.756  0.0566  0.2773 -0.8062
10832TIP3    H153911   2.726   5.808   4.751 -1.2357  0.4823 -0.2605
10832TIP3    H253912   2.680   5.698   4.844 -0.1421 -0.6616 -1.0397
10833TIP3   OH253913   0.776   5.974   4.905 -0.6059 -0.1611 -0.0173
10833TIP3    H153914   0.836   5.906   4.873 -0.3600  0.0500 -0.0072
10833TIP3    H253915   0.692   5.929   4.914 -0.4448 -0.4646 -0.0113
10834TIP3   OH253916   0.822   4.737  15.961  0.4287 -0.2478  0.8276
10834TIP3    H153917   0.829   4.766  16.052  2.8018 -1.2530  1.0212
10834TIP3    H253918   0.839   4.816  15.910  1.3928 -0.1278  1.3028
10835TIP3   OH253919   2.132   5.269   2.677 -0.1408 -0.1822 -0.0949
10835TIP3    H153920   2.088   5.187   2.699  2.0861 -1.5480 -0.4866
10835TIP3    H253921   2.178   5.294   2.757  0.9721 -0.5261 -0.6135
10836TIP3   OH253922   6.562   1.315  11.362 -0.0590  0.1929  0.6744
10836TIP3    H153923   6.609   1.390  11.325  1.0778 -0.6613  0.3184
10836TIP3    H253924   6.470   1.338  11.354  0.2442  1.2503 -0.0699
10837TIP3   OH253925   4.154   4.858  15.038  0.0203 -0.0046 -0.1706
10837TIP3    H153926   4.105   4.811  15.105  0.1777  0.7437  0.4812
10837TIP3    H253927   4.099   4.932  15.015  0.3154  0.1732 -0.3141
10838TIP3   OH253928   4.503   3.696  15.837 -0.2786  0.4020 -0.1085
10838TIP3    H153929   4.523   3.628  15.902  2.8790  2.5780  1.4419
10838TIP3    H253930   4.492   3.776  15.888 -1.3317  1.5707 -2.0529
10839TIP3   OH253931   4.723   6.174   4.005  0.2459  0.6432  0.2450
10839TIP3    H153932   4.669   6.252   3.995  0.6382  0.8859  0.0236
10839TIP3    H253933   4.683   6.109   3.946  1.5498  1.5349 -1.7154
10840TIP3   OH253934   4.540   5.555   4.790  0.4103  0.0577 -0.0371
10840TIP3    H153935   4.488   5.633   4.767  0.2444 -0.0161  0.0835
10840TIP3    H253936   4.590   5.583   4.867 -0.0952 -0.1407  0.3671
10841TIP3   OH253937   3.455   0.305  11.562 -0.3878  0.2893  0.0516
10841TIP3    H153938   3.467   0.244  11.635 -0.3920  1.1859  0.8195
10841TIP3    H253939   3.404   0.376  11.599  0.9306  1.5128 -0.3976
10842TIP3   OH253940   4.001   2.038  16.355  0.1098  0.0317 -0.8023
10842TIP3    H153941   4.093   2.029  16.332  0.2174  0.1598 -0.4240
10842TIP3    H253942   3.998   2.023  16.450 -0.4964 -1.7770 -1.0646
10843TIP3   OH253943   4.712   6.748   4.497 -0.0867 -0.2278  0.0340
10843TIP3    H153944   4.639   6.805   4.520  0.3731  0.5164 -0.2990
10843TIP3    H253945   4.701   6.732   4.403  0.2799  0.0532 -0.0603
10844TIP3   OH253946   3.452   4.785  11.441  0.2318 -0.3413 -0.0979
10844TIP3    H153947   3.516   4.762  11.508 -0.1199  1.5971  0.9661
10844TIP3    H253948   3.385   4.717  11.447  1.0271 -1.1189  0.3316
10845TIP3   OH253949   4.183   4.464  13.307 -0.1453 -0.5540 -0.0405
10845TIP3    H153950   4.187   4.416  13.390  0.8810 -0.1922  0.1350
10845TIP3    H253951   4.252   4.531  13.314 -0.8933  0.3209 -0.6670
10846TIP3   OH253952   4.065   6.041  13.634 -0.0570 -0.2057  0.4698
10846TIP3    H153953   3.985   6.092  13.618  0.3604 -0.1328 -1.7703
10846TIP3    H253954   4.061   6.019  13.727 -1.8658  1.1695  0.7892
10847TIP3   OH253955   1.760   3.762   5.727  0.1113  0.0233 -0.4924
10847TIP3    H153956   1.775   3.800   5.814  0.0281 -1.5885  0.2469
10847TIP3    H253957   1.832   3.700   5.715 -0.2932 -0.3064 -1.2776
10848TIP3   OH253958   3.323   5.000  15.615 -0.0943 -0.3338  0.0163
10848TIP3    H153959   3.248   4.993  15.556  0.4324 -0.7076 -0.6241
10848TIP3    H253960   3.285   4.993  15.702 -0.8552 -0.0825 -0.2813
10849TIP3   OH253961   4.678   3.718   4.108  0.3941 -0.1772 -0.1478
10849TIP3    H153962   4.723   3.636   4.087  1.2048 -0.1787  1.3891
10849TIP3    H253963   4.597   3.691   4.151  0.1301 -0.1700 -0.6380
10850TIP3   OH253964   0.092   5.915   4.578 -0.6908  0.0870  0.0297
10850TIP3    H153965   0.012   5.916   4.630  0.9751 -1.8199  2.9415
10850TIP3    H253966   0.103   6.005   4.549 -3.7683  0.4296 -0.3661
10851TIP3   OH253967   3.444   4.150   1.831  0.1452  0.0826 -0.3849
10851TIP3    H153968   3.479   4.232   1.796  0.3564 -0.5901 -1.8060
10851TIP3    H253969   3.349   4.160   1.826  0.0465  1.3660  2.2056
10852TIP3   OH253970   0.821   2.833   2.527 -0.3919 -0.1411 -0.1831
10852TIP3    H153971   0.791   2.871   2.445 -1.7026  0.9236  0.7241
10852TIP3    H253972   0.763   2.758   2.542 -0.8099  0.2585  0.2328
10853TIP3   OH253973   0.743   6.471  13.377  0.1814  0.2805  1.0153
10853TIP3    H153974   0.776   6.451  13.289  0.5494 -0.4970  1.3232
10853TIP3    H253975   0.731   6.385  13.418 -2.2134  0.4994  0.9229
10854TIP3   OH253976   1.646   0.678  14.956 -0.0546 -0.2339  0.0752
10854TIP3    H153977   1.574   0.720  14.908  0.9218 -0.1740 -1.3856
10854TIP3    H253978   1.687   0.750  15.004 -0.9835 -0.2804  0.9844
10855TIP3   OH253979   0.189   4.551  15.204  0.5737 -0.8899 -0.0282
10855TIP3    H153980   0.104   4.507  15.212  0.3039 -0.1789  1.2691
10855TIP3    H253981   0.231   4.508  15.130 -0.0121 -2.7792  0.6731
10856TIP3   OH253982   6.502   1.461  12.918 -0.3229  0.2960  0.1834
10856TIP3    H153983   6.484   1.494  13.006  1.1563 -0.4334  0.7887
10856TIP3    H253984   6.498   1.366  12.927  0.5367  0.1993 -0.3828
10857TIP3   OH253985   5.439   0.438  10.862  0.1285 -0.3813  0.2728
10857TIP3    H153986   5.382   0.411  10.934 -0.4864 -2.5988 -0.9639
10857TIP3    H253987   5.527   0.434  10.899 -0.3475  3.7063  2.4142
10858TIP3   OH253988   4.358   0.196  14.225 -1.2344 -0.1349 -0.5342
10858TIP3    H153989   4.392   0.187  14.137  0.3545  1.6241 -0.1490
10858TIP3    H253990   4.402   0.128  14.276 -1.5628 -0.6344 -0.9079
10859TIP3   OH253991   3.511   4.825  13.774  0.3343  0.1010 -0.3981
10859TIP3    H153992   3.546   4.881  13.704 -0.4351  0.0083 -0.8780
10859TIP3    H253993   3.470   4.752  13.728  0.6434 -0.4552  0.1987
10860TIP3   OH253994   1.518   2.295   2.516  0.3463  0.2332  0.0468
10860TIP3    H153995   1.589   2.357   2.532  0.6867 -0.7165  2.5992
10860TIP3    H253996   1.556   2.230   2.457  0.2989  1.8247 -1.8313
10861TIP3   OH253997   0.146   4.526  16.073  0.4464 -0.2161 -0.2305
10861TIP3    H153998   0.125   4.458  16.137  0.0554  0.0576 -0.0627
10861TIP3    H253999   0.066   4.535  16.020  0.6429 -0.1879 -0.5246
10862TIP3   OH254000   1.211   4.306  15.248  0.1406  0.0959 -0.1668
10862TIP3    H154001   1.230   4.270  15.161  0.6634 -1.6429  0.6151
10862TIP3    H254002   1.296   4.317  15.289 -0.1783 -1.2542  0.9176
10863TIP3   OH254003   3.787   2.179  12.369  0.3245  0.0715 -0.5108
10863TIP3    H154004   3.844   2.163  12.445 -0.2141  0.0541 -0.1051
10863TIP3    H254005   3.702   2.143  12.395 -0.5087  2.1466 -0.1823
10864TIP3   OH254006   5.507   4.957   1.262  0.4440 -0.0879 -0.3785
10864TIP3    H154007   5.569   4.978   1.192 -0.6320  1.4383 -0.9374
10864TIP3    H254008   5.532   5.014   1.335  0.7644 -0.7371  0.0243
10865TIP3   OH254009   1.007   3.412   5.560  0.0262  0.0993  0.7711
10865TIP3    H154010   0.912   3.414   5.546  0.0363  1.7199  0.7444
10865TIP3    H254011   1.040   3.352   5.494 -1.0516 -1.1411  1.3203
10866TIP3   OH254012   4.924   0.632  10.705  0.8471  0.0956 -0.1395
10866TIP3    H154013   4.899   0.704  10.763 -0.4665 -0.2524 -0.2383
10866TIP3    H254014   4.942   0.675  10.621 -0.7230  0.2686 -0.4277
10867TIP3   OH254015   0.402   1.611  16.598  0.1211  0.1592  0.1886
10867TIP3    H154016   0.354   1.689  16.571  0.8678  1.5820  2.6118
10867TIP3    H254017   0.456   1.588  16.522 -0.5576  1.6471 -0.7867
10868TIP3   OH254018   1.723   6.024   3.419 -0.4277 -0.4938  0.6060
10868TIP3    H154019   1.718   5.970   3.498  1.8096  2.3213  2.9590
10868TIP3    H254020   1.688   6.109   3.446  1.6900  0.9810 -0.8889
10869TIP3   OH254021   3.617   4.232   4.470  0.2802 -0.0484  0.4952
10869TIP3    H154022   3.679   4.220   4.398 -0.4494 -0.5961 -0.0571
10869TIP3    H254023   3.541   4.275   4.430 -0.5097 -1.1716  0.7230
10870TIP3   OH254024   6.789   5.592  17.095  0.1342  0.7324 -0.6399
10870TIP3    H154025   6.813   5.675  17.053  1.6876  1.3693  1.3381
10870TIP3    H254026   6.821   5.600  17.185 -0.9015 -1.4956  0.0174
10871TIP3   OH254027   5.308   0.489  11.690 -0.4064  0.2828 -0.5642
10871TIP3    H154028   5.329   0.405  11.731 -1.6587 -0.3245 -1.0858
10871TIP3    H254029   5.242   0.527  11.748 -0.5615  0.4436 -0.8466
10872TIP3   OH254030   4.998   2.302  11.524 -0.5843  0.2241 -0.1423
10872TIP3    H154031   4.937   2.239  11.486 -0.1755 -1.3621  1.6774
10872TIP3    H254032   4.942   2.370  11.562 -1.2274 -0.8930  0.9720
10873TIP3   OH254033   2.570   3.202  12.219 -0.5365  0.4565  0.2194
10873TIP3    H154034   2.488   3.227  12.262 -0.4532  0.8961  0.1293
10873TIP3    H254035   2.594   3.279  12.167 -0.7868 -0.1702 -0.8379
10874TIP3   OH254036   4.610   1.967  11.004 -0.1020 -0.0334 -0.0352
10874TIP3    H154037   4.631   1.917  10.925  1.5753 -1.2848  1.1003
10874TIP3    H254038   4.581   2.052  10.973  4.3104  1.0362 -2.0760
10875TIP3   OH254039   0.838   2.955  17.213  0.7210 -0.4178  0.5680
10875TIP3    H154040   0.869   2.917  17.131  1.0014 -0.8389  0.8661
10875TIP3    H254041   0.854   3.049  17.204 -0.4267 -0.2839 -0.3659
10876TIP3   OH254042   4.510   2.608  11.550  0.1964  0.7213  0.1879
10876TIP3    H154043   4.454   2.683  11.532 -1.3093  0.1794  2.1692
10876TIP3    H254044   4.541   2.623  11.640  0.2862 -0.7408  0.4271
10877TIP3   OH254045   6.489   2.783   5.361 -0.3338 -0.4519 -0.4042
10877TIP3    H154046   6.434   2.845   5.314 -0.7239 -0.4269  0.0720
10877TIP3    H254047   6.547   2.837   5.414  1.3190 -0.4178 -2.1152
10878TIP3   OH254048   1.935   2.283  11.676  0.3663 -0.1214 -0.1958
10878TIP3    H154049   1.861   2.222  11.669  1.4117 -1.4633 -0.1501
10878TIP3    H254050   1.973   2.286  11.588  0.6935 -0.0316 -0.0552
10879TIP3   OH254051   1.955   2.060  12.439 -0.8205  0.1161 -0.9281
10879TIP3    H154052   2.022   1.996  12.463 -2.7971 -0.7753  3.2113
10879TIP3    H254053   2.000   2.144  12.439  0.2521 -0.2043  3.4792
10880TIP3   OH254054   5.236   5.991   5.093  0.3781 -0.3943 -0.4471
10880TIP3    H154055   5.303   5.939   5.137 -0.0833 -0.4251  0.2271
10880TIP3    H254056   5.285   6.063   5.052  0.7750 -0.1823  0.3869
10881TIP3   OH254057   3.207   3.970  12.728  0.2784  0.1375  0.4291
10881TIP3    H154058   3.302   3.957  12.729  0.1754 -0.6156  0.5915
10881TIP3    H254059   3.171   3.883  12.711 -0.4235  0.1950  1.5404
10882TIP3   OH254060   3.561   1.109  11.290  0.7371  0.0282  0.2805
10882TIP3    H154061   3.607   1.125  11.207  0.7472 -1.3773 -0.0148
10882TIP3    H254062   3.575   1.015  11.307  0.5903  0.2554  1.7923
10883TIP3   OH254063   2.300   5.706  16.059  0.0762  0.0787 -0.1696
10883TIP3    H154064   2.287   5.661  16.143  1.0789 -1.0762 -0.6078
10883TIP3    H254065   2.395   5.715  16.051 -0.0393  0.7346 -0.8955
10884TIP3   OH254066   6.625   4.268   6.139 -0.1305  0.2712 -0.3512
10884TIP3    H154067   6.627   4.329   6.065 -3.4554  0.1109 -0.7355
10884TIP3    H254068   6.543   4.288   6.184  0.3737 -1.6279  1.5834
10885TIP3   OH254069   1.815   4.716  11.637  0.3299 -0.5053 -0.1231
10885TIP3    H154070   1.867   4.707  11.717  0.9269 -1.8046 -0.6273
10885TIP3    H254071   1.817   4.810  11.618  1.4472 -0.3710  0.5566
10886TIP3   OH254072   4.140   2.549   0.717  0.3251  0.5268  0.4576
10886TIP3    H154073   4.233   2.572   0.716  0.5684 -0.4352 -0.1578
10886TIP3    H254074   4.136   2.470   0.770 -0.3887  1.4732  1.8850
10887TIP3   OH254075   6.631   6.362   5.515 -0.1861 -0.0011 -0.5912
10887TIP3    H154076   6.678   6.289   5.476  0.9127  1.3288 -1.8633
10887TIP3    H254077   6.671   6.440   5.477 -0.6740  1.3193  1.4457
10888TIP3   OH254078   0.530   5.374  11.643  0.1145  0.1025 -0.0786
10888TIP3    H154079   0.625   5.380  11.643  0.2172 -1.3062 -0.3366
10888TIP3    H254080   0.501   5.460  11.613  1.3177  0.3650 -0.5394
10889TIP3   OH254081   2.815   4.618   0.313  0.0915 -0.5043 -0.0350
10889TIP3    H154082   2.905   4.623   0.283 -0.1657 -0.3419 -0.8130
10889TIP3    H254083   2.820   4.584   0.402  0.9197 -0.4261 -0.0519
10890TIP3   OH254084   0.565   6.352   3.485 -0.0986 -0.3644 -0.2779
10890TIP3    H154085   0.636   6.288   3.482 -1.6417 -2.1775 -0.3668
10890TIP3    H254086   0.487   6.302   3.460 -1.2388  1.8041 -1.3853
10891TIP3   OH254087   5.054   4.901  11.160 -0.4182  0.0666 -0.3990
10891TIP3    H154088   4.988   4.970  11.155  0.2821  0.8123  0.4690
10891TIP3    H254089   5.111   4.916  11.084  0.2176  0.9703  0.2342
10892TIP3   OH254090   3.415   0.577  15.843 -0.0509  0.3895  0.0774
10892TIP3    H154091   3.448   0.519  15.775 -0.3095  0.8945 -0.4841
10892TIP3    H254092   3.466   0.657  15.833  0.0080  0.4153  0.5736
10893TIP3   OH254093   4.899   3.284  13.016 -0.0579 -0.2372  0.2615
10893TIP3    H154094   4.839   3.289  12.942 -0.2512 -0.8274  0.3776
10893TIP3    H254095   4.984   3.311  12.980  0.0304 -1.3361 -0.3837
10894TIP3   OH254096   5.712   1.817  11.707 -0.7513 -0.6477  0.0100
10894TIP3    H154097   5.773   1.840  11.778 -1.0221 -0.4289  0.1728
10894TIP3    H254098   5.630   1.859  11.731 -0.7353 -0.2310 -0.6446
10895TIP3   OH254099   6.272   3.613  13.754  0.0690  0.3137 -0.1880
10895TIP3    H154100   6.326   3.534  13.754 -0.4244 -0.0539  0.7959
10895TIP3    H254101   6.322   3.676  13.805 -0.6925 -0.2579  1.3461
10896TIP3   OH254102   5.079   3.728  14.328  0.0641 -0.4341 -0.4294
10896TIP3    H154103   5.108   3.783  14.256  2.0614  0.9144  1.2947
10896TIP3    H254104   5.157   3.679  14.354 -0.1619  0.2174  1.7039
10897TIP3   OH254105   0.577   4.087  12.507  0.2954  0.3063  0.6249
10897TIP3    H154106   0.530   4.161  12.468 -0.9018 -0.0034  1.4069
10897TIP3    H254107   0.551   4.011  12.455  1.9474  0.4819 -0.5150
10898TIP3   OH254108   4.841   6.482   5.683 -0.4700 -0.1988  0.1623
10898TIP3    H154109   4.885   6.436   5.754  0.3785 -0.2560 -0.3801
10898TIP3    H254110   4.751   6.452   5.687 -1.0251  1.4421  2.5999
10899TIP3   OH254111   0.702   4.318   1.900 -0.1283 -0.5704 -0.3420
10899TIP3    H154112   0.666   4.333   1.813  0.3591 -2.1527 -0.8464
10899TIP3    H254113   0.748   4.399   1.922  0.5961 -0.5094 -1.9850
10900TIP3   OH254114   4.083   0.402   5.597 -0.0188 -0.2507  0.7165
10900TIP3    H154115   4.165   0.387   5.645  0.3790 -0.8854 -0.1353
10900TIP3    H254116   4.024   0.334   5.627 -0.6766  0.9536  2.2578
10901TIP3   OH254117   4.414   0.380   3.199  0.0775 -0.0459 -0.0343
10901TIP3    H154118   4.332   0.420   3.170  0.2339  1.7302  1.7300
10901TIP3    H254119   4.390   0.332   3.278  0.5736 -0.3106 -0.0435
10902TIP3   OH254120   1.398   1.238  14.353 -0.2091  0.4297  0.0468
10902TIP3    H154121   1.365   1.158  14.393  2.1781 -1.7014 -1.8880
10902TIP3    H254122   1.489   1.243  14.382 -0.4876  2.9149  0.6906
10903TIP3   OH254123   5.204   3.280  13.743  0.6323  0.3364 -0.2351
10903TIP3    H154124   5.257   3.200  13.748  2.6837  1.5831 -0.8331
10903TIP3    H254125   5.224   3.316  13.657 -0.2822  1.5001  0.0230
10904TIP3   OH254126   6.650   0.167   0.140  0.1161  0.4117  0.2016
10904TIP3    H154127   6.661   0.091   0.083  2.3487  1.0977 -0.3957
10904TIP3    H254128   6.576   0.215   0.103  0.2743 -0.1835 -0.9169
10905TIP3   OH254129   4.036   0.992   5.636  0.0445 -0.1911 -0.9541
10905TIP3    H154130   4.102   0.928   5.663  0.7467  0.2409 -1.5794
10905TIP3    H254131   4.070   1.028   5.554 -0.1882  1.1850 -0.4761
10906TIP3   OH254132   6.394   5.138   4.013 -0.4627  0.1708 -0.2171
10906TIP3    H154133   6.398   5.067   3.949  0.2382  0.2551 -0.2758
10906TIP3    H254134   6.348   5.209   3.969 -2.1703 -0.6086  0.2067
10907TIP3   OH254135   1.064   1.957  12.120  0.3636 -0.3517  0.3734
10907TIP3    H154136   0.991   1.897  12.106  0.0229  0.3456 -0.9838
10907TIP3    H254137   1.053   1.988  12.210 -0.9667 -0.3253  0.2173
10908TIP3   OH254138   4.638   5.947   3.773 -0.6990  0.4875 -0.8616
10908TIP3    H154139   4.732   5.938   3.782 -0.6057  1.1535 -1.1068
10908TIP3    H254140   4.604   5.857   3.778  0.0699  0.0930 -2.2404
10909TIP3   OH254141   1.858   3.803   0.783  0.0864 -0.4210  0.1926
10909TIP3    H154142   1.801   3.840   0.716  1.8933 -0.9568 -1.7344
10909TIP3    H254143   1.857   3.709   0.766 -0.6963 -0.7872  2.0064
10910TIP3   OH254144   3.940   5.919  11.369  0.5496  0.1046  0.6904
10910TIP3    H154145   3.989   5.951  11.293  0.7370  2.5489  1.7529
10910TIP3    H254146   3.860   5.972  11.370 -0.1435 -0.9117  1.4027
10911TIP3   OH254147   1.387   3.488   5.047 -0.6777 -0.0973  0.3282
10911TIP3    H154148   1.453   3.471   5.114 -1.0074  0.5363  0.8295
10911TIP3    H254149   1.316   3.531   5.094 -0.5432  1.1602 -0.5653
10912TIP3   OH254150   4.136   0.062   1.060 -0.5550  0.1331  0.0610
10912TIP3    H154151   4.057   0.028   1.017  0.1803  0.3624 -1.5299
10912TIP3    H254152   4.208   0.021   1.014  0.2757  0.2270  1.2486
10913TIP3   OH254153   0.974   3.651   1.708  0.6038 -0.4426  0.4127
10913TIP3    H154154   0.888   3.677   1.740  0.2795 -0.5937 -0.3189
10913TIP3    H254155   1.022   3.733   1.701  0.1837 -0.2376 -0.1406
10914TIP3   OH254156   5.371   1.463  13.994 -0.1279 -0.5858 -0.2111
10914TIP3    H154157   5.332   1.441  14.079  1.6531  0.6971  1.0138
10914TIP3    H254158   5.401   1.553  14.004 -1.2807  0.1696 -2.7950
10915TIP3   OH254159   0.650   4.777   5.614  0.0610 -0.3616  0.2946
10915TIP3    H154160   0.576   4.795   5.556 -0.1098 -0.6069  0.4311
10915TIP3    H254161   0.648   4.681   5.624  0.8709 -0.4533 -0.3283
10916TIP3   OH254162   1.045   4.285   6.210  0.3330  0.6809  0.1584
10916TIP3    H154163   1.133   4.318   6.226 -0.2153  2.7507 -0.7925
10916TIP3    H254164   0.993   4.363   6.189 -2.3010 -0.1186  2.9894
10917TIP3   OH254165   1.545   5.522  12.003  0.3206  0.0536 -0.3490
10917TIP3    H154166   1.529   5.447  12.060  0.2761 -0.1557 -0.6398
10917TIP3    H254167   1.637   5.514  11.977  0.1046 -0.3105 -0.9860
10918TIP3   OH254168   3.370   1.422  13.602  0.2725  0.1410  0.3003
10918TIP3    H154169   3.314   1.390  13.531  0.2661  0.1609  0.2961
10918TIP3    H254170   3.387   1.514  13.580  1.2870 -0.1775 -0.3342
10919TIP3   OH254171   4.758   4.340   3.628 -0.7187 -0.3923  0.1855
10919TIP3    H154172   4.679   4.346   3.682 -0.7366 -0.8236  0.2136
10919TIP3    H254173   4.817   4.284   3.678  0.3394  1.3871  1.0431
10920TIP3   OH254174   6.659   0.301  12.116  0.3951 -0.4608 -0.6929
10920TIP3    H154175   6.677   0.393  12.096  0.5602 -0.6078 -1.2270
10920TIP3    H254176   6.564   0.292  12.104  0.1756 -0.0634  0.5989
10921TIP3   OH254177   6.418   3.347  16.470  0.3482  0.4430 -0.2374
10921TIP3    H154178   6.370   3.375  16.393  0.0346  2.6813  0.7051
10921TIP3    H254179   6.351   3.329  16.535  0.6827  0.9520  0.2565
10922TIP3   OH254180   0.819   1.045  14.389  0.3008  0.3545 -0.0016
10922TIP3    H154181   0.845   0.954  14.371 -2.0250 -0.1746 -0.9718
10922TIP3    H254182   0.900   1.087  14.418  2.0242 -1.3897 -1.9073
10923TIP3   OH254183   2.954   0.313   1.170  0.0027  0.4886 -0.4279
10923TIP3    H154184   2.908   0.395   1.152 -1.7047 -0.3010  0.1845
10923TIP3    H254185   2.981   0.282   1.084  0.0507  1.3319 -0.7292
10924TIP3   OH254186   4.301   5.398  15.003 -0.0142  0.2256 -0.3017
10924TIP3    H154187   4.291   5.337  14.931 -1.3519  0.1139 -0.0489
10924TIP3    H254188   4.358   5.467  14.969  0.0423 -0.2478 -1.1847
10925TIP3   OH254189   6.524   0.872   4.188 -0.4305 -0.4587  0.5092
10925TIP3    H154190   6.606   0.886   4.235  0.7962  0.3191 -1.7464
10925TIP3    H254191   6.483   0.958   4.184 -0.8945 -0.6602  0.7429
10926TIP3   OH254192   1.675   5.852   0.792  0.0925  0.0953 -0.0628
10926TIP3    H154193   1.747   5.825   0.849  0.6314  2.2710  0.3629
10926TIP3    H254194   1.646   5.935   0.828 -1.6574 -0.0145 -1.1354
10927TIP3   OH254195   5.601   4.199  10.863 -0.0532  0.2433  0.0524
10927TIP3    H154196   5.552   4.129  10.820 -1.7678  0.9404  0.7881
10927TIP3    H254197   5.654   4.237  10.793  1.0247 -1.8393 -0.3244
10928TIP3   OH254198   1.136   2.475   2.186 -0.1263  0.4654  0.2462
10928TIP3    H154199   1.192   2.432   2.250  0.8659 -0.3873 -1.1440
10928TIP3    H254200   1.078   2.406   2.155  0.0602  0.6228 -0.4734
10929TIP3   OH254201   4.082   3.309   6.137  0.1323  0.0088  0.2663
10929TIP3    H154202   4.036   3.366   6.199  1.0720 -0.7622  1.7258
10929TIP3    H254203   4.130   3.369   6.080 -0.0587  0.7212  0.8381
10930TIP3   OH254204   5.520   2.129   0.382 -0.7005 -0.1799  0.1273
10930TIP3    H154205   5.440   2.102   0.339  0.9009 -0.5450 -2.9155
10930TIP3    H254206   5.528   2.222   0.362 -1.2993  0.3707  2.1767
10931TIP3   OH254207   3.687   2.815   0.896 -0.5542 -0.1545 -0.0655
10931TIP3    H154208   3.676   2.779   0.808 -0.5473 -0.3912  0.0296
10931TIP3    H254209   3.782   2.821   0.908 -0.4643 -2.1604  0.7322
10932TIP3   OH254210   5.698   6.020   4.375 -0.3046 -0.3859 -0.4039
10932TIP3    H154211   5.696   6.072   4.455  1.7847 -3.5059  1.9243
10932TIP3    H254212   5.609   5.986   4.366 -0.6784  0.3886  0.2842
10933TIP3   OH254213   3.776   1.004   4.965  0.3910 -0.6835 -0.1917
10933TIP3    H154214   3.681   1.015   4.960  0.4704 -0.3491 -1.1031
10933TIP3    H254215   3.812   1.085   4.930  1.0128 -0.7691  0.2392
10934TIP3   OH254216   2.043   5.102   3.785  0.3369  0.1842  0.2809
10934TIP3    H154217   2.000   5.085   3.701  0.3344  1.7079 -0.0427
10934TIP3    H254218   2.137   5.096   3.765  0.3395  0.7206  0.1281
10935TIP3   OH254219   5.287   3.918  16.880  0.0850 -0.5903 -0.2012
10935TIP3    H154220   5.364   3.971  16.902  0.0175  0.6989 -2.6933
10935TIP3    H254221   5.304   3.833  16.920  1.6407  0.3974  1.3773
10936TIP3   OH254222   3.079   6.083  12.513 -0.1989  0.4893  0.0036
10936TIP3    H154223   3.025   6.021  12.464 -0.9288 -0.6165  2.0665
10936TIP3    H254224   3.167   6.070  12.479 -0.6800 -0.2109 -1.0274
10937TIP3   OH254225   5.173   3.669  12.017 -0.1229  0.5577  0.1668
10937TIP3    H154226   5.200   3.593  12.068  0.9913  0.6270 -0.2827
10937TIP3    H254227   5.092   3.643  11.974  0.7403 -0.7291 -0.7375
10938TIP3   OH254228   6.264   2.581  14.283  0.5796 -0.1473 -0.1224
10938TIP3    H154229   6.243   2.591  14.191 -0.5457  1.0208  0.2327
10938TIP3    H254230   6.286   2.669  14.313 -1.3770 -0.0572  1.2426
10939TIP3   OH254231   3.757   4.106   3.833  0.5211  0.7279 -0.4746
10939TIP3    H154232   3.704   4.176   3.870  0.7654  0.3809  0.5718
10939TIP3    H254233   3.779   4.136   3.744 -1.5902  0.7809 -1.0355
10940TIP3   OH254234   5.394   5.688  11.605  0.0354 -0.1562  0.1359
10940TIP3    H154235   5.420   5.780  11.613  0.7370 -0.4811  1.8866
10940TIP3    H254236   5.419   5.664  11.516  1.2704  0.9215  0.1635
10941TIP3   OH254237   4.843   6.381   3.670  0.1919  0.2479  1.0302
10941TIP3    H154238   4.775   6.320   3.699  0.9398 -0.7267  0.8078
10941TIP3    H254239   4.901   6.328   3.616  1.5466  0.8618  1.8215
10942TIP3   OH254240   6.108   3.898   5.788  0.6086 -0.2790  0.1029
10942TIP3    H154241   6.186   3.941   5.753  0.3869 -0.6583 -0.8798
10942TIP3    H254242   6.120   3.901   5.883  1.4313  0.3832 -0.0109
10943TIP3   OH254243   5.393   5.273  14.273 -0.6326 -0.4041  0.2138
10943TIP3    H154244   5.460   5.224  14.225 -0.2988 -0.2850  0.5581
10943TIP3    H254245   5.384   5.354  14.223 -2.5318 -1.5399 -1.4576
10944TIP3   OH254246   6.318   1.246   2.524  0.0740 -0.0421 -0.0638
10944TIP3    H154247   6.367   1.290   2.455  0.2750  0.3092  0.3034
10944TIP3    H254248   6.235   1.221   2.482  0.0088  0.5765 -0.3084
10945TIP3   OH254249   4.648   1.682   6.041 -0.0092  0.2346  0.3490
10945TIP3    H154250   4.622   1.595   6.069  1.1787 -0.1879  0.2046
10945TIP3    H254251   4.657   1.676   5.946  0.8949  0.2653  0.4195
10946TIP3   OH254252   2.509   5.341  15.779 -0.2808 -0.0203 -0.3986
10946TIP3    H154253   2.452   5.342  15.856 -1.7165 -0.7755 -1.4025
10946TIP3    H254254   2.559   5.260  15.788 -0.6264 -0.2342 -0.3722
10947TIP3   OH254255   0.576   6.643   5.791  0.2730  0.5798 -0.0802
10947TIP3    H154256   0.624   6.720   5.760  0.6738  1.5060  2.6302
10947TIP3    H254257   0.484   6.665   5.776  0.4656 -0.2480 -3.1677
10948TIP3   OH254258   2.009   6.497  16.978 -0.2346 -0.0149 -0.0374
10948TIP3    H154259   1.992   6.433  17.047 -0.0478  0.7557  0.7418
10948TIP3    H254260   1.932   6.555  16.980  0.4296  0.8717  0.5203
10949TIP3   OH254261   4.705   5.916  12.799 -0.1975 -0.0437 -0.7761
10949TIP3    H154262   4.748   5.999  12.781 -0.1724 -0.3072 -2.0578
10949TIP3    H254263   4.611   5.936  12.794 -0.2202  0.1553  0.2038
10950TIP3   OH254264   4.110   3.886  15.943 -0.1529 -0.3900  0.0830
10950TIP3    H154265   4.129   3.854  15.855  1.3943  0.8789 -0.0895
10950TIP3    H254266   4.145   3.818  16.001 -1.5950 -1.4550 -0.2388
10951TIP3   OH254267   4.460   0.046  11.708 -0.8438 -0.1224  0.0792
10951TIP3    H154268   4.367   0.066  11.697 -0.6855  0.1788 -0.8346
10951TIP3    H254269   4.491   0.112  11.771 -1.1522  0.0461  0.0563
10952TIP3   OH254270   1.262   0.040   5.593  0.4700  0.7381  0.1892
10952TIP3    H154271   1.271   0.131   5.619 -0.0581  1.4171 -1.8367
10952TIP3    H254272   1.275   0.040   5.498 -0.0284 -1.2130  0.0689
10953TIP3   OH254273   4.834   5.284   0.615  0.5244  0.1572 -0.0076
10953TIP3    H154274   4.766   5.321   0.558 -1.3697 -2.1315  0.5870
10953TIP3    H254275   4.837   5.344   0.690  0.3638  1.1846 -0.7951
10954TIP3   OH254276   3.248   5.543   2.191  0.5031  0.1927  0.5060
10954TIP3    H154277   3.282   5.485   2.259 -0.4230 -2.4620 -1.1348
10954TIP3    H254278   3.155   5.553   2.213  0.3003 -0.3173 -0.0850
10955TIP3   OH254279   3.967   3.275   2.871 -0.0222 -0.2095 -0.3735
10955TIP3    H154280   3.956   3.197   2.926 -2.5034 -0.1610 -0.6663
10955TIP3    H254281   4.007   3.241   2.790  0.6968 -0.8250  0.2221
10956TIP3   OH254282   3.723   5.353   2.550  0.0956  0.0627 -0.7004
10956TIP3    H154283   3.719   5.345   2.645 -0.6671 -0.8922 -0.8036
10956TIP3    H254284   3.664   5.426   2.530 -1.3842 -1.0730 -0.5928
10957TIP3   OH254285   4.535   1.428  15.725 -0.7305 -0.6291  0.3045
10957TIP3    H154286   4.604   1.369  15.757  1.6442  2.4943  1.4841
10957TIP3    H254287   4.534   1.414  15.630  1.8086 -0.6031  0.2035
10958TIP3   OH254288   3.891   2.679   5.611 -0.0487 -0.0666  0.8340
10958TIP3    H154289   3.952   2.752   5.614  0.0432 -0.1434  0.8560
10958TIP3    H254290   3.815   2.709   5.660  0.9044 -0.8146  2.8850
10959TIP3   OH254291   3.229   2.875  14.816 -0.5875  0.1270 -0.3292
10959TIP3    H154292   3.206   2.864  14.724  1.5444 -2.1509 -0.7078
10959TIP3    H254293   3.315   2.918  14.814 -0.0058 -0.9363  0.4877
10960TIP3   OH254294   6.301   1.688   5.019 -0.2308 -0.2652 -0.3643
10960TIP3    H154295   6.326   1.774   5.053 -0.2947  0.0186 -1.0384
10960TIP3    H254296   6.334   1.626   5.085  0.7353  0.2084 -0.3962
10961TIP3   OH254297   3.869   4.508  16.016 -0.2064 -0.6332 -0.2525
10961TIP3    H154298   3.887   4.599  16.039 -0.1230 -0.9258  0.9545
10961TIP3    H254299   3.902   4.498  15.927 -0.3512  0.5529 -0.4477
10962TIP3   OH254300   1.356   3.573   3.913 -0.2596  0.1694  0.7064
10962TIP3    H154301   1.368   3.668   3.924 -2.2211  0.4530  0.6802
10962TIP3    H254302   1.438   3.544   3.873  0.3561  1.8666  0.6262
10963TIP3   OH254303   0.661   3.173   2.940 -0.1904  0.4547  0.9996
10963TIP3    H154304   0.569   3.175   2.967 -0.3169 -0.1543  0.6232
10963TIP3    H254305   0.709   3.147   3.020 -0.3328  0.8703  1.2212
10964TIP3   OH254306   6.503   1.399   0.733 -0.2083  0.5906 -0.4635
10964TIP3    H154307   6.538   1.373   0.819  1.1719  0.0068 -1.1684
10964TIP3    H254308   6.526   1.326   0.675 -2.3781  0.3249 -1.0634
10965TIP3   OH254309   6.258   0.054  14.568  1.1894  0.3008 -0.3600
10965TIP3    H154310   6.188   0.029  14.628  2.2781  0.7671  1.1569
10965TIP3    H254311   6.264   0.149  14.576  3.0063  0.1424  0.7647
10966TIP3   OH254312   4.263   1.965  15.771  0.1412 -0.2007 -0.2159
10966TIP3    H154313   4.185   2.019  15.787  1.0083  1.2554 -0.6914
10966TIP3    H254314   4.270   1.910  15.849 -0.6473  0.5488  0.4066
10967TIP3   OH254315   4.539   1.569   0.760  0.2529  0.0232  0.6066
10967TIP3    H154316   4.499   1.565   0.673  0.5180 -0.1874  0.4954
10967TIP3    H254317   4.538   1.479   0.792 -0.4069  0.1905  1.0790
10968TIP3   OH254318   3.275   6.781  13.669  0.3018 -0.1353  0.1879
10968TIP3    H154319   3.217   6.792  13.744 -0.7163  1.3171 -0.7708
10968TIP3    H254320   3.216   6.778  13.593  1.2929 -1.6757 -0.5835
10969TIP3   OH254321   4.450   0.073   5.803  0.5952  0.7182 -0.6230
10969TIP3    H154322   4.539   0.067   5.837  0.5492 -0.0186 -0.6248
10969TIP3    H254323   4.457   0.051   5.710  0.0453 -2.2662 -0.0710
10970TIP3   OH254324   5.387   6.682  13.074 -0.1415 -0.3041 -0.2947
10970TIP3    H154325   5.480   6.697  13.092 -0.0277  0.6938 -1.5553
10970TIP3    H254326   5.387   6.629  12.995 -0.6521 -0.8350  0.0559
10971TIP3   OH254327   3.786   3.523   2.793 -0.3085 -0.6315  0.2795
10971TIP3    H154328   3.742   3.439   2.787  0.4810 -1.1750  1.6637
10971TIP3    H254329   3.848   3.513   2.865 -0.8761  1.4511  1.1371
10972TIP3   OH254330   3.459   0.943   4.410 -0.2398  0.1885 -0.4183
10972TIP3    H154331   3.479   0.865   4.463 -0.9670  1.6718  2.2568
10972TIP3    H254332   3.369   0.966   4.434 -0.4549  1.2174 -2.0407
10973TIP3   OH254333   5.577   1.408  16.426  0.4288  0.5319 -0.3361
10973TIP3    H154334   5.531   1.491  16.412 -0.3109 -0.1107 -1.9159
10973TIP3    H254335   5.570   1.393  16.520 -0.8785  1.4490 -0.2608
10974TIP3   OH254336   0.212   6.147   2.013  0.5954  1.0730 -0.2489
10974TIP3    H154337   0.210   6.156   2.108  0.7419  0.2610 -0.1690
10974TIP3    H254338   0.287   6.200   1.986  0.5003  1.3775  0.0752
10975TIP3   OH254339   5.949   1.778   2.052  0.3928  0.2546 -0.4514
10975TIP3    H154340   6.025   1.736   2.012  0.3734 -0.3198  0.1072
10975TIP3    H254341   5.943   1.741   2.140 -1.0893 -0.4562 -0.8064
10976TIP3   OH254342   5.414   6.266   3.448 -0.3136 -0.5555  0.0560
10976TIP3    H154343   5.437   6.356   3.425 -1.5527 -0.2716 -0.1717
10976TIP3    H254344   5.494   6.215   3.432 -0.1574  0.1754 -1.7541
10977TIP3   OH254345   1.448   4.512  14.430 -0.1024 -0.1013 -0.3784
10977TIP3    H154346   1.390   4.555  14.494  1.6007  0.2988  0.9870
10977TIP3    H254347   1.451   4.421  14.459 -0.8380 -0.3560 -1.0749
10978TIP3   OH254348   3.384   6.588   3.758  0.2116 -0.0554 -0.6934
10978TIP3    H154349   3.444   6.621   3.692 -0.3397  0.2634 -1.0450
10978TIP3    H254350   3.315   6.544   3.708  0.4350 -0.8913 -0.2714
10979TIP3   OH254351   0.709   1.005   3.072  0.3846 -0.0426 -0.3203
10979TIP3    H154352   0.727   1.043   3.158  0.0519 -2.1608  0.7644
10979TIP3    H254353   0.623   1.039   3.047  0.7113  0.9827 -0.0548
10980TIP3   OH254354   4.837   0.734  11.650  0.2111 -0.2091 -0.0232
10980TIP3    H154355   4.883   0.813  11.620 -0.5272 -0.0423 -0.7724
10980TIP3    H254356   4.771   0.766  11.711  0.5340 -0.3535  0.4015
10981TIP3   OH254357   1.880   4.884  13.340 -0.4128 -0.4120  0.1541
10981TIP3    H154358   1.889   4.791  13.318 -0.3363 -0.0061 -1.6711
10981TIP3    H254359   1.950   4.901  13.403  0.1242 -1.3984 -0.1556
10982TIP3   OH254360   2.761   2.013   5.801 -0.3596 -0.0050  0.3235
10982TIP3    H154361   2.851   1.984   5.787 -0.3402 -0.5986  1.5116
10982TIP3    H254362   2.742   1.986   5.891 -1.9925 -0.5782 -0.1678
10983TIP3   OH254363   4.016   1.483  14.322  0.1634 -0.3190 -0.2095
10983TIP3    H154364   4.008   1.388  14.306  1.0673 -0.4806  0.2269
10983TIP3    H254365   3.953   1.501  14.392 -0.4419 -0.4744 -0.6975
10984TIP3   OH254366   0.507   3.891  11.856 -0.3545 -0.4759  0.2054
10984TIP3    H154367   0.442   3.878  11.925 -0.9888  0.7819 -0.1071
10984TIP3    H254368   0.539   3.804  11.835  0.9805 -0.7715  3.1103
10985TIP3   OH254369   3.323   5.163   0.147  0.6357  0.0122  0.1197
10985TIP3    H154370   3.299   5.249   0.182 -0.0373  0.6083 -1.6513
10985TIP3    H254371   3.367   5.183   0.064 -3.2617 -1.3096 -2.5718
10986TIP3   OH254372   4.689   1.820  16.035 -0.2090  0.3155 -0.2197
10986TIP3    H154373   4.714   1.773  15.956 -0.0222 -0.2047  0.1461
10986TIP3    H254374   4.612   1.773  16.068  0.8290 -0.6516  0.9373
10987TIP3   OH254375   3.069   2.948   5.315 -0.0856 -0.2209 -0.2980
10987TIP3    H154376   3.149   2.897   5.323 -0.1604 -0.4459 -0.9196
10987TIP3    H254377   3.022   2.934   5.397  0.4073 -0.2584 -0.0188
10988TIP3   OH254378   4.134   6.693   6.141  0.0916 -0.3746  0.5182
10988TIP3    H154379   4.079   6.748   6.196  1.0878 -1.7075  3.0325
10988TIP3    H254380   4.099   6.604   6.154  0.6318 -0.7775 -0.6723
10989TIP3   OH254381   5.625   5.394   4.474  0.3771 -0.6146  0.1113
10989TIP3    H154382   5.684   5.384   4.398  0.4777 -0.5683  0.1834
10989TIP3    H254383   5.671   5.455   4.532 -0.2498  0.3118 -0.3424
10990TIP3   OH254384   0.527   2.993   1.818 -0.5509 -0.0790  0.1940
10990TIP3    H154385   0.620   2.976   1.836  0.0850 -0.4326 -2.8580
10990TIP3    H254386   0.482   2.964   1.897  1.9857  1.3418  2.3221
10991TIP3   OH254387   4.578   1.819   5.596 -0.4517 -0.8100 -0.2018
10991TIP3    H154388   4.644   1.880   5.564 -0.2524 -1.2136 -0.5839
10991TIP3    H254389   4.514   1.814   5.525 -1.0962 -0.1333  0.3244
10992TIP3   OH254390   2.129   3.109  13.565  0.4324  0.4078  0.2882
10992TIP3    H154391   2.190   3.095  13.493 -0.3265  0.8508 -0.4596
10992TIP3    H254392   2.043   3.108  13.524 -0.1039 -0.4942  1.3616
10993TIP3   OH254393   3.540   1.284   2.709 -0.5780  0.6243 -0.0217
10993TIP3    H154394   3.516   1.368   2.671 -0.9761  0.7834  0.5657
10993TIP3    H254395   3.543   1.224   2.635 -2.1425  0.7514 -0.2117
10994TIP3   OH254396   1.408   0.451  14.656 -0.4547 -0.7013 -0.1829
10994TIP3    H154397   1.412   0.465  14.751 -1.1283 -0.1272 -0.2332
10994TIP3    H254398   1.429   0.537  14.619 -0.5466 -0.8402 -0.5567
10995TIP3   OH254399   0.441   4.330   2.680  0.4513 -0.1960 -0.3736
10995TIP3    H154400   0.535   4.348   2.687  0.7100 -1.3116 -0.6971
10995TIP3    H254401   0.413   4.313   2.770  1.1439 -2.4409 -0.5285
10996TIP3   OH254402   2.703   4.044  10.449  0.3124  0.9450 -0.0088
10996TIP3    H154403   2.736   4.117  10.502  0.8703  0.9909 -0.4022
10996TIP3    H254404   2.642   4.085  10.388  0.8764  1.1438 -0.4506
10997TIP3   OH254405   5.403   5.270   4.137 -0.4609 -0.5036  0.4171
10997TIP3    H154406   5.382   5.246   4.227  4.1818  0.7252  2.1034
10997TIP3    H254407   5.381   5.362   4.130 -1.3953 -0.7427  0.0160
10998TIP3   OH254408   0.353   2.372  12.587 -0.2982  0.1371  0.5270
10998TIP3    H154409   0.276   2.316  12.585 -0.0494 -0.2238  0.8934
10998TIP3    H254410   0.323   2.456  12.553 -0.5467 -0.3778 -0.5780
10999TIP3   OH254411   1.912   5.746   0.923  0.0533 -0.4366 -0.4766
10999TIP3    H154412   1.927   5.760   1.017 -0.9988 -1.1830 -0.1741
10999TIP3    H254413   1.927   5.653   0.909  0.9662 -0.1909 -1.2239
11000TIP3   OH254414   5.937   2.405   5.908  0.1962  0.0858 -0.0203
11000TIP3    H154415   5.846   2.429   5.920 -0.0337 -0.7412 -0.0247
11000TIP3    H254416   5.963   2.365   5.992  0.6639  0.6564  0.1122
11001TIP3   OH254417   1.963   4.017   0.918  0.5916 -0.4477  0.2008
11001TIP3    H154418   1.895   4.017   0.986 -0.8860  0.3526 -1.1840
11001TIP3    H254419   1.928   3.960   0.849  1.5480 -0.4028 -0.3398
11002TIP3   OH254420   3.654   3.378  15.444  0.1394 -0.1468 -0.3049
11002TIP3    H154421   3.685   3.469  15.445 -1.4908  0.4276  0.3206
11002TIP3    H254422   3.675   3.345  15.531 -0.5644  0.0989 -0.0366
11003TIP3   OH254423   3.189   4.550  12.428  0.0406 -0.1292  0.1286
11003TIP3    H154424   3.124   4.532  12.495  0.5322 -2.9949 -0.0205
11003TIP3    H254425   3.220   4.639  12.447 -3.3515  1.1130  0.5682
11004TIP3   OH254426   5.208   3.189   2.293  0.0032  0.6059 -0.7694
11004TIP3    H154427   5.290   3.223   2.330 -0.8385  2.1634 -0.2907
11004TIP3    H254428   5.190   3.245   2.218 -1.5463  1.4179  0.1856
11005TIP3   OH254429   2.975   4.251   0.199  0.2107  0.0914  0.8008
11005TIP3    H154430   3.047   4.288   0.249 -0.8232  1.6423  1.2371
11005TIP3    H254431   2.896   4.286   0.241 -0.7334  0.5716 -1.2137
11006TIP3   OH254432   4.525   2.444   2.469  0.4580  0.1106  0.8093
11006TIP3    H154433   4.485   2.459   2.384  1.2440 -0.4768  0.3261
11006TIP3    H254434   4.465   2.385   2.514 -0.5620  1.3517  1.1435
11007TIP3   OH254435   5.466   3.815   2.304 -0.2952  0.3726 -0.3106
11007TIP3    H154436   5.461   3.865   2.385 -0.9966  1.4797 -0.9977
11007TIP3    H254437   5.375   3.794   2.283  0.0299 -2.1166  0.4635
11008TIP3   OH254438   0.274   4.058  15.875  0.3265 -0.0018 -0.6259
11008TIP3    H154439   0.197   4.026  15.828 -0.5245  2.1951 -0.8168
11008TIP3    H254440   0.347   4.011  15.835 -0.8855 -2.4702 -0.1488
11009TIP3   OH254441   4.745   1.488  16.823  0.1445 -0.0868 -0.0338
11009TIP3    H154442   4.800   1.435  16.881 -1.8174  1.1530  3.2852
11009TIP3    H254443   4.720   1.429  16.753  0.6997 -2.5621  1.7238
11010TIP3   OH254444   4.314   3.322   6.351  0.0879 -0.5370  0.5395
11010TIP3    H154445   4.220   3.319   6.333  0.5306 -1.0230 -2.1670
11010TIP3    H254446   4.340   3.411   6.330  0.2547 -0.3838  1.3493
11011TIP3   OH254447   3.600   6.115  11.058 -0.3132 -0.0985  0.1311
11011TIP3    H154448   3.556   6.187  11.103  1.2287  0.4907  0.7717
11011TIP3    H254449   3.634   6.155  10.978 -0.2166 -0.3370  0.0523
11012TIP3   OH254450   5.927   3.518  11.841 -0.3062  0.7193  0.0937
11012TIP3    H154451   5.927   3.568  11.923  1.2408  0.5016  0.2506
11012TIP3    H254452   5.986   3.567  11.784 -0.8989  0.5273 -0.6915
11013TIP3   OH254453   2.518   0.689   1.211  0.1741 -0.2578  0.2087
11013TIP3    H154454   2.564   0.638   1.144  1.1584  0.7384  0.1026
11013TIP3    H254455   2.445   0.729   1.164  1.0387  0.6926 -0.3698
11014TIP3   OH254456   5.687   4.012  13.546  0.3014  0.5189 -0.1466
11014TIP3    H154457   5.735   3.957  13.484 -2.1205 -0.5542 -1.1964
11014TIP3    H254458   5.675   4.095  13.500  0.6406  0.5946 -0.1036
11015TIP3   OH254459   4.798   4.566   6.259  0.5472  0.2489  0.1120
11015TIP3    H154460   4.891   4.588   6.250  0.8596 -1.3147 -0.8947
11015TIP3    H254461   4.758   4.594   6.177  0.3436 -0.0350  0.1123
11016TIP3   OH254462   0.281   2.359  15.102  0.0038 -0.7956 -0.2940
11016TIP3    H154463   0.223   2.396  15.035  0.3908  1.4452  0.5354
11016TIP3    H254464   0.369   2.380  15.071  0.2385 -0.9978  0.2224
11017TIP3   OH254465   0.371   6.204  11.148  0.1077 -0.9232 -0.4753
11017TIP3    H154466   0.463   6.179  11.144  0.8214  1.0954  1.2685
11017TIP3    H254467   0.323   6.122  11.140  2.1309 -2.3220  0.8403
11018TIP3   OH254468   6.503   4.240  13.057  0.3683 -0.2095 -0.4933
11018TIP3    H154469   6.478   4.320  13.103 -0.0189 -0.3348 -0.4792
11018TIP3    H254470   6.587   4.215  13.094  0.1761 -0.1731 -0.0325
11019TIP3   OH254471   2.722   3.894   4.278  0.7110  0.5879 -0.1066
11019TIP3    H154472   2.669   3.821   4.311 -0.8903  1.6772 -0.1991
11019TIP3    H254473   2.712   3.889   4.182  2.0865 -0.1353 -0.2405
11020TIP3   OH254474   6.721   1.083  14.861  0.1773  0.3471  0.2067
11020TIP3    H154475   6.630   1.067  14.887  0.5280  0.6774  1.7101
11020TIP3    H254476   6.724   1.177  14.842 -0.1283  0.0732 -1.3488
11021TIP3   OH254477   0.662   2.512   4.204  0.4810  0.0646 -0.4202
11021TIP3    H154478   0.733   2.490   4.143 -1.5191 -2.3962 -2.0794
11021TIP3    H254479   0.649   2.433   4.255 -0.8584  0.5718  0.0681
11022TIP3   OH254480   3.463   1.313   3.742 -0.1650 -0.0583 -0.4888
11022TIP3    H154481   3.470   1.404   3.769 -1.8284 -0.3982  1.3360
11022TIP3    H254482   3.535   1.269   3.787 -0.5642  0.0487  0.2747
11023TIP3   OH254483   4.071   5.850  11.868 -0.2368  0.1085 -0.1040
11023TIP3    H154484   4.036   5.907  11.800  0.7109 -1.5789 -2.1438
11023TIP3    H254485   4.049   5.761  11.839  0.4456 -0.6962  1.6621
11024TIP3   OH254486   6.205   2.173  16.556  0.8411  0.2517 -0.7925
11024TIP3    H154487   6.164   2.112  16.617  1.8585 -0.3418 -0.6917
11024TIP3    H254488   6.215   2.123  16.475  2.4228 -0.0136 -0.4699
11025TIP3   OH254489   6.692   4.359   1.795 -0.0198 -0.1100 -0.2514
11025TIP3    H154490   6.655   4.271   1.803 -2.4218  0.8823  0.2575
11025TIP3    H254491   6.662   4.405   1.873  2.8966  0.6594  0.5458
11026TIP3   OH254492   3.562   3.415  14.606  0.0680 -0.0910 -0.6274
11026TIP3    H154493   3.591   3.347  14.545  1.0893 -0.0476 -0.2109
11026TIP3    H254494   3.466   3.410  14.603  0.1025 -0.4375 -1.8294
11027TIP3   OH254495   3.954   5.634  13.999  0.8050  0.1543  1.0655
11027TIP3    H154496   3.919   5.634  13.910  0.9327  0.1311  1.0153
11027TIP3    H254497   4.015   5.707  14.000  1.1528 -0.1341  0.9968
11028TIP3   OH254498   3.127   4.971   3.622  0.4874 -0.7559 -0.3544
11028TIP3    H154499   3.086   4.938   3.542  0.1268  0.5634 -0.7391
11028TIP3    H254500   3.058   4.965   3.688  0.4391 -0.8157 -0.4098
11029TIP3   OH254501   4.165   3.670  14.396 -0.0234 -0.0528 -0.3968
11029TIP3    H154502   4.227   3.721  14.448 -0.2447  0.4806 -0.6432
11029TIP3    H254503   4.200   3.581  14.396 -0.3106 -0.1937  1.1191
11030TIP3   OH254504   3.325   3.447  16.498 -0.0081  0.4433  0.3116
11030TIP3    H154505   3.310   3.540  16.519 -0.1499 -0.0367  2.6087
11030TIP3    H254506   3.269   3.400  16.559 -3.6911 -1.2567 -3.8058
11031TIP3   OH254507   4.155   0.813  16.619  0.4210 -0.1875  0.6442
11031TIP3    H154508   4.116   0.739  16.666  0.7424 -2.2293 -2.0466
11031TIP3    H254509   4.249   0.803  16.631  0.4799 -0.4303  0.0482
11032TIP3   OH254510   1.438   1.885   5.538  0.4080 -0.1595 -0.4230
11032TIP3    H154511   1.488   1.937   5.474  0.4447 -0.3819 -0.5786
11032TIP3    H254512   1.495   1.880   5.614  1.0468 -1.2275 -0.9495
11033TIP3   OH254513   4.042   0.454  16.580 -0.6448  0.4677 -0.3983
11033TIP3    H154514   4.090   0.516  16.635  1.8202 -0.4026 -1.3766
11033TIP3    H254515   3.966   0.429  16.632  1.4553 -0.2244  2.6395
11034TIP3   OH254516   4.449   5.369  17.071  0.0437 -0.0761  0.2124
11034TIP3    H154517   4.427   5.301  17.008 -3.0621 -0.9615  2.0509
11034TIP3    H254518   4.470   5.322  17.152  1.1483  1.0956  0.6438
11035TIP3   OH254519   3.786   1.363  16.252  0.0153 -0.1374 -0.1888
11035TIP3    H154520   3.775   1.431  16.318  1.0084 -2.2210  2.3013
11035TIP3    H254521   3.862   1.313  16.282 -1.1517 -2.8205 -1.4027
11036TIP3   OH254522   3.320   6.073   2.288  0.3522  0.4939  0.4524
11036TIP3    H154523   3.231   6.097   2.314  0.4717 -0.5340  1.9506
11036TIP3    H254524   3.310   5.984   2.252  0.9443 -0.2446  2.0222
11037TIP3   OH254525   3.040   1.761   1.531 -0.6652  0.0227  0.2561
11037TIP3    H154526   3.011   1.765   1.440 -0.8144 -1.0980  0.2394
11037TIP3    H254527   3.135   1.766   1.527 -0.7011  0.5977  0.0856
11038TIP3   OH254528   0.649   1.082  13.102 -0.5333 -0.1849 -0.5119
11038TIP3    H154529   0.676   1.000  13.145 -0.6872  0.0636  0.0747
11038TIP3    H254530   0.658   1.148  13.171 -2.4392 -0.0537 -0.3351
11039TIP3   OH254531   5.119   0.283  11.831 -0.1644 -0.6784 -0.5977
11039TIP3    H154532   5.084   0.340  11.763  0.4879  0.2612 -0.1669
11039TIP3    H254533   5.095   0.326  11.913  0.9757 -0.6190 -0.2805
11040TIP3   OH254534   3.285   0.738   3.655 -0.6911 -0.3445  0.4665
11040TIP3    H154535   3.295   0.741   3.750 -1.6024 -1.1739  0.6109
11040TIP3    H254536   3.295   0.645   3.633 -0.1133 -0.1092 -0.2965
11041TIP3   OH254537   1.562   2.292   6.708 -0.2373  0.2058  0.1835
11041TIP3    H154538   1.571   2.256   6.796 -1.1139 -0.5439 -0.0118
11041TIP3    H254539   1.651   2.289   6.672  0.0784  0.2597  0.9342
11042TIP3   OH254540   1.499   4.396  12.446  0.0708 -0.1575 -0.3309
11042TIP3    H154541   1.463   4.339  12.514  1.5062 -0.4304  0.2177
11042TIP3    H254542   1.456   4.481  12.461 -2.7706 -1.2353 -1.7108
11043TIP3   OH254543   6.757   1.517   3.056 -0.7326  0.1763 -0.2291
11043TIP3    H154544   6.841   1.532   3.099  0.3939  1.7135 -2.6760
11043TIP3    H254545   6.717   1.446   3.105  0.8144  1.0979  2.6238
11044TIP3   OH254546   2.109   6.204  12.424  0.1450  0.2866 -0.5788
11044TIP3    H154547   2.050   6.214  12.499 -1.0164 -0.7963 -1.3104
11044TIP3    H254548   2.181   6.151  12.458  0.9493  1.9805  0.4424
11045TIP3   OH254549   3.966   1.205  14.836 -0.2214  0.1852 -0.6872
11045TIP3    H154550   4.024   1.279  14.815 -0.7627  0.4861 -1.1270
11045TIP3    H254551   3.948   1.216  14.929 -0.4719  0.7322 -0.7970
11046TIP3   OH254552   3.465   3.334  15.834 -0.0599 -0.1160  0.2070
11046TIP3    H154553   3.403   3.268  15.803  0.0144  0.0465 -0.2926
11046TIP3    H254554   3.504   3.295  15.912  0.6214 -1.0377 -0.5743
11047TIP3   OH254555   4.700   5.041  16.928  0.2145  0.0567 -0.0500
11047TIP3    H154556   4.707   5.073  17.018  3.9800  0.9920 -0.5118
11047TIP3    H254557   4.721   4.947  16.934  0.4606  0.1187  0.0681
11048TIP3   OH254558   2.181   2.668   4.972 -0.0209  0.1085 -0.0822
11048TIP3    H154559   2.248   2.660   4.904 -1.2067 -0.0161 -1.2815
11048TIP3    H254560   2.104   2.625   4.936 -0.5594 -0.4042  1.5645
11049TIP3   OH254561   5.384   5.581   4.399  0.1335  0.1651 -0.1897
11049TIP3    H154562   5.356   5.631   4.475  1.7215  1.3651 -0.3149
11049TIP3    H254563   5.439   5.512   4.434 -3.4927 -2.8408  0.1505
11050TIP3   OH254564   5.681   4.524   0.762 -0.0331 -0.3588  0.0347
11050TIP3    H154565   5.727   4.440   0.759 -0.4102 -0.6011  0.7277
11050TIP3    H254566   5.609   4.514   0.700 -0.1018 -0.5571  0.1483
11051TIP3   OH254567   3.137   0.269  11.537  0.3990  0.0058  0.2295
11051TIP3    H154568   3.168   0.326  11.607  0.2975 -0.5218  0.7116
11051TIP3    H254569   3.186   0.187  11.548 -0.0176 -0.2794  0.0337
11052TIP3   OH254570   2.195   5.891  16.379  0.2075 -0.1844  0.4223
11052TIP3    H154571   2.100   5.894  16.365  0.1366  1.3682  1.0416
11052TIP3    H254572   2.212   5.959  16.444  1.9006  0.4521 -0.6169
11053TIP3   OH254573   0.170   5.394   4.430  0.1609  0.0604  0.1067
11053TIP3    H154574   0.074   5.400   4.424  0.0604 -0.2147  1.3095
11053TIP3    H254575   0.189   5.404   4.523  1.3081  0.0961 -0.1245
11054TIP3   OH254576   2.356   5.143   5.412 -0.0545 -0.5691 -0.0112
11054TIP3    H154577   2.399   5.183   5.336 -0.7927 -0.1448 -0.2076
11054TIP3    H254578   2.365   5.208   5.482  1.4337 -1.3300  0.5503
11055TIP3   OH254579   5.422   3.964   2.094 -0.0520 -0.1569 -0.0554
11055TIP3    H154580   5.345   3.910   2.077 -1.7105  1.7904  0.7854
11055TIP3    H254581   5.459   3.928   2.174 -1.4132  0.1540  0.7629
11056TIP3   OH254582   3.732   6.048   3.817 -0.1258  0.0508 -0.2527
11056TIP3    H154583   3.678   6.127   3.809 -0.0842  0.0095 -1.1060
11056TIP3    H254584   3.775   6.040   3.731  0.5726 -0.3936  0.1276
11057TIP3   OH254585   3.394   6.718   3.042 -0.2985  0.2735  0.1595
11057TIP3    H154586   3.433   6.702   3.128 -0.5671  0.6159  0.3497
11057TIP3    H254587   3.328   6.650   3.031 -1.3441  1.1263  0.9032
11058TIP3   OH254588   0.288   1.985   1.026 -0.1283 -0.2195 -0.2902
11058TIP3    H154589   0.267   1.896   0.999 -0.4720 -0.3818  0.5037
11058TIP3    H254590   0.377   1.999   0.995 -0.4495 -0.4584 -1.3587
11059TIP3   OH254591   0.841   5.368   0.941 -0.0113 -0.2069  0.0935
11059TIP3    H154592   0.863   5.450   0.896 -0.4627 -0.7833 -1.2116
11059TIP3    H254593   0.926   5.332   0.967  0.5468 -1.1331 -2.6346
11060TIP3   OH254594   2.610   1.353  11.904 -0.4487  0.0719  0.0352
11060TIP3    H154595   2.610   1.392  11.816  1.4222 -0.9678 -0.4652
11060TIP3    H254596   2.630   1.426  11.962  0.7927  0.3074 -0.6629
11061TIP3   OH254597   3.936   6.229  14.623 -0.1438 -0.4318 -0.2502
11061TIP3    H154598   4.011   6.177  14.652 -0.0477  0.5284  1.3343
11061TIP3    H254599   3.974   6.313  14.599 -0.4426 -0.6942 -1.7660
11062TIP3   OH254600   3.817   2.472   0.982 -0.3571 -0.5566 -0.2644
11062TIP3    H154601   3.852   2.561   0.984 -1.4342 -0.1388  0.3432
11062TIP3    H254602   3.888   2.418   1.018 -0.3166  0.2882  0.9765
11063TIP3   OH254603   6.531   3.801   1.580  0.2694 -0.2513  0.1982
11063TIP3    H154604   6.443   3.835   1.563  0.1031  0.2449  1.8005
11063TIP3    H254605   6.530   3.781   1.674  1.3805 -1.7303 -0.0717
11064TIP3   OH254606   2.563   0.267   2.014  0.1466  0.0521  0.2474
11064TIP3    H154607   2.593   0.262   1.923 -1.3589 -1.8765 -0.2072
11064TIP3    H254608   2.643   0.255   2.066  1.1629  2.0724 -0.7501
11065TIP3   OH254609   0.314   4.409  14.937 -0.0061 -0.2362 -0.0552
11065TIP3    H154610   0.336   4.344  15.003 -0.4388 -1.5836 -1.1789
11065TIP3    H254611   0.354   4.375  14.856  1.1613  1.7311 -0.3751
11066TIP3   OH254612   1.965   3.866  15.254 -0.3275 -0.3149  0.3641
11066TIP3    H154613   2.001   3.785  15.291 -1.4991 -0.6642  0.7898
11066TIP3    H254614   1.914   3.837  15.178  0.3682  0.1828 -0.3108
11067TIP3   OH254615   5.002   2.598  14.901  0.2979  0.2526 -0.6691
11067TIP3    H154616   5.084   2.588  14.950 -0.2641 -0.0013  0.2524
11067TIP3    H254617   5.029   2.616  14.811  1.3739  1.3828 -0.1470
11068TIP3   OH254618   4.311   1.778   1.609  0.3339  0.3191  0.2567
11068TIP3    H154619   4.403   1.802   1.616  0.6136 -0.2737 -1.1357
11068TIP3    H254620   4.266   1.859   1.587  0.8441  0.2199 -1.2717
11069TIP3   OH254621   0.758   3.822   0.196 -0.5034 -0.0061  0.2128
11069TIP3    H154622   0.664   3.808   0.184 -0.4307  0.0420 -0.4359
11069TIP3    H254623   0.765   3.869   0.280 -1.1595  1.1452 -0.3589
11070TIP3   OH254624   5.457   3.558  14.115  0.5466  0.2790 -0.4777
11070TIP3    H154625   5.424   3.504  14.043 -0.0867 -0.7806  0.5638
11070TIP3    H254626   5.552   3.554  14.106  0.4803  1.6576 -2.3006
11071TIP3   OH254627   6.171   0.904  15.448 -0.1685  0.2742  0.1859
11071TIP3    H154628   6.146   0.979  15.393 -0.2453 -0.3369 -0.6278
11071TIP3    H254629   6.211   0.842  15.387 -1.6699 -1.0964  0.5452
11072TIP3   OH254630   0.129   1.085  15.064  0.1316 -0.3009 -0.2109
11072TIP3    H154631   0.148   1.178  15.059 -0.4116 -0.0621  1.4284
11072TIP3    H254632   0.047   1.074  15.015 -0.2354  0.2421  0.2722
11073TIP3   OH254633   6.429   1.115   2.037 -0.0046 -0.1405  0.1342
11073TIP3    H154634   6.375   1.079   2.107 -1.8813 -1.6584 -1.9172
11073TIP3    H254635   6.500   1.052   2.026  0.1906  0.0073  0.5669
11074TIP3   OH254636   0.077   4.406  10.460  0.1392  0.0821 -0.0336
11074TIP3    H154637   0.120   4.490  10.442 -1.5284  0.8869 -0.4657
11074TIP3    H254638   0.139   4.359  10.515  2.2954  0.4803 -1.9679
11075TIP3   OH254639   6.293   4.948   1.256 -0.1702  0.1867  0.7103
11075TIP3    H154640   6.205   4.962   1.221  1.0700  0.9510 -2.5307
11075TIP3    H254641   6.333   5.035   1.254  0.8377 -0.2377  1.5752
11076TIP3   OH254642   2.998   2.406   1.792 -0.0134  0.8979  0.6075
11076TIP3    H154643   3.085   2.432   1.762  1.2784 -1.3340  2.1466
11076TIP3    H254644   2.967   2.345   1.725  0.8638 -0.4948  1.4400
11077TIP3   OH254645   5.586   2.193  14.765  0.2973 -0.0954  0.4430
11077TIP3    H154646   5.523   2.125  14.741  0.4728  0.0131 -0.3241
11077TIP3    H254647   5.531   2.265  14.798  0.0692 -0.2925  0.4983
11078TIP3   OH254648   2.214   2.098  12.668 -0.0118 -0.2832  0.3846
11078TIP3    H154649   2.271   2.149  12.612 -1.0770 -1.2649 -1.7071
11078TIP3    H254650   2.268   2.023  12.695  0.5430  0.2563  0.8009
11079TIP3   OH254651   1.525   1.583   2.688  0.0462  0.0969 -0.3771
11079TIP3    H154652   1.550   1.508   2.742 -0.2769  0.2406 -0.0195
11079TIP3    H254653   1.592   1.587   2.619 -0.5626 -1.2127 -1.0789
11080TIP3   OH254654   3.756   2.824   4.279 -0.6287  1.0849 -0.2862
11080TIP3    H154655   3.773   2.870   4.197  0.2301 -0.3123 -0.9126
11080TIP3    H254656   3.841   2.788   4.305 -1.6858 -2.4646 -1.2668
11081TIP3   OH254657   2.958   2.752  14.429 -0.0054 -0.0911 -0.6331
11081TIP3    H154658   2.949   2.664  14.466 -0.6594 -0.2165 -1.0638
11081TIP3    H254659   2.980   2.738  14.337 -0.7081  0.1742 -0.8528
11082TIP3   OH254660   2.220   3.676  14.524  0.4390 -0.3447 -0.5227
11082TIP3    H154661   2.194   3.589  14.553 -0.3135  0.2733  0.7425
11082TIP3    H254662   2.288   3.702  14.586  0.0547  0.2989 -0.3647
11083TIP3   OH254663   6.496   0.482   3.505 -0.2295 -0.8166  0.0153
11083TIP3    H154664   6.492   0.564   3.555 -1.9238 -0.0362 -1.2846
11083TIP3    H254665   6.587   0.474   3.478  0.3315 -0.3118  1.6605
11084TIP3   OH254666   2.036   0.204   5.174 -0.3012 -0.6521 -0.3253
11084TIP3    H154667   2.098   0.142   5.212 -1.4036 -1.8884 -0.4445
11084TIP3    H254668   2.018   0.169   5.086  0.0059  0.5508 -0.8888
11085TIP3   OH254669   3.480   0.590  16.617 -0.3931  0.5825 -0.2983
11085TIP3    H154670   3.501   0.500  16.594 -1.5506  0.1616  0.1856
11085TIP3    H254671   3.520   0.603  16.703  0.1309  0.6688 -0.5554
11086TIP3   OH254672   1.970   5.901  14.816  0.4915  0.3174 -0.5626
11086TIP3    H154673   2.004   5.885  14.904  0.8360  1.7116 -0.4304
11086TIP3    H254674   1.903   5.968  14.828 -0.5855 -0.6117 -1.1660
11087TIP3   OH254675   2.576   0.450   6.308  0.3576  0.2610  0.1252
11087TIP3    H154676   2.587   0.375   6.249 -2.8527 -0.2272 -0.0264
11087TIP3    H254677   2.548   0.411   6.390 -1.1378  1.2348  0.1072
11088TIP3   OH254678   6.013   5.576  13.368  0.1272  0.6351 -0.1571
11088TIP3    H154679   5.934   5.592  13.418 -0.5552 -1.8164 -0.3000
11088TIP3    H254680   6.017   5.647  13.305 -1.5064  1.2503  0.3854
11089TIP3   OH254681   6.623   3.306   4.473  0.3573  0.0112 -0.5608
11089TIP3    H154682   6.580   3.381   4.430  1.2117  1.7638  1.4408
11089TIP3    H254683   6.639   3.244   4.403  1.4529  2.5796 -2.7738
11090TIP3   OH254684   3.964   1.850   1.544  0.3706 -0.7851 -0.0969
11090TIP3    H154685   4.031   1.805   1.493  0.9839 -0.6410  0.5634
11090TIP3    H254686   4.007   1.928   1.578 -0.1082 -0.7204  0.3890
11091TIP3   OH254687   4.623   0.265   2.799  0.1118 -0.3374 -0.2959
11091TIP3    H154688   4.618   0.172   2.818 -0.7158  0.0447  1.5564
11091TIP3    H254689   4.675   0.302   2.870  0.1595  0.6570 -0.8220
11092TIP3   OH254690   5.349   2.383   1.788  0.6907 -0.4002 -0.5625
11092TIP3    H154691   5.335   2.288   1.782 -0.3384 -0.4148  1.4824
11092TIP3    H254692   5.399   2.395   1.868 -0.6743  0.9096  0.1314
11093TIP3   OH254693   5.939   1.571  11.384  0.3641  0.2389  0.0471
11093TIP3    H154694   5.978   1.622  11.314 -1.4668  1.2967 -0.2609
11093TIP3    H254695   5.921   1.485  11.344 -0.4041  0.7413 -0.7149
11094TIP3   OH254696   5.014   5.361   0.424  0.1214 -0.2938 -0.3843
11094TIP3    H154697   4.987   5.452   0.431 -0.4792 -0.3182 -1.8962
11094TIP3    H254698   4.966   5.316   0.493  1.4532  0.7013  1.2829
11095TIP3   OH254699   6.725   1.146   1.315  0.2426 -0.1749  0.7400
11095TIP3    H154700   6.677   1.208   1.260  0.0938  0.1096  1.1819
11095TIP3    H254701   6.664   1.074   1.330  0.8808 -1.1148 -0.9119
11096TIP3   OH254702   4.849   0.982   1.378 -0.3651 -0.4094  0.6807
11096TIP3    H154703   4.943   0.980   1.364 -0.4398  0.4111 -0.0534
11096TIP3    H254704   4.820   1.063   1.336 -1.4722 -0.9462  0.3582
11097TIP3   OH254705   3.514   5.241  15.850  0.4604 -0.3535 -0.3068
11097TIP3    H154706   3.560   5.319  15.818  1.0798  0.1316  1.6335
11097TIP3    H254707   3.583   5.176  15.861  0.3199 -0.4163  0.2525
11098TIP3   OH254708   3.596   3.993   4.591  0.2694  0.5987  0.8185
11098TIP3    H154709   3.598   4.075   4.542 -2.2719  0.4218  0.2424
11098TIP3    H254710   3.552   4.016   4.673 -1.1010 -0.2495  0.3659
11099TIP3   OH254711   2.861   1.345   2.218 -0.0986  0.1933 -0.5204
11099TIP3    H154712   2.858   1.260   2.263  0.2112 -0.0465 -0.9479
11099TIP3    H254713   2.785   1.392   2.251 -0.4728 -0.3849 -0.5443
11100TIP3   OH254714   0.982   1.772  13.210 -0.3576  0.3298  0.0109
11100TIP3    H154715   0.928   1.841  13.170 -0.3977  0.9533  1.0917
11100TIP3    H254716   0.919   1.716  13.256 -0.5390 -1.5267 -2.3011
11101TIP3   OH254717   3.411   0.561   1.322  0.0893 -0.3371  0.0715
11101TIP3    H154718   3.395   0.533   1.232  1.6534 -0.9881 -0.0248
11101TIP3    H254719   3.496   0.524   1.344  0.1304  0.5635  1.5237
11102TIP3   OH254720   2.800   1.221  16.097  0.4116  0.8685  0.6143
11102TIP3    H154721   2.709   1.209  16.121  0.3358  0.0359 -0.0713
11102TIP3    H254722   2.816   1.157  16.028  0.8298  2.6661 -1.0366
11103TIP3   OH254723   5.626   2.006  13.046  0.3917  0.2095 -0.0933
11103TIP3    H154724   5.548   2.049  13.012 -0.2668 -1.9014 -1.4587
11103TIP3    H254725   5.606   1.986  13.137 -0.3423  0.4064 -0.2084
11104TIP3   OH254726   0.023   2.965  14.945 -0.1435 -0.1217  0.0198
11104TIP3    H154727  -0.056   3.011  14.916  0.2634  0.5000 -0.1272
11104TIP3    H254728   0.006   2.873  14.925 -1.1459 -0.1017  0.7128
11105TIP3   OH254729   4.365   3.592   5.212 -0.3165  0.4143 -0.1229
11105TIP3    H154730   4.337   3.646   5.285 -2.0457  0.2184 -0.5853
11105TIP3    H254731   4.363   3.651   5.136 -1.0423  0.0059 -0.4274
11106TIP3   OH254732   5.686   4.048  16.521  0.2405 -0.2405  0.0806
11106TIP3    H154733   5.683   3.979  16.455  3.4372 -0.0441 -0.4579
11106TIP3    H254734   5.599   4.088  16.519 -1.1771 -3.1263 -0.7526
11107TIP3   OH254735   0.750   1.857  15.468 -0.1154  0.4047 -0.2347
11107TIP3    H154736   0.749   1.935  15.523 -1.2645 -0.1553  0.5785
11107TIP3    H254737   0.796   1.885  15.389 -0.1568  1.7903  0.1943
11108TIP3   OH254738   5.998   5.873   5.383  0.1025 -0.0227 -0.1330
11108TIP3    H154739   5.988   5.797   5.327  1.1115  0.7721 -1.4579
11108TIP3    H254740   6.093   5.879   5.398 -0.0935  0.1132  1.2086
11109TIP3   OH254741   4.024   6.762   2.177  0.0937 -0.5260 -0.2159
11109TIP3    H154742   4.008   6.828   2.245 -0.2688  0.8455 -1.5806
11109TIP3    H254743   3.940   6.715   2.171 -0.2712  0.1577 -0.5554
11110TIP3   OH254744   0.430   6.450  14.343  0.1378  0.1887  0.9307
11110TIP3    H154745   0.436   6.436  14.248 -0.7838 -0.7618  0.9904
11110TIP3    H254746   0.374   6.526  14.353  1.5551  1.2995  0.6908
11111TIP3   OH254747   0.808   5.659  16.798 -0.3458  0.5191 -0.0332
11111TIP3    H154748   0.857   5.613  16.730  0.9489 -0.8458  1.7302
11111TIP3    H254749   0.857   5.740  16.812 -0.7570  0.9224 -0.8592
11112TIP3   OH254750   6.690   5.802  15.923 -0.3068 -0.5241  0.3225
11112TIP3    H154751   6.779   5.835  15.915 -0.6372  0.4405  0.5375
11112TIP3    H254752   6.700   5.719  15.971  0.3954  0.0310  1.1823
11113TIP3   OH254753   0.202   1.747  14.188 -0.0773 -0.3313  0.1109
11113TIP3    H154754   0.156   1.678  14.237 -0.6267 -0.5437 -0.6952
11113TIP3    H254755   0.275   1.771  14.245 -1.9305  0.9987  2.1061
11114TIP3   OH254756   2.304   2.007   1.997  0.3340  0.8806 -0.4139
11114TIP3    H154757   2.384   2.053   1.974  1.7293 -1.1323  0.2097
11114TIP3    H254758   2.312   1.921   1.957 -1.3725  0.5089 -0.0632
11115TIP3   OH254759   2.833   0.828   2.544 -0.5600 -0.2372  0.8150
11115TIP3    H154760   2.832   0.765   2.617 -0.3546 -1.8363 -0.5011
11115TIP3    H254761   2.746   0.818   2.504 -1.0017  1.2800  1.3297
11116TIP3   OH254762   0.400   5.616   4.593  0.5988  0.1997  0.2228
11116TIP3    H154763   0.494   5.621   4.577  0.5947  0.6526  0.3376
11116TIP3    H254764   0.392   5.572   4.678  0.6966 -0.0387  0.1097
11117TIP3   OH254765   5.150   1.136   2.559  0.7363 -0.3762  0.7536
11117TIP3    H154766   5.090   1.095   2.497  2.0430  1.4517 -1.9414
11117TIP3    H254767   5.218   1.070   2.573  1.9207  0.0781 -2.1672
11118TIP3   OH254768   4.624   6.074  15.412 -0.0451 -0.1741  0.0058
11118TIP3    H154769   4.591   6.046  15.498  0.3076  0.2177  0.2717
11118TIP3    H254770   4.629   5.994  15.361 -2.7905 -0.1088 -0.5321
11119TIP3   OH254771   1.739   0.265  13.639  0.1204 -0.1830  0.2477
11119TIP3    H154772   1.658   0.315  13.630  0.1507  0.0707  1.3324
11119TIP3    H254773   1.807   0.331  13.651  0.3859 -0.4275  0.0977
11120TIP3   OH254774   1.184   0.589   0.307 -0.1205  0.3612  0.0292
11120TIP3    H154775   1.181   0.498   0.279  2.6768 -0.4586  1.9642
11120TIP3    H254776   1.161   0.639   0.229  2.7645 -1.8801 -2.5383
11121TIP3   OH254777   2.764   4.186   4.025  0.8175 -0.1675  0.4687
11121TIP3    H154778   2.852   4.153   4.043  0.1444 -1.4520  1.5807
11121TIP3    H254779   2.709   4.107   4.026 -0.5684  0.7784  1.2854
11122TIP3   OH254780   3.592   5.749  13.324 -0.0069 -0.2560  0.2321
11122TIP3    H154781   3.601   5.655  13.339  0.4621  0.0071  1.6829
11122TIP3    H254782   3.681   5.779  13.304 -0.4039 -0.3726 -1.9561
11123TIP3   OH254783   2.838   6.034  13.569  0.2070  0.3571  0.0456
11123TIP3    H154784   2.764   6.020  13.510  0.1297  0.7166  0.0547
11123TIP3    H254785   2.897   6.092  13.521  2.1080 -2.4720 -1.3614
11124TIP3   OH254786   5.639   3.518   2.849 -0.4648  0.4217  0.0168
11124TIP3    H154787   5.628   3.424   2.861 -1.0858  0.5340  0.3868
11124TIP3    H254788   5.584   3.538   2.773 -1.6421  0.7342  0.9173
11125TIP3   OH254789   6.138   0.694  15.836 -0.3909 -0.3531 -0.9036
11125TIP3    H154790   6.154   0.632  15.765 -2.1053 -2.7554  0.6498
11125TIP3    H254791   6.113   0.775  15.792 -1.1136 -1.6686 -3.0684
11126TIP3   OH254792   3.636   3.184  11.941  0.2906 -0.1983  0.5407
11126TIP3    H154793   3.725   3.218  11.928  0.2349  0.3491  1.5461
11126TIP3    H254794   3.608   3.221  12.024 -1.7364  1.4664 -0.7688
11127TIP3   OH254795   6.197   4.883  15.550 -0.0359  0.2079  0.3913
11127TIP3    H154796   6.108   4.858  15.578 -0.2044 -0.3818 -0.6271
11127TIP3    H254797   6.254   4.826  15.601 -0.2008  0.9207  1.4097
11128TIP3   OH254798   0.378   4.564   5.664  0.8249  0.1861  0.0818
11128TIP3    H154799   0.340   4.634   5.718 -1.2137 -0.8126  0.0298
11128TIP3    H254800   0.404   4.497   5.727  2.0709  0.6466  0.0754
11129TIP3   OH254801   5.772   0.346   4.401 -0.2048  0.7648  0.1721
11129TIP3    H154802   5.709   0.330   4.330 -1.2078  0.0893  1.1705
11129TIP3    H254803   5.791   0.439   4.396 -1.1236  0.9390 -0.3021
11130TIP3   OH254804   3.797   2.029  14.134 -0.5283  0.4200  1.1923
11130TIP3    H154805   3.804   1.950  14.079 -1.3813  1.6996 -0.8686
11130TIP3    H254806   3.725   2.010  14.194  0.3933 -1.0017  1.9001
11131TIP3   OH254807   3.608   5.865   0.825  0.5862 -0.0796 -0.0299
11131TIP3    H154808   3.677   5.917   0.867  0.9217  0.6381 -1.4101
11131TIP3    H254809   3.637   5.774   0.834  1.4714  0.1816 -0.1442
11132TIP3   OH254810   4.661   4.651   5.603 -0.2934  0.5618  0.5971
11132TIP3    H154811   4.676   4.557   5.600  0.7127  0.6064  2.4837
11132TIP3    H254812   4.631   4.674   5.515  0.2442 -1.3722 -0.1318
11133TIP3   OH254813   6.153   1.741  15.444 -0.0062 -0.0413 -0.3382
11133TIP3    H154814   6.062   1.709  15.448 -0.0122  0.0470  0.2972
11133TIP3    H254815   6.146   1.829  15.407 -0.4644  1.0070  2.0835
11134TIP3   OH254816   1.767   0.066   5.271 -0.4166  0.1030  0.0978
11134TIP3    H154817   1.837   0.043   5.332  0.3315  1.1510 -0.3429
11134TIP3    H254818   1.805   0.134   5.215 -1.4327 -0.0892 -0.8535
11135TIP3   OH254819   6.038   5.982   1.025 -0.4624 -0.0821 -0.3975
11135TIP3    H154820   6.051   6.057   0.968 -2.8276  0.9034  0.2381
11135TIP3    H254821   6.009   5.912   0.967  0.2777 -0.0723 -0.7916
11136TIP3   OH254822   0.683   2.805  16.904 -0.8987 -0.0444 -0.4613
11136TIP3    H154823   0.618   2.766  16.962 -0.8880 -0.0808 -0.4738
11136TIP3    H254824   0.637   2.878  16.862 -1.0685 -0.3505 -0.8106
11137TIP3   OH254825   6.156   3.357  11.631  0.3004 -0.0621 -0.1128
11137TIP3    H154826   6.182   3.377  11.721 -3.1794  1.6858  0.6732
11137TIP3    H254827   6.196   3.426  11.579 -0.4829  0.9864  0.6411
11138TIP3   OH254828   4.254   6.712   3.919  0.4568 -0.2194 -0.5087
11138TIP3    H154829   4.332   6.734   3.868 -0.1766 -0.4987 -1.6214
11138TIP3    H254830   4.183   6.757   3.875  0.0120  0.2988  0.6862
11139TIP3   OH254831   0.181   0.142   0.048  0.1483 -0.2746 -0.0061
11139TIP3    H154832   0.101   0.146   0.100  0.2918  0.2971  0.1768
11139TIP3    H254833   0.225   0.226   0.065  0.1614 -0.0452 -1.1106
11140TIP3   OH254834   3.418   4.172   3.829  0.4589 -0.1085  0.4516
11140TIP3    H154835   3.366   4.251   3.841  1.2671  0.5622 -0.3335
11140TIP3    H254836   3.452   4.151   3.916  1.3249  1.1748  0.4337
11141TIP3   OH254837   5.151   1.833   5.368  0.1956 -0.5023 -0.9368
11141TIP3    H154838   5.215   1.876   5.425 -1.9650  2.2252 -0.3975
11141TIP3    H254839   5.101   1.776   5.428 -0.5798  0.6072 -0.4993
11142TIP3   OH254840   0.452   6.243  15.106 -0.8470  0.3841  0.0792
11142TIP3    H154841   0.512   6.314  15.085  2.5255 -1.1455  3.4330
11142TIP3    H254842   0.437   6.199  15.022  0.9978  2.0943 -1.2467
11143TIP3   OH254843   5.029   4.345  13.634 -0.0784 -0.5375 -0.6617
11143TIP3    H154844   5.039   4.290  13.712  3.4989  0.9123  0.1061
11143TIP3    H254845   5.013   4.433  13.669 -1.5976 -0.3477 -1.7335
11144TIP3   OH254846   3.519   5.925   3.013  0.4062  0.1305 -0.0270
11144TIP3    H154847   3.587   5.959   3.071  0.7711 -1.1199  0.3191
11144TIP3    H254848   3.538   5.963   2.928  1.1785  0.2682  0.2036
11145TIP3   OH254849   2.446   3.307   0.234 -0.7686 -0.4788  0.4533
11145TIP3    H154850   2.489   3.244   0.292  0.0771  0.1933  0.5687
11145TIP3    H254851   2.402   3.368   0.294  1.1016  0.9310  0.4870
11146TIP3   OH254852   4.896   6.606   3.394 -0.0380  0.3613  0.1255
11146TIP3    H154853   4.963   6.640   3.453 -0.6197  0.8878  0.5030
11146TIP3    H254854   4.913   6.512   3.388  1.5877  0.6848 -0.9043
11147TIP3   OH254855   0.198   0.467   2.884  0.0498 -0.0275  0.0401
11147TIP3    H154856   0.271   0.509   2.838 -0.6546  1.2663  0.0667
11147TIP3    H254857   0.120   0.495   2.836 -0.5963  0.3153  1.2425
11148TIP3   OH254858   0.222   1.235  16.185 -0.0889  0.1762 -0.6557
11148TIP3    H154859   0.140   1.245  16.233  0.5453 -2.2427  1.1056
11148TIP3    H254860   0.230   1.141  16.169  0.9227  0.6452 -3.4963
11149TIP3   OH254861   4.746   4.590   4.936 -0.1590  0.3999 -0.1779
11149TIP3    H154862   4.836   4.585   4.902  0.0674 -2.3515  0.6313
11149TIP3    H254863   4.705   4.658   4.882  2.4544  1.9843 -0.3722
11150TIP3   OH254864   5.705   0.584   4.052  0.5729  0.6573  0.2247
11150TIP3    H154865   5.787   0.576   4.100  0.5988 -0.1557  0.0522
11150TIP3    H254866   5.705   0.675   4.020  1.4112  0.6586  0.2060
11151TIP3   OH254867   1.029   0.077  14.667  0.8663 -0.1887 -0.0743
11151TIP3    H154868   1.079   0.115  14.739  0.9177  1.8229 -1.1028
11151TIP3    H254869   0.939   0.107  14.682  1.0870  1.3402 -1.4498
11152TIP3   OH254870   2.663   6.445   2.475  0.7255  0.4021  0.0375
11152TIP3    H154871   2.736   6.384   2.462 -0.3337 -0.2535 -4.4498
11152TIP3    H254872   2.595   6.392   2.516  1.7740  0.3199  1.7897
11153TIP3   OH254873   1.454   5.516   1.887  0.2071 -0.2465  0.5359
11153TIP3    H154874   1.518   5.572   1.842  0.4737 -1.6361 -0.9025
11153TIP3    H254875   1.373   5.528   1.837  0.0461 -0.4974  0.7365
11154TIP3   OH254876   2.887   0.112   0.419  0.4747 -0.1386  0.4600
11154TIP3    H154877   2.862   0.021   0.409 -0.5438  0.1003  0.7842
11154TIP3    H254878   2.820   0.161   0.373 -0.1681  0.5563  2.0773
11155TIP3   OH254879   0.622   1.315  12.803  0.2238 -0.1399  0.3773
11155TIP3    H154880   0.536   1.273  12.804  0.5871 -1.0505 -1.5217
11155TIP3    H254881   0.628   1.360  12.887 -1.5916 -1.0867  1.0677
11156TIP3   OH254882   4.078   4.041   5.013  0.1152  0.4118 -0.0177
11156TIP3    H154883   4.167   4.072   4.992  0.2986 -0.8342 -1.2232
11156TIP3    H254884   4.062   4.073   5.102  2.3934 -0.6681  0.8587
11157TIP3   OH254885   4.979   5.367  11.588  0.5215  0.9416 -0.4555
11157TIP3    H154886   4.997   5.301  11.654 -1.4958  0.1818 -0.5935
11157TIP3    H254887   4.905   5.418  11.623 -0.4124  0.7066 -1.9464
11158TIP3   OH254888   2.515   0.893  13.183 -0.1218 -0.0082  0.3128
11158TIP3    H154889   2.506   0.985  13.208 -1.6206  0.3875 -1.4984
11158TIP3    H254890   2.597   0.889  13.133  0.1507  0.2398  0.7352
11159TIP3   OH254891   6.163   4.320  15.752  0.1080  0.2360 -0.4073
11159TIP3    H154892   6.205   4.297  15.669 -0.3030  0.9459 -0.8259
11159TIP3    H254893   6.094   4.254  15.762  0.1532  0.1518 -0.6331
11160TIP3   OH254894   1.322   1.764   2.703  0.0291  0.2626 -0.0946
11160TIP3    H154895   1.407   1.720   2.704  0.0491  0.1546 -2.2008
11160TIP3    H254896   1.343   1.857   2.703  0.0877  0.2576  0.7199
11161TIP3   OH254897   0.917   5.056   6.310  0.3468 -0.0385  0.4774
11161TIP3    H154898   0.834   5.057   6.356  0.4163  1.1561  0.6072
11161TIP3    H254899   0.899   5.013   6.227 -1.1426  2.7392 -0.7772
11162TIP3   OH254900   1.562   6.685   4.543  0.2497 -0.0010 -0.3186
11162TIP3    H154901   1.574   6.637   4.624  0.5338  0.6718  0.0497
11162TIP3    H254902   1.467   6.693   4.533  0.2228  0.5536  0.3373
11163TIP3   OH254903   0.804   4.298  12.450  0.2074  0.3568  0.2008
11163TIP3    H154904   0.748   4.224  12.426 -0.8236  0.8299  1.0617
11163TIP3    H254905   0.824   4.340  12.366 -1.4964  0.6916 -0.0840
11164TIP3   OH254906   2.421   0.718   4.686  0.0116  0.4885  0.5498
11164TIP3    H154907   2.436   0.633   4.729  1.4218 -0.1817 -1.1275
11164TIP3    H254908   2.336   0.747   4.719 -1.0498 -2.1001  0.3695
11165TIP3   OH254909   2.864   4.910   5.354 -0.0490  0.1924  0.5287
11165TIP3    H154910   2.945   4.894   5.403  0.7686 -1.8852 -1.3260
11165TIP3    H254911   2.850   5.004   5.362  2.5791  0.6390  0.8966
11166TIP3   OH254912   0.124   4.828  14.581  0.0692  0.4148  0.3468
11166TIP3    H154913   0.210   4.805  14.546  0.3806 -0.7771  1.7961
11166TIP3    H254914   0.065   4.761  14.546  0.2777 -0.4470  1.6073
11167TIP3   OH254915   2.995   5.492  12.787  0.1540 -0.0054  0.4117
11167TIP3    H154916   3.044   5.545  12.725  1.2951  0.6625  1.8020
11167TIP3    H254917   3.062   5.458  12.847 -0.9403 -0.1836  1.5818
11168TIP3   OH254918   2.144   2.562   3.065 -0.3347 -0.3749 -0.8328
11168TIP3    H154919   2.157   2.646   3.020  1.5379  1.1823  2.2860
11168TIP3    H254920   2.049   2.548   3.062 -0.4932  0.7098 -3.2344
11169TIP3   OH254921   3.753   2.997  10.997  0.1277 -0.0276 -0.2184
11169TIP3    H154922   3.774   2.909  11.028  0.0259  1.0856  3.5777
11169TIP3    H254923   3.837   3.033  10.967  0.6257 -0.6783  0.3598
11170TIP3   OH254924   3.048   0.872   1.176 -0.5160 -0.5527  0.0737
11170TIP3    H154925   3.110   0.811   1.136 -0.5567 -1.2919  1.1137
11170TIP3    H254926   2.964   0.852   1.133 -0.1956 -0.0384 -0.8173
11171TIP3   OH254927   2.343   2.358   4.344 -0.3654  0.2622  0.2217
11171TIP3    H154928   2.360   2.266   4.364 -0.4385  0.4488  1.1944
11171TIP3    H254929   2.429   2.393   4.322 -0.3021  0.0176  0.0666
11172TIP3   OH254930   1.749   4.714  14.253  0.4434 -0.2861  0.1562
11172TIP3    H154931   1.801   4.757  14.186  0.7375  0.5870  0.9331
11172TIP3    H254932   1.797   4.728  14.335 -0.3326 -0.6089  0.6846
11173TIP3   OH254933   6.403   5.273  13.503 -0.2547 -0.1086 -0.8713
11173TIP3    H154934   6.456   5.296  13.579  0.9732  0.2451 -1.8069
11173TIP3    H254935   6.448   5.314  13.429 -1.8968  0.2919 -1.6916
11174TIP3   OH254936   4.238   6.668  11.131 -0.1079  0.8252 -0.3521
11174TIP3    H154937   4.307   6.724  11.167  0.4381 -0.3505  0.5164
11174TIP3    H254938   4.279   6.627  11.055 -1.1322  3.0036 -2.1893
11175TIP3   OH254939   6.269   0.392   4.082  0.8005  0.2065 -0.0530
11175TIP3    H154940   6.317   0.464   4.043  0.7270  0.5114  0.4148
11175TIP3    H254941   6.277   0.406   4.177 -0.1655  0.2396  0.0347
11176TIP3   OH254942   6.657   2.694   3.384  0.2997 -0.1425 -0.6125
11176TIP3    H154943   6.613   2.778   3.394 -0.0068 -0.4119  0.4491
11176TIP3    H254944   6.748   2.717   3.363  0.4110  0.4824  0.4603
11177TIP3   OH254945   1.287   4.459   5.110 -0.6089 -0.4241 -0.1903
11177TIP3    H154946   1.240   4.476   5.192 -0.1759 -0.7687  0.1372
11177TIP3    H254947   1.378   4.483   5.129 -0.2941 -1.5226 -0.2214
11178TIP3   OH254948   2.734   1.952   3.866 -0.0149  0.4157 -0.0363
11178TIP3    H154949   2.792   1.940   3.941 -0.4020  0.9531  0.3596
11178TIP3    H254950   2.658   1.896   3.885  0.1107  0.1600 -0.2757
11179TIP3   OH254951   2.967   0.613  11.204  0.0948 -0.7509  0.1128
11179TIP3    H154952   2.977   0.540  11.264 -0.0942 -0.8337  0.0431
11179TIP3    H254953   2.874   0.613  11.181 -0.0388 -0.0876  0.6241
11180TIP3   OH254954   0.791   3.489  13.279 -0.6220  0.2345 -0.1817
11180TIP3    H154955   0.767   3.447  13.362 -1.8562 -1.3008 -1.2477
11180TIP3    H254956   0.835   3.570  13.305  0.3804 -0.9001  1.9793
11181TIP3   OH254957   2.636   6.111   0.767  0.3603  0.1552 -0.0969
11181TIP3    H154958   2.660   6.058   0.691  1.0528  1.8600 -1.1291
11181TIP3    H254959   2.714   6.164   0.785 -0.1487  0.5071  1.1832
11182TIP3   OH254960   3.440   4.414  11.953  0.0757  0.2626 -0.4554
11182TIP3    H154961   3.463   4.322  11.963 -0.5812 -0.0009 -1.2617
11182TIP3    H254962   3.406   4.440  12.039 -0.4809 -0.4682 -0.4461
11183TIP3   OH254963   6.271   2.258   2.885 -0.6621 -0.1039 -0.1724
11183TIP3    H154964   6.326   2.179   2.882 -2.9532 -1.8073 -2.6656
11183TIP3    H254965   6.315   2.320   2.827  0.5705  0.0688  0.9091
11184TIP3   OH254966   4.349   2.542   5.696 -0.0915 -0.1060  0.2240
11184TIP3    H154967   4.306   2.627   5.705 -0.5293 -0.3611  0.6161
11184TIP3    H254968   4.306   2.500   5.622  1.8942  1.0378 -1.6702
11185TIP3   OH254969   2.166   2.345   2.126 -0.2150 -0.5741  0.2288
11185TIP3    H154970   2.151   2.416   2.064 -1.0619 -0.8813  0.0832
11185TIP3    H254971   2.238   2.377   2.181 -1.0888  0.7383  0.6659
11186TIP3   OH254972   4.917   3.139   0.665 -0.4150 -0.2609 -0.3534
11186TIP3    H154973   4.886   3.225   0.691 -1.1904 -1.2508  2.3632
11186TIP3    H254974   5.005   3.153   0.631 -0.4200  1.5460  0.3141
11187TIP3   OH254975   4.653   5.257  13.842  0.0847  0.1452  0.0043
11187TIP3    H154976   4.599   5.190  13.801 -0.9845  0.1638  1.2757
11187TIP3    H254977   4.626   5.338  13.799 -0.0051 -0.0098 -0.2338
11188TIP3   OH254978   3.159   4.248  17.105 -0.3570  0.0672  0.0285
11188TIP3    H154979   3.182   4.157  17.083  1.0625 -1.1681  5.2192
11188TIP3    H254980   3.064   4.248  17.111 -0.3457 -1.3065  0.5310
11189TIP3   OH254981   4.231   0.158  11.273 -0.0372  0.3333 -0.3419
11189TIP3    H154982   4.307   0.133  11.325 -0.2189  1.2394  0.3851
11189TIP3    H254983   4.157   0.120  11.321 -0.2045  1.1592  0.0709
11190TIP3   OH254984   3.309   4.031  12.439  0.1712  0.2993 -0.1051
11190TIP3    H154985   3.355   3.953  12.410  1.4368  0.3759  1.5077
11190TIP3    H254986   3.340   4.101  12.381  0.5575 -0.0197 -0.2811
11191TIP3   OH254987   5.355   5.965  12.561  0.1518  0.1937  0.4259
11191TIP3    H154988   5.428   5.908  12.586  1.2999  1.3672 -0.1217
11191TIP3    H254989   5.350   6.029  12.633 -0.6390 -0.1473  0.6776
11192TIP3   OH254990   5.707   5.463  11.705 -0.2005 -0.0466  0.0732
11192TIP3    H154991   5.678   5.372  11.704  0.9035 -0.4066 -0.2241
11192TIP3    H254992   5.649   5.506  11.767 -0.4204 -1.0535  0.5812
11193TIP3   OH254993   2.597   5.306   1.636 -0.3644 -0.0616 -0.0478
11193TIP3    H154994   2.562   5.304   1.725 -1.0733 -0.2637 -0.3210
11193TIP3    H254995   2.579   5.218   1.602 -0.3114  0.0893 -0.4669
11194TIP3   OH254996   4.763   0.430  13.935 -0.4552  0.2335 -0.2513
11194TIP3    H154997   4.698   0.376  13.890 -0.8959 -0.3482  1.0392
11194TIP3    H254998   4.729   0.439  14.024  0.9764  0.3749  0.2990
11195TIP3   OH254999   5.586   3.656  17.026  0.0555 -0.5528 -0.1467
11195TIP3    H155000   5.494   3.668  17.048 -0.1197 -0.9346 -0.6507
11195TIP3    H255001   5.610   3.735  16.978  0.1832 -0.1445  0.5693
11196TIP3   OH255002   1.208   6.535  14.755 -0.7663 -0.5072  0.1479
11196TIP3    H155003   1.264   6.607  14.783  0.2236 -1.3267  0.3546
11196TIP3    H255004   1.141   6.576  14.700 -0.4289  0.5989  0.5418
11197TIP3   OH255005   5.523   3.932   3.944 -0.3006 -0.2022  0.1456
11197TIP3    H155006   5.435   3.911   3.976  0.2072  0.4931  2.1416
11197TIP3    H255007   5.553   4.003   4.001  1.8629 -0.9416  0.0060
11198TIP3   OH255008   3.198   1.290  11.690 -0.3993  0.5325  0.1005
11198TIP3    H155009   3.199   1.368  11.633 -0.6661 -1.1236 -2.3448
11198TIP3    H255010   3.288   1.258  11.688 -0.3000  0.7445  1.0524
11199TIP3   OH255011   2.524   0.389   1.748  0.3344 -0.2787  0.1655
11199TIP3    H155012   2.490   0.435   1.824  1.2306 -1.0940  1.0914
11199TIP3    H255013   2.558   0.458   1.691 -1.1880  0.4017  0.0531
11200TIP3   OH255014   4.268   0.573   0.576  0.1904 -0.0185  0.1029
11200TIP3    H155015   4.291   0.488   0.612 -0.3945 -0.8697 -1.4424
11200TIP3    H255016   4.255   0.629   0.652 -2.0937 -1.9982  1.3059
11201TIP3   OH255017   6.222   3.631   1.538 -0.1644 -0.3491  0.4066
11201TIP3    H155018   6.272   3.554   1.563  1.2330  0.8829  1.6366
11201TIP3    H255019   6.261   3.660   1.456  1.5081  0.8096  1.5337
11202TIP3   OH255020   2.715   3.248  16.375 -0.3613 -0.0046 -0.4571
11202TIP3    H155021   2.621   3.252  16.394 -0.4034 -0.6986 -0.4875
11202TIP3    H255022   2.755   3.215  16.456 -0.1375  0.3342 -0.4278
11203TIP3   OH255023   6.354   0.819  13.675 -0.2423  0.4387  0.1784
11203TIP3    H155024   6.324   0.908  13.656 -0.6456  0.3248  0.2782
11203TIP3    H255025   6.354   0.813  13.770  0.4214  0.5465  0.1858
11204TIP3   OH255026   2.050   6.501  12.767 -0.0701 -0.2294  0.0419
11204TIP3    H155027   2.126   6.446  12.748 -0.3085 -0.2311 -0.9505
11204TIP3    H255028   2.048   6.506  12.863  0.6601 -0.9522  0.1086
11205TIP3   OH255029   5.287   1.144   5.483  0.0859 -0.0595  0.5259
11205TIP3    H155030   5.308   1.121   5.574  3.2267  0.7414  0.1389
11205TIP3    H255031   5.325   1.072   5.432  1.1749  1.0155 -0.2349
11206TIP3   OH255032   6.467   1.484  17.132 -0.6852 -0.6640 -0.2910
11206TIP3    H155033   6.545   1.514  17.086 -1.1941 -0.2846 -0.9136
11206TIP3    H255034   6.500   1.421  17.196  0.3192  0.7167  0.6039
11207TIP3   OH255035   0.439   2.202  16.690  0.1926  0.6083  0.1925
11207TIP3    H155036   0.507   2.137  16.708 -1.1072 -0.6081  0.9529
11207TIP3    H255037   0.472   2.252  16.615  1.9825  0.1874  0.6517
11208TIP3   OH255038   1.307   0.443   6.395 -0.2524  0.0254 -0.3891
11208TIP3    H155039   1.237   0.480   6.341  1.0172  2.0783 -0.6979
11208TIP3    H255040   1.272   0.358   6.423 -2.8040  0.8983 -0.6399
11209TIP3   OH255041   3.975   4.112  12.424  0.3749 -0.0368  0.0089
11209TIP3    H155042   3.914   4.050  12.385  0.3208 -0.7776  1.2178
11209TIP3    H255043   4.050   4.114  12.364  0.5470 -1.5794  0.1273
11210TIP3   OH255044   3.947   5.654  11.455 -0.0753 -0.2462 -0.0793
11210TIP3    H155045   3.936   5.748  11.436 -2.0178 -0.2388  0.8280
11210TIP3    H255046   4.033   5.633  11.419  0.3322  1.8325 -0.4999
11211TIP3   OH255047   3.368   0.484   5.523 -0.0378 -0.1149  0.0883
11211TIP3    H155048   3.348   0.578   5.514  2.6340  0.3753 -1.8006
11211TIP3    H255049   3.411   0.478   5.608 -1.1789  0.1335  0.7117
11212TIP3   OH255050   5.019   3.244   5.213  1.0544 -0.2471  0.1572
11212TIP3    H155051   4.974   3.174   5.261  2.7519 -0.8023  1.0329
11212TIP3    H255052   5.104   3.206   5.191  1.8939  1.4278  0.3658
11213TIP3   OH255053   1.549   6.353  13.282 -0.3018 -0.1356 -0.1491
11213TIP3    H155054   1.563   6.378  13.373  2.0728  1.9251 -0.9686
11213TIP3    H255055   1.454   6.364  13.268 -0.3446  1.9546  1.4253
11214TIP3   OH255056   1.788   5.777   6.293 -0.3694  0.1334  0.4133
11214TIP3    H155057   1.882   5.756   6.286 -0.2135  0.8089  0.3796
11214TIP3    H255058   1.787   5.870   6.318 -1.0264 -0.0137  0.9414
11215TIP3   OH255059   4.063   2.197   3.826  0.0457 -0.7846  0.0575
11215TIP3    H155060   4.008   2.221   3.752  0.5816 -2.3403 -0.9077
11215TIP3    H255061   4.070   2.101   3.821  1.2256 -0.8051  1.2972
11216TIP3   OH255062   1.170   2.777   2.497  0.0648 -0.0278 -0.4850
11216TIP3    H155063   1.155   2.786   2.592  0.6590 -1.1374 -0.2776
11216TIP3    H255064   1.156   2.866   2.463  0.2425  0.4771  0.6938
11217TIP3   OH255065   6.025   6.335  13.064 -0.4179  0.2627 -0.2214
11217TIP3    H155066   5.987   6.255  13.098 -1.7823  0.5004 -1.1253
11217TIP3    H255067   6.061   6.311  12.979  0.4823  0.3036  0.1298
11218TIP3   OH255068   1.676   2.411   1.542 -0.8496 -0.0730  0.4049
11218TIP3    H155069   1.615   2.419   1.469 -0.7840 -0.8131  0.2634
11218TIP3    H255070   1.718   2.326   1.529  1.2042  0.9768 -0.2645
11219TIP3   OH255071   2.458   2.853   2.237  0.0648 -0.2337  1.1653
11219TIP3    H155072   2.454   2.815   2.325 -1.1516 -0.1004  1.1891
11219TIP3    H255073   2.375   2.900   2.228 -0.0063 -0.5911 -0.2152
11220TIP3   OH255074   6.690   4.074   3.842  0.0318 -0.7102  0.0007
11220TIP3    H155075   6.616   4.060   3.783  0.1546 -0.1432 -0.3007
11220TIP3    H255076   6.715   3.987   3.870  0.2876 -1.0400 -1.1954
11221TIP3   OH255077   3.596   6.320  15.762  0.0159  0.1930 -0.1379
11221TIP3    H155078   3.660   6.271  15.712 -0.1736  1.1135 -1.3246
11221TIP3    H255079   3.624   6.412  15.754 -1.5989  0.6448 -0.9402
11222TIP3   OH255080   2.902   6.578   5.376 -0.1565  0.2675 -0.0538
11222TIP3    H155081   2.832   6.633   5.411 -0.0187  0.9234 -0.7686
11222TIP3    H255082   2.982   6.627   5.397  0.4338 -1.7966  3.3235
11223TIP3   OH255083   4.622   3.470   2.402  0.3613  0.5201 -0.4600
11223TIP3    H155084   4.555   3.538   2.399  0.3851  0.5138 -1.4526
11223TIP3    H255085   4.647   3.464   2.495 -1.2599  0.2602 -0.0072
11224TIP3   OH255086   5.725   0.132   0.096 -0.0097 -0.1673 -0.2230
11224TIP3    H155087   5.728   0.207   0.037 -0.9243  0.3093  0.3242
11224TIP3    H255088   5.817   0.112   0.115  0.2366  1.7292  0.7789
11225TIP3   OH255089   4.158   4.098  13.784 -0.1561 -0.5415  0.2672
11225TIP3    H155090   4.146   4.188  13.815  1.6200  0.5073 -1.7648
11225TIP3    H255091   4.241   4.070  13.822 -0.2318 -0.9378  0.1391
11226TIP3   OH255092   4.775   2.542   3.029 -0.2171 -0.6135  0.0952
11226TIP3    H155093   4.800   2.621   2.981  1.3497 -0.7693  0.6013
11226TIP3    H255094   4.755   2.572   3.117  2.6038 -0.9475  0.9719
11227TIP3   OH255095   3.630   1.448  10.998 -0.0495  0.2992  0.4974
11227TIP3    H155096   3.554   1.482  11.045  0.6826  2.0203  0.5096
11227TIP3    H255097   3.628   1.491  10.913  0.9888  0.4938  0.5548
11228TIP3   OH255098   0.585   4.178  16.186  0.3757 -0.1523  0.1036
11228TIP3    H155099   0.672   4.201  16.217 -0.3608 -0.2811  2.5162
11228TIP3    H255100   0.581   4.212  16.097  3.7918 -2.4998 -1.1485
11229TIP3   OH255101   1.991   1.557   3.505 -0.3969  0.7850 -0.1022
11229TIP3    H155102   2.049   1.536   3.431 -1.6722 -2.1970 -0.3873
11229TIP3    H255103   1.976   1.651   3.497  2.6872  1.3110 -1.2294
11230TIP3   OH255104   4.775   1.701  15.078  0.1127  0.1004  0.2309
11230TIP3    H155105   4.867   1.688  15.055 -0.0686 -0.7245 -0.0427
11230TIP3    H255106   4.752   1.785  15.038  0.9861  0.7596  1.0597
11231TIP3   OH255107   5.255   1.930  16.565 -0.1444  0.2968 -0.6682
11231TIP3    H155108   5.296   1.844  16.556  0.4701  0.5692 -0.5549
11231TIP3    H255109   5.289   1.980  16.490 -1.4352  0.0883 -1.4302
11232TIP3   OH255110   0.113   2.546  10.451 -0.5789  0.2772 -0.2740
11232TIP3    H155111   0.201   2.553  10.415  0.4390 -0.4403  1.8994
11232TIP3    H255112   0.075   2.633  10.439  0.7386  0.8465 -0.4761
11233TIP3   OH255113   5.792   2.300  15.461 -0.2577  0.3034 -0.0731
11233TIP3    H155114   5.705   2.320  15.494 -0.4431  0.4825 -0.6723
11233TIP3    H255115   5.794   2.335  15.372  0.4713  0.4253 -0.0199
11234TIP3   OH255116   0.843   3.898   3.818  0.3868  0.1896  0.1015
11234TIP3    H155117   0.760   3.923   3.777  0.7886 -0.1064 -0.9257
11234TIP3    H255118   0.830   3.914   3.911 -0.5308  0.9564 -0.1498
11235TIP3   OH255119   6.590   5.524  11.597  0.1667 -0.0222  0.0155
11235TIP3    H155120   6.539   5.443  11.597 -0.5234  0.3954  0.7656
11235TIP3    H255121   6.676   5.499  11.628  0.3137 -0.6771 -0.9012
11236TIP3   OH255122   5.315   1.067   3.489 -0.5765 -0.0762  0.2065
11236TIP3    H155123   5.261   0.989   3.499 -1.7977  0.2014 -3.1414
11236TIP3    H255124   5.309   1.089   3.396  2.5074  2.0393  0.3632
11237TIP3   OH255125   4.435   5.683  11.120 -0.1424 -0.3584 -0.0377
11237TIP3    H155126   4.469   5.618  11.181  1.6045 -0.2564 -0.8614
11237TIP3    H255127   4.390   5.632  11.053 -0.4514 -0.5702  0.3199
11238TIP3   OH255128   6.200   1.913   5.377 -0.4132 -0.1248 -0.4404
11238TIP3    H155129   6.268   1.977   5.398  0.6612 -1.5221  0.5045
11238TIP3    H255130   6.245   1.847   5.323 -1.3510 -0.3905 -0.9183
11239TIP3   OH255131   0.762   0.423  16.243 -0.4687 -0.8118  0.4474
11239TIP3    H155132   0.677   0.463  16.262 -0.4783 -1.1225  1.0691
11239TIP3    H255133   0.740   0.344  16.193 -0.3621  0.9918 -2.7532
11240TIP3   OH255134   3.144   4.957  11.910 -0.3017 -0.0254 -0.2832
11240TIP3    H155135   3.065   4.905  11.897 -0.6369 -0.1941  1.9867
11240TIP3    H255136   3.117   5.026  11.971  1.3961 -0.4120  0.9662
11241TIP3   OH255137   2.831   5.860   4.985  0.1216 -0.1495  0.5460
11241TIP3    H155138   2.752   5.913   4.978 -0.3887 -0.8017  1.2382
11241TIP3    H255139   2.903   5.923   4.975 -0.4682  0.3755 -0.5779
11242TIP3   OH255140   4.462   6.555  13.466  0.1064 -1.0406  0.3750
11242TIP3    H155141   4.465   6.459  13.467 -0.4508 -1.0791  2.5177
11242TIP3    H255142   4.553   6.582  13.475  0.7540 -1.2283 -3.7249
11243TIP3   OH255143   0.446   0.055  11.200 -0.5565 -0.2848  0.0007
11243TIP3    H155144   0.469   0.126  11.139  1.1109 -0.8395 -0.0578
11243TIP3    H255145   0.356   0.074  11.225  0.0400  2.2389  0.5027
11244TIP3   OH255146   1.195   2.766  13.034 -0.0509  0.6194 -0.2754
11244TIP3    H155147   1.248   2.802  13.104  0.4666 -0.5261 -0.0535
11244TIP3    H255148   1.219   2.817  12.956  0.4721  0.9119  0.0743
11245TIP3   OH255149   2.733   3.850  11.755 -0.0125  0.2618  0.4278
11245TIP3    H155150   2.805   3.906  11.784  1.8159 -2.4050  1.4642
11245TIP3    H255151   2.750   3.834  11.663 -0.6632  1.5022  0.0727
11246TIP3   OH255152   1.713   0.129  11.570  0.3111  0.3919 -0.1082
11246TIP3    H155153   1.699   0.201  11.632  1.4711 -0.5300  1.3023
11246TIP3    H255154   1.655   0.059  11.601 -0.6868  0.6203 -1.3701
11247TIP3   OH255155   2.648   0.206  15.843 -0.3792 -0.2333 -0.4329
11247TIP3    H155156   2.633   0.112  15.829 -0.6272 -0.5053  1.4133
11247TIP3    H255157   2.595   0.228  15.919 -0.3454  1.4332 -0.8561
11248TIP3   OH255158   5.809   0.554   2.640  1.0382 -0.0980  0.0768
11248TIP3    H155159   5.888   0.605   2.657  0.3583  0.3566  2.2257
11248TIP3    H255160   5.840   0.464   2.627  2.0693  0.4666 -1.7409
11249TIP3   OH255161   0.321   4.300   0.504 -0.1859 -0.2035  0.1242
11249TIP3    H155162   0.404   4.342   0.480  0.5127 -1.1616  0.8138
11249TIP3    H255163   0.261   4.323   0.432  0.8341  0.0121 -0.6774
11250TIP3   OH255164   6.505   4.971   5.968  0.3018 -0.2569 -0.2829
11250TIP3    H155165   6.423   5.014   5.945 -0.0619 -1.5272 -1.4923
11250TIP3    H255166   6.525   5.003   6.056 -0.8286  1.0139 -0.4548
11251TIP3   OH255167   3.440   4.757   4.927 -0.2019  0.1609  0.6619
11251TIP3    H155168   3.362   4.707   4.906 -0.2562  0.3461  0.4226
11251TIP3    H255169   3.413   4.848   4.922  0.1813  0.2471 -0.0640
11252TIP3   OH255170   0.924   3.379  12.702  0.6106  0.1503  0.1871
11252TIP3    H155171   0.991   3.407  12.765  0.4549 -0.7389  0.7639
11252TIP3    H255172   0.930   3.442  12.631  2.3527 -0.1569  0.0341
11253TIP3   OH255173   3.402   0.498   1.049 -0.0778  0.6098  0.1053
11253TIP3    H155174   3.380   0.413   1.010 -1.5346  0.5577  0.9597
11253TIP3    H255175   3.472   0.533   0.993 -0.2723 -0.6213 -0.9585
11254TIP3   OH255176   1.489   2.384   4.316 -0.3810 -0.1135  0.3190
11254TIP3    H155177   1.505   2.371   4.409  0.8005 -0.0746  0.1352
11254TIP3    H255178   1.507   2.476   4.300 -0.7270 -0.0826  0.0705
11255TIP3   OH255179   3.959   4.535   0.386  0.1433 -0.2884  0.4194
11255TIP3    H155180   3.935   4.628   0.390 -0.1634 -0.4268  2.1416
11255TIP3    H255181   4.037   4.528   0.440  0.4344 -0.9791 -0.0712
11256TIP3   OH255182   6.191   5.154  10.898 -0.1889 -0.8581 -0.4886
11256TIP3    H155183   6.250   5.179  10.826 -1.1279  0.3776 -0.8548
11256TIP3    H255184   6.105   5.185  10.870 -0.5252 -0.1012  1.2854
11257TIP3   OH255185   2.619   1.980   3.153 -0.1071 -0.1982  0.2684
11257TIP3    H155186   2.665   2.047   3.204 -1.0519  0.4536  0.2884
11257TIP3    H255187   2.557   1.942   3.215 -1.0600  0.3963 -0.2964
11258TIP3   OH255188   2.180   3.322   1.213 -0.4197 -0.4674  0.1382
11258TIP3    H155189   2.117   3.301   1.144 -0.7384  0.7595  0.0476
11258TIP3    H255190   2.141   3.286   1.293 -1.2091  0.2306  0.0710
11259TIP3   OH255191   2.388   2.194  10.813  0.0331 -0.1013 -0.1542
11259TIP3    H155192   2.321   2.167  10.876 -1.3546  0.7122 -1.2146
11259TIP3    H255193   2.388   2.126  10.747 -1.2220  0.8371 -1.1851
11260TIP3   OH255194   4.044   1.506   4.543 -0.4487 -0.3479 -0.5479
11260TIP3    H155195   4.009   1.438   4.602  1.2299  0.0356  0.9890
11260TIP3    H255196   4.121   1.466   4.504  0.1915  0.4389 -0.1141
11261TIP3   OH255197   5.624   1.072  14.966 -0.0996 -0.1631  0.0268
11261TIP3    H155198   5.616   1.094  14.874 -1.0628  0.2905  0.2051
11261TIP3    H255199   5.692   1.005  14.969 -1.0464 -1.2462 -1.1884
11262TIP3   OH255200   0.331   5.494  16.039  0.2153 -0.0343 -0.0206
11262TIP3    H155201   0.268   5.423  16.038 -1.1389  1.1201  0.1673
11262TIP3    H255202   0.378   5.484  16.122 -0.9187  0.0762  0.6584
11263TIP3   OH255203   0.760   4.562  15.597  0.1100  0.0063 -0.2370
11263TIP3    H155204   0.737   4.511  15.675  1.6843  1.1454  1.0507
11263TIP3    H255205   0.679   4.605  15.571 -0.7436 -1.4425 -0.0498
11264TIP3   OH255206   4.953   0.481  13.001  0.3364 -0.1842 -0.3247
11264TIP3    H155207   4.967   0.565  12.956  1.0821  0.3673  0.8711
11264TIP3    H255208   4.863   0.458  12.981 -0.4235  1.7191  0.5474
11265TIP3   OH255209   6.692   2.832  14.585 -0.1334  0.1076  0.4932
11265TIP3    H155210   6.640   2.768  14.536 -1.4985  1.4105  0.1467
11265TIP3    H255211   6.662   2.822  14.675  0.5306 -0.5607  0.6406
11266TIP3   OH255212   2.295   0.794   1.136  0.0569 -0.5512  0.4847
11266TIP3    H155213   2.260   0.824   1.052 -1.3191  0.6011  1.4355
11266TIP3    H255214   2.226   0.739   1.172 -0.1032  0.3793  1.6414
11267TIP3   OH255215   5.037   3.838  16.300 -0.3596  0.2995 -0.2556
11267TIP3    H155216   5.105   3.813  16.237  0.7499  1.3976  0.4474
11267TIP3    H255217   4.994   3.914  16.260 -0.5473  0.1722 -0.2946
11268TIP3   OH255218   0.652   0.923   1.717 -0.3072 -0.1558 -0.4597
11268TIP3    H155219   0.710   0.863   1.670 -1.6271 -0.7669 -1.3661
11268TIP3    H255220   0.573   0.926   1.664 -1.5487 -0.2249  1.3074
11269TIP3   OH255221   1.776   1.863  15.925  0.3238 -0.5519  0.2611
11269TIP3    H155222   1.856   1.822  15.893  0.1789 -0.8492  0.2735
11269TIP3    H255223   1.779   1.850  16.020  0.5828  0.0189  0.3318
11270TIP3   OH255224   3.024   5.342  13.042  0.1184  0.1586  0.1541
11270TIP3    H155225   2.961   5.412  13.025  1.2154  1.7533  2.2192
11270TIP3    H255226   2.984   5.289  13.111 -0.7374 -1.4057 -1.4437
11271TIP3   OH255227   4.919   2.715   4.629 -0.5610  0.0233  0.5478
11271TIP3    H155228   4.961   2.676   4.705 -0.5247 -2.3665 -0.6105
11271TIP3    H255229   4.828   2.686   4.634 -0.8924  1.0142  0.4168
11272TIP3   OH255230   6.477   5.412  14.449 -0.1937 -0.1824 -0.0068
11272TIP3    H155231   6.387   5.401  14.418  0.2895 -1.9101 -0.8885
11272TIP3    H255232   6.487   5.348  14.519  0.3604 -0.0177  0.0713
11273TIP3   OH255233   4.671   3.703  15.402  0.5339  0.1790 -0.1730
11273TIP3    H155234   4.614   3.627  15.413 -0.3922  0.9313  0.3391
11273TIP3    H255235   4.738   3.674  15.340  0.3010 -1.1044  0.1485
11274TIP3   OH255236   2.385   5.948  10.980  0.0220  0.4159  0.5532
11274TIP3    H155237   2.420   5.878  10.925  0.6099 -1.4293  3.1270
11274TIP3    H255238   2.463   5.991  11.017 -0.3662  0.6396  1.1238
11275TIP3   OH255239   2.123   5.261   4.629  0.8062 -0.1663 -0.0321
11275TIP3    H155240   2.140   5.341   4.678 -0.3089  1.6432 -2.3958
11275TIP3    H255241   2.173   5.271   4.548  0.7864 -1.9710 -0.3100
11276TIP3   OH255242   2.008   2.835  12.559 -0.9698 -0.3855 -0.4818
11276TIP3    H155243   2.019   2.929  12.549 -1.4984 -0.0868  1.3556
11276TIP3    H255244   2.053   2.797  12.484 -0.5113  1.3096 -1.1050
11277TIP3   OH255245   1.303   4.724   3.751 -0.6668 -0.5694 -0.1609
11277TIP3    H155246   1.214   4.755   3.771 -1.2557 -1.5056 -1.1551
11277TIP3    H255247   1.289   4.638   3.711  0.6703 -0.5644 -0.6878
11278TIP3   OH255248   1.295   2.482   3.938 -0.5398  0.3877  0.3631
11278TIP3    H155249   1.212   2.459   3.898  0.6725 -1.8645 -1.0599
11278TIP3    H255250   1.299   2.429   4.018 -0.8957  1.3140  1.0178
11279TIP3   OH255251   5.276   6.558   4.841 -0.0677 -0.2181  0.2874
11279TIP3    H155252   5.246   6.522   4.757 -1.3996  0.5651  0.3968
11279TIP3    H255253   5.293   6.650   4.822 -1.5434  0.2639  1.1160
11280TIP3   OH255254   5.126   6.684   5.835 -0.0059  0.4235  0.5205
11280TIP3    H155255   5.181   6.620   5.791 -0.8991 -0.2677  0.3837
11280TIP3    H255256   5.185   6.757   5.855  0.9145 -0.2393  0.2663
11281TIP3   OH255257   6.293   0.592  16.693 -0.3593 -0.1577 -0.2762
11281TIP3    H155258   6.203   0.559  16.698 -0.2922 -0.3740 -0.5279
11281TIP3    H255259   6.347   0.514  16.699 -0.1688  0.0359  0.6547
11282TIP3   OH255260   0.054   3.375  11.927  0.1999  0.2086 -0.0958
11282TIP3    H155261  -0.020   3.385  11.987 -0.2903  2.3655 -0.9574
11282TIP3    H255262   0.014   3.350  11.843  0.7241 -1.2106  0.0572
11283TIP3   OH255263   4.431   5.540   0.161  0.0323 -0.1390  0.6297
11283TIP3    H155264   4.388   5.550   0.076 -0.1421  2.0726  0.9228
11283TIP3    H255265   4.520   5.510   0.139  0.3385  1.4392 -0.4431
11284TIP3   OH255266   5.296   0.442   5.019  0.2334  0.2007  0.0060
11284TIP3    H155267   5.380   0.412   5.054  0.9581  1.2402 -0.7888
11284TIP3    H255268   5.265   0.369   4.966 -0.4886 -1.0861  2.0644
11285TIP3   OH255269   4.865   3.040  17.132  0.0468 -0.3880  0.2488
11285TIP3    H155270   4.827   3.014  17.049  1.1818 -0.4910 -0.2653
11285TIP3    H255271   4.869   2.959  17.183 -1.3634 -0.1836  0.7197
11286TIP3   OH255272   2.287   3.550   5.217 -0.0195  0.3954 -0.1260
11286TIP3    H155273   2.330   3.607   5.154 -0.0898 -0.4321 -0.9379
11286TIP3    H255274   2.341   3.471   5.219 -0.2288  0.2603  0.5669
11287TIP3   OH255275   1.468   1.119   3.343 -0.2651 -0.5460 -0.2094
11287TIP3    H155276   1.470   1.211   3.317  1.5403 -0.4003  0.2759
11287TIP3    H255277   1.517   1.074   3.275  1.4323 -0.6684  1.0212
11288TIP3   OH255278   4.037   5.286   0.203  0.2606  0.1012  0.1924
11288TIP3    H155279   3.961   5.243   0.242  0.9421 -2.0633 -0.7133
11288TIP3    H255280   4.068   5.346   0.271 -2.6901  1.7170  0.2851
11289TIP3   OH255281   6.055   0.897  11.682  0.6775 -0.1114  0.2618
11289TIP3    H155282   6.096   0.980  11.658  1.0153 -0.6712 -1.1618
11289TIP3    H255283   5.964   0.920  11.700  0.6492  0.5034 -0.6055
11290TIP3   OH255284   1.606   5.893   6.069  0.4937 -0.2555 -0.0281
11290TIP3    H155285   1.631   5.940   5.989 -0.2375  0.2049  0.0050
11290TIP3    H255286   1.624   5.956   6.139  0.8624 -0.5551  0.1493
11291TIP3   OH255287   6.507   3.382  16.072  0.0680 -0.1789  0.8220
11291TIP3    H155288   6.472   3.459  16.028  1.7248 -0.4792 -1.1714
11291TIP3    H255289   6.555   3.417  16.147  0.8918  0.7837 -0.1181
11292TIP3   OH255290   4.552   3.404  11.936  0.1791  0.0381 -0.2977
11292TIP3    H155291   4.632   3.392  11.987  0.1866  0.6009 -0.1594
11292TIP3    H255292   4.553   3.497  11.913 -0.8690  0.2589  0.4641
11293TIP3   OH255293   2.734   5.576   2.404 -0.8228 -0.4588  0.1140
11293TIP3    H155294   2.641   5.598   2.395 -0.5855  0.1486 -1.0168
11293TIP3    H255295   2.733   5.488   2.443 -1.8508 -0.1658  0.8022
11294TIP3   OH255296   5.823   2.878   5.159 -0.0466 -0.3542  0.6805
11294TIP3    H155297   5.731   2.850   5.168 -0.3867  0.5965  0.2888
11294TIP3    H255298   5.822   2.971   5.185  0.0437  0.8234 -2.9874
11295TIP3   OH255299   3.377   1.275  16.965  0.7588 -0.3890  0.2574
11295TIP3    H155300   3.459   1.271  16.915  1.2099 -0.5064  0.9968
11295TIP3    H255301   3.400   1.324  17.044  0.4233 -1.4456  1.0373
11296TIP3   OH255302   0.094   4.570  15.494 -0.2027 -0.5069 -0.0192
11296TIP3    H155303   0.144   4.579  15.413  1.7782 -0.2915  1.1832
11296TIP3    H255304   0.106   4.479  15.520 -1.5837 -0.8203 -0.4083
11297TIP3   OH255305   3.533   1.491  17.050  0.2599 -0.5503 -0.3602
11297TIP3    H155306   3.492   1.571  17.084 -1.4204 -0.8514 -1.5608
11297TIP3    H255307   3.586   1.521  16.977  2.5188 -0.1249  1.3508
11298TIP3   OH255308   4.525   0.023   2.315  0.1879 -0.2710 -0.3079
11298TIP3    H155309   4.596   0.087   2.308  0.1077 -0.2419 -0.8832
11298TIP3    H255310   4.490   0.036   2.403  1.8158 -1.2525  0.5553
11299TIP3   OH255311   6.096   6.038   2.825  0.3322 -0.2371 -0.3613
11299TIP3    H155312   6.045   6.038   2.744  0.1918  3.0286 -0.3848
11299TIP3    H255313   6.030   6.042   2.894  0.4780 -2.3864  0.0014
11300TIP3   OH255314   1.931   6.051   6.510  0.2148  0.5515  0.4853
11300TIP3    H155315   1.942   6.145   6.492  1.8241  0.3717  0.3413
11300TIP3    H255316   1.849   6.028   6.467 -0.5711  2.0349  1.1237
11301TIP3   OH255317   2.673   1.182  14.178 -0.2321 -0.2207 -0.0225
11301TIP3    H155318   2.697   1.101  14.222  0.2877  0.5043  1.0817
11301TIP3    H255319   2.756   1.217  14.144 -0.4831 -0.2615 -0.6879
11302TIP3   OH255320   2.117   5.840   0.775 -0.0351  0.6994 -0.2050
11302TIP3    H155321   2.137   5.915   0.830 -0.7615 -0.2501  1.4382
11302TIP3    H255322   2.034   5.806   0.810  0.4798 -1.0926 -0.6296
11303TIP3   OH255323   2.111   6.009   4.189 -0.2679 -0.5459  0.3098
11303TIP3    H155324   2.193   6.047   4.221 -0.6667  0.0398  0.6602
11303TIP3    H255325   2.055   6.003   4.266 -1.1158  0.5507 -0.1874
11304TIP3   OH255326   0.273   0.945  11.287 -0.0729 -0.6536  0.7023
11304TIP3    H155327   0.349   0.888  11.276  0.1429  0.0601 -2.4993
11304TIP3    H255328   0.205   0.904  11.232 -0.3509  1.3780 -0.5502
11305TIP3   OH255329   2.844   4.436   1.424 -0.1997  0.3195 -0.0313
11305TIP3    H155330   2.773   4.496   1.402 -0.3842 -0.0779 -0.5242
11305TIP3    H255331   2.889   4.478   1.498 -0.0667  1.2751 -0.6396
11306TIP3   OH255332   1.422   3.980  16.660  0.5282  0.6284  0.3168
11306TIP3    H155333   1.403   3.918  16.730 -1.0769  2.2367  1.3707
11306TIP3    H255334   1.413   4.066  16.700  0.1760  1.6002 -1.7214
11307TIP3   OH255335   6.180   2.281  12.647  0.2805 -0.0873  0.1637
11307TIP3    H155336   6.257   2.255  12.697  0.3193 -0.2733  0.0093
11307TIP3    H255337   6.216   2.325  12.570  0.3541 -2.2312 -1.1333
11308TIP3   OH255338   4.777   0.558  12.418  0.3241  0.6325 -0.0168
11308TIP3    H155339   4.790   0.464  12.401 -1.1109  0.3454  0.2631
11308TIP3    H255340   4.705   0.583  12.360  0.4781  1.4956  0.1504
11309TIP3   OH255341   0.726   0.756  16.457 -0.1259  0.2086 -0.0240
11309TIP3    H155342   0.674   0.791  16.529  1.8745  0.9461  1.1364
11309TIP3    H255343   0.736   0.663  16.479 -1.4734 -0.1140 -0.6347
11310TIP3   OH255344   6.692   1.788   0.381  0.2139  0.1937 -0.2610
11310TIP3    H155345   6.645   1.864   0.417 -0.0219 -0.2118  0.3021
11310TIP3    H255346   6.648   1.770   0.298 -0.0536  0.3617 -0.1581
11311TIP3   OH255347   4.645   2.883   2.246  0.3051 -0.4273  0.6824
11311TIP3    H155348   4.566   2.840   2.278 -0.2687  0.4095  0.4256
11311TIP3    H255349   4.648   2.862   2.153  0.4100 -0.4867  0.6987
11312TIP3   OH255350   3.631   5.427  12.791 -0.9946 -0.6797  0.1912
11312TIP3    H155351   3.662   5.490  12.856 -0.6461 -0.9896  0.3299
11312TIP3    H255352   3.619   5.479  12.711 -1.3271 -0.3184  0.4745
11313TIP3   OH255353   1.121   6.248   5.493  0.2669  0.2612 -0.4125
11313TIP3    H155354   1.173   6.326   5.513 -0.6010  1.1953 -1.6943
11313TIP3    H255355   1.038   6.261   5.539  0.5088 -0.4229  0.2365
11314TIP3   OH255356   3.533   1.384   4.966 -0.6704 -0.4743  0.7919
11314TIP3    H155357   3.550   1.391   5.060  0.2928 -0.5789  0.6351
11314TIP3    H255358   3.577   1.459   4.927 -1.2348 -0.3195  0.4413
11315TIP3   OH255359   2.922   6.583   1.142  0.1443 -0.1388  0.1576
11315TIP3    H155360   3.004   6.567   1.097  0.7895 -0.6557  1.4430
11315TIP3    H255361   2.906   6.677   1.133  1.1595  0.0563  0.3445
11316TIP3   OH255362   0.770   2.839  13.632 -0.0805  0.4615 -0.2766
11316TIP3    H155363   0.676   2.853  13.644  0.1549  1.0541  1.0849
11316TIP3    H255364   0.778   2.802  13.544 -1.7356 -1.1042  0.1574
11317TIP3   OH255365   5.865   1.484  11.916  0.5198  0.1906  0.4108
11317TIP3    H155366   5.921   1.428  11.971  2.1655  1.4061  0.0481
11317TIP3    H255367   5.913   1.566  11.909  0.4529  0.0702 -2.9543
11318TIP3   OH255368   3.075   3.787   5.081 -0.5240 -0.1995  0.3844
11318TIP3    H155369   3.140   3.719   5.064  0.9893  1.0912  0.6551
11318TIP3    H255370   3.016   3.784   5.007  1.8215  0.7270 -1.6704
11319TIP3   OH255371   0.001   2.469  14.845 -0.2367 -0.1316  0.4735
11319TIP3    H155372   0.045   2.552  14.826  1.7230 -1.2654 -0.2505
11319TIP3    H255373  -0.087   2.480  14.809  0.2362  1.3447 -0.3246
11320TIP3   OH255374   3.645   3.894   0.241  0.1404  0.4600  0.0443
11320TIP3    H155375   3.575   3.940   0.288  0.2192  0.2518  0.3671
11320TIP3    H255376   3.599   3.845   0.173  0.1883  2.4709 -1.5663
11321TIP3   OH255377   5.722   1.094  15.554 -0.3011 -0.6026 -0.0499
11321TIP3    H155378   5.668   1.154  15.502 -0.2167 -0.7677 -0.3323
11321TIP3    H255379   5.799   1.078  15.499  1.1268  1.3471  1.2308
11322TIP3   OH255380   1.221   4.434   2.501  0.3384  0.0145 -0.6060
11322TIP3    H155381   1.316   4.433   2.512  0.2330 -2.2304  0.8065
11322TIP3    H255382   1.203   4.358   2.445 -0.6787 -0.2825  0.0985
11323TIP3   OH255383   4.957   4.569   5.195 -0.0659  0.0123  0.1241
11323TIP3    H155384   4.925   4.572   5.285  0.0040  2.2076  0.1058
11323TIP3    H255385   4.877   4.561   5.142 -0.3856  1.8427  0.2667
11324TIP3   OH255386   2.214   6.539   5.366 -0.1559  0.4242  0.6546
11324TIP3    H155387   2.197   6.577   5.280 -1.7740 -0.5186  0.5127
11324TIP3    H255388   2.186   6.448   5.358  0.7214  0.0243  1.8694
11325TIP3   OH255389   5.816   2.312  13.098  0.2550  0.6316 -0.6213
11325TIP3    H155390   5.888   2.354  13.050  0.1249 -0.6204 -1.9774
11325TIP3    H255391   5.746   2.305  13.034 -0.7346  0.8934  0.4006
11326TIP3   OH255392   2.488   3.924  11.838  0.1522 -0.5677 -0.1612
11326TIP3    H155393   2.501   3.986  11.909 -0.0991  1.2592 -1.6067
11326TIP3    H255394   2.575   3.908  11.803  0.0108  1.4336 -1.6593
11327TIP3   OH255395   5.563   3.000  14.817 -0.4126  0.5431 -0.0180
11327TIP3    H155396   5.649   2.978  14.853 -0.7469 -1.1216 -0.1748
11327TIP3    H255397   5.511   3.029  14.892 -0.0321  0.5492  0.2439
11328TIP3   OH255398   4.932   2.913  15.174  0.0347  0.4732 -0.3944
11328TIP3    H155399   4.911   2.880  15.086  0.7291 -0.7345 -0.1265
11328TIP3    H255400   4.851   2.904  15.223 -1.0837  3.3551 -1.4841
11329TIP3   OH255401   1.667   1.533   3.297 -0.5070  0.4354 -0.0677
11329TIP3    H155402   1.660   1.557   3.205 -3.1524 -0.1498 -0.1293
11329TIP3    H255403   1.760   1.517   3.312  0.3740  3.2560 -1.8675
11330TIP3   OH255404   0.128   2.839   0.750  0.5222 -0.2893  0.1414
11330TIP3    H155405   0.097   2.927   0.726  1.1678  0.1313  0.8202
11330TIP3    H255406   0.090   2.823   0.836  1.8560  0.0865  0.8270
11331TIP3   OH255407   0.990   1.969  13.775  0.1251  0.1851 -0.2676
11331TIP3    H155408   0.998   2.045  13.832  1.6486  0.5196 -0.8802
11331TIP3    H255409   1.077   1.929  13.776 -0.0996 -0.3788 -1.5394
11332TIP3   OH255410   1.936   4.910  15.961 -0.0058  0.4626 -0.3737
11332TIP3    H155411   1.856   4.933  16.008  1.0407  0.6478  1.3944
11332TIP3    H255412   1.990   4.988  15.966  0.3332  0.3079 -1.4856
11333TIP3   OH255413   1.395   4.311  11.398  0.1871 -0.1656  0.1137
11333TIP3    H155414   1.421   4.378  11.461 -0.1119  0.6239 -0.5802
11333TIP3    H255415   1.472   4.300  11.342  0.0211  0.0903 -0.1737
11334TIP3   OH255416   5.874   6.150  13.169 -0.0273 -0.3838  0.5895
11334TIP3    H155417   5.783   6.144  13.197 -0.4371 -0.7350 -0.7100
11334TIP3    H255418   5.918   6.077  13.213 -0.5988 -0.8113  0.4623
11335TIP3   OH255419   1.979   6.138   3.978  0.6449  0.3217  0.1501
11335TIP3    H155420   2.039   6.205   3.946  0.5706  1.4402  2.1618
11335TIP3    H255421   2.013   6.116   4.065 -1.0014 -0.1213  0.7134
11336TIP3   OH255422   3.994   1.183  14.337  0.0812 -0.9676 -0.2848
11336TIP3    H155423   3.912   1.217  14.373 -0.4525 -1.9714 -0.5259
11336TIP3    H255424   3.976   1.167  14.245  1.1313  0.5861 -0.8068
11337TIP3   OH255425   5.732   4.783   1.480  0.4246 -0.9376  0.5145
11337TIP3    H155426   5.657   4.819   1.526  0.1962 -0.7432 -0.0066
11337TIP3    H255427   5.776   4.859   1.441  0.8659 -1.0538  0.7756
11338TIP3   OH255428   2.183   6.554  12.485 -0.3739 -0.4265  1.0116
11338TIP3    H155429   2.093   6.584  12.497 -0.4547 -0.0113 -0.3628
11338TIP3    H255430   2.237   6.632  12.500 -0.4132 -0.1453 -0.1630
11339TIP3   OH255431   4.723   0.351   1.202 -0.1873 -0.0435  0.0253
11339TIP3    H155432   4.711   0.445   1.194 -0.2251  0.0065  0.6137
11339TIP3    H255433   4.688   0.330   1.289  0.2131 -0.5357  0.0699
11340TIP3   OH255434   2.599   4.476  15.352  0.1454  0.5962 -0.4317
11340TIP3    H155435   2.568   4.425  15.278  0.1858 -0.2913  0.1422
11340TIP3    H255436   2.537   4.456  15.422  1.1982 -0.1179  0.3272
11341TIP3   OH255437   4.839   2.057   5.050  0.2367 -0.1824 -0.4933
11341TIP3    H155438   4.934   2.066   5.054  0.3189 -1.2220  0.1322
11341TIP3    H255439   4.817   1.998   5.122 -0.6963 -1.2783 -1.6236
11342TIP3   OH255440   4.232   4.728  10.647  0.6578 -0.8747 -0.8976
11342TIP3    H155441   4.180   4.678  10.710  0.4323 -0.9969 -1.1753
11342TIP3    H255442   4.270   4.799  10.698 -0.9040  0.0435 -0.9507
11343TIP3   OH255443   0.872   0.338  13.641 -0.2965 -0.3915 -0.1536
11343TIP3    H155444   0.887   0.338  13.736  0.8851  1.6820 -0.2766
11343TIP3    H255445   0.930   0.270  13.608  0.6381  0.0848  0.4600
11344TIP3   OH255446   1.467   2.018  16.908 -0.4538  0.1875 -0.2451
11344TIP3    H155447   1.459   1.924  16.896 -0.7962 -0.0397  1.4855
11344TIP3    H255448   1.553   2.040  16.871 -1.4082 -0.3420 -2.9289
11345TIP3   OH255449   3.560   5.051  11.968 -0.0235 -0.0711  1.0969
11345TIP3    H155450   3.641   5.016  12.006 -0.0647  0.4131  1.6557
11345TIP3    H255451   3.512   4.974  11.937  0.4688 -0.3935  1.1172
11346TIP3   OH255452   3.434   0.017   1.544 -0.6642 -0.3314  0.1249
11346TIP3    H155453   3.377  -0.028   1.607 -2.6132  0.8129 -0.7453
11346TIP3    H255454   3.469   0.091   1.593  0.4663 -1.2545  0.7793
11347TIP3   OH255455   6.656   3.462   3.615 -0.0432  0.2707 -0.0635
11347TIP3    H155456   6.570   3.483   3.650 -0.0967  1.4718 -0.8413
11347TIP3    H255457   6.709   3.440   3.691 -0.6151  1.0980  0.5905
11348TIP3   OH255458   4.976   1.885  10.524 -0.8716  0.1190  0.0997
11348TIP3    H155459   4.903   1.902  10.464 -1.0103  0.8010  0.4512
11348TIP3    H255460   4.999   1.794  10.507 -0.8688  0.3084 -1.0274
11349TIP3   OH255461   2.796   3.971   1.951 -0.0246  0.1414  0.4898
11349TIP3    H155462   2.710   3.951   1.988 -0.1348  0.8937  0.6608
11349TIP3    H255463   2.858   3.944   2.019  0.0875 -2.9626 -0.6699
11350TIP3   OH255464   6.208   4.519   3.349  0.4004  0.7937  0.5779
11350TIP3    H155465   6.244   4.488   3.266 -1.1214 -0.4379  0.3183
11350TIP3    H255466   6.116   4.493   3.346  0.5264 -0.2396  3.0865
11351TIP3   OH255467   0.743   2.670  11.260 -0.1966  0.6820 -0.4852
11351TIP3    H155468   0.778   2.629  11.340  1.3670 -0.4580 -1.6674
11351TIP3    H255469   0.661   2.624  11.244  0.3180 -0.2850 -0.4339
11352TIP3   OH255470   1.492   2.819   0.276 -0.2501 -0.1393 -0.0889
11352TIP3    H155471   1.507   2.913   0.267  0.2758 -0.2823 -0.7748
11352TIP3    H255472   1.399   2.812   0.300 -0.9221  0.4570 -2.2661
11353TIP3   OH255473   2.170   3.813   0.198  0.3799  0.3364 -0.0341
11353TIP3    H155474   2.130   3.899   0.213 -1.5801 -0.1883 -1.8099
11353TIP3    H255475   2.104   3.750   0.225  0.8088 -0.5851 -1.0234
11354TIP3   OH255476   3.816   6.485   4.439 -0.6647  0.4963 -0.1550
11354TIP3    H155477   3.861   6.536   4.506 -2.5996  2.5252 -0.2935
11354TIP3    H255478   3.864   6.503   4.359 -0.9950  1.6968 -0.0947
11355TIP3   OH255479   5.067   1.530  16.765  0.4576  0.1464 -0.1919
11355TIP3    H155480   5.085   1.571  16.850  0.5783 -0.2056 -0.0488
11355TIP3    H255481   5.077   1.436  16.780 -2.6627 -0.2388  0.2472
11356TIP3   OH255482   1.824   5.753  16.659  0.0656 -0.2132  0.0902
11356TIP3    H155483   1.911   5.731  16.626 -0.1978 -1.0168 -0.0967
11356TIP3    H255484   1.832   5.844  16.689  0.3021  0.6015 -2.2075
11357TIP3   OH255485   5.521   2.938   0.724 -0.0034 -0.0474 -0.2360
11357TIP3    H155486   5.486   2.887   0.651 -0.3165  0.7800 -0.6740
11357TIP3    H255487   5.613   2.913   0.729 -0.0121 -0.2052 -0.8316
11358TIP3   OH255488   5.024   3.637  10.792 -0.1348  0.1060 -0.0438
11358TIP3    H155489   5.108   3.677  10.771  0.1661 -0.1871  0.6184
11358TIP3    H255490   4.960   3.708  10.779  0.4173  0.8800  1.3225
11359TIP3   OH255491   0.352   1.957  13.835 -0.4384  0.1024 -0.0855
11359TIP3    H155492   0.317   1.890  13.776  0.8146  1.5143 -2.5680
11359TIP3    H255493   0.275   2.001  13.870 -1.2323  0.1638 -1.8293
11360TIP3   OH255494   0.271   6.419   6.831  0.1992  0.8979 -0.1982
11360TIP3    H155495   0.364   6.432   6.817  0.0586  1.1531 -0.9668
11360TIP3    H255496   0.254   6.330   6.800  0.4263  0.3230  1.2509
11361TIP3   OH255497   3.240   3.459   6.711  0.8223 -0.1811  0.6476
11361TIP3    H155498   3.335   3.462   6.702  0.9486 -0.8762  1.6263
11361TIP3    H255499   3.220   3.368   6.730 -0.1949 -0.3386 -0.9680
11362TIP3   OH255500   6.127   5.747  14.993 -0.2408  0.3967 -0.5762
11362TIP3    H155501   6.199   5.715  14.939  0.3974 -0.4903  0.7472
11362TIP3    H255502   6.095   5.669  15.039 -0.9321  1.0715  0.1238
11363TIP3   OH255503   2.290   6.328   0.538 -1.0779 -0.1781  0.5329
11363TIP3    H155504   2.357   6.276   0.493  0.2359  1.3220  0.6633
11363TIP3    H255505   2.248   6.267   0.598 -1.3356 -1.6802 -1.1030
11364TIP3   OH255506   1.201   2.958   2.174 -0.1250 -0.7821 -0.1236
11364TIP3    H155507   1.238   3.022   2.113  0.0277 -0.7651 -0.0136
11364TIP3    H255508   1.254   2.880   2.162  2.2845  0.2983  2.5341
11365TIP3   OH255509   0.490   5.654  15.684 -0.0189  0.2241  0.3820
11365TIP3    H155510   0.420   5.626  15.626  1.3041  2.0074 -2.2460
11365TIP3    H255511   0.469   5.744  15.707  0.1506 -0.0378  1.6704
11366TIP3   OH255512   4.965   2.024  12.166 -0.0644  0.5300 -0.2921
11366TIP3    H155513   4.981   2.042  12.073 -0.1258 -3.0490 -1.1724
11366TIP3    H255514   5.042   2.058  12.211  1.2948 -0.0676 -2.0538
11367TIP3   OH255515   5.154   3.275   5.864  0.3310 -0.5197 -0.5856
11367TIP3    H155516   5.074   3.321   5.888  0.3367 -1.3718  1.2147
11367TIP3    H255517   5.154   3.275   5.768 -1.9988 -0.8070 -0.6356
11368TIP3   OH255518   4.189   5.905  16.575 -0.1306  0.2549 -0.3526
11368TIP3    H155519   4.257   5.954  16.530 -1.0944  1.1617 -0.8789
11368TIP3    H255520   4.197   5.816  16.541  0.9870  0.2779 -0.1614
11369TIP3   OH255521   6.540   6.183   0.902  0.0446 -0.4490 -0.5949
11369TIP3    H155522   6.525   6.089   0.894  1.1345 -0.5801 -1.2216
11369TIP3    H255523   6.575   6.195   0.990 -0.4469 -0.5724 -0.3786
11370TIP3   OH255524   6.530   3.705   5.267 -0.6585  0.4930  0.3607
11370TIP3    H155525   6.587   3.671   5.198 -0.8011 -0.7287  0.8184
11370TIP3    H255526   6.586   3.713   5.344 -0.0863  3.4376 -0.2428
11371TIP3   OH255527   6.184   3.949  14.586 -0.1110 -0.2723 -0.2063
11371TIP3    H155528   6.188   3.920  14.677 -0.6680 -0.3753 -0.2110
11371TIP3    H255529   6.176   3.869  14.535  3.2295 -0.4672 -0.6011
11372TIP3   OH255530   0.745   6.544  11.419  0.3945  0.2297  0.2405
11372TIP3    H155531   0.676   6.595  11.461  1.3801  0.6743  1.3804
11372TIP3    H255532   0.742   6.459  11.463  0.5709  0.2515  0.2948
11373TIP3   OH255533   6.049   3.054   4.422  0.4340  0.7349 -0.6090
11373TIP3    H155534   5.975   3.018   4.472  0.8645 -1.2228 -1.2903
11373TIP3    H255535   6.091   2.977   4.384  2.6977  1.8187 -0.4374
11374TIP3   OH255536   5.405   1.635  10.904  0.4043  0.3637 -0.1657
11374TIP3    H155537   5.372   1.723  10.885  1.9814  0.5577 -2.2812
11374TIP3    H255538   5.382   1.583  10.828  1.3523 -0.5199  0.1232
11375TIP3   OH255539   4.995   4.376   0.202  0.6893 -0.3275 -0.5706
11375TIP3    H155540   5.006   4.406   0.293  0.7056  2.0284 -1.2654
11375TIP3    H255541   5.068   4.416   0.155 -1.8561  2.5787 -2.4233
11376TIP3   OH255542   3.661   3.395  12.987 -0.1070 -0.1450 -0.4734
11376TIP3    H155543   3.646   3.303  13.009 -0.5631  0.1205  0.3726
11376TIP3    H255544   3.751   3.411  13.013  0.1534 -0.4917 -1.1357
11377TIP3   OH255545   6.287   4.762   4.056  0.2891  0.6034  0.3977
11377TIP3    H155546   6.204   4.715   4.047  0.1217  0.8997  0.3738
11377TIP3    H255547   6.263   4.846   4.095  0.4125  1.2137 -0.8044
11378TIP3   OH255548   0.339   1.862   1.890  0.4773 -0.1233  0.0861
11378TIP3    H155549   0.330   1.767   1.891  0.7446 -0.2293 -1.9957
11378TIP3    H255550   0.432   1.877   1.908  1.1553 -0.5028 -2.6945
11379TIP3   OH255551   0.028   1.088  12.549 -0.3857  0.2739 -0.0622
11379TIP3    H155552  -0.051   1.061  12.597  0.9059 -0.1593  1.9533
11379TIP3    H255553   0.099   1.079  12.613  1.2599  1.0150 -1.6938
11380TIP3   OH255554   4.211   0.482   4.784  0.0545  0.4990 -0.7207
11380TIP3    H155555   4.138   0.534   4.816  1.1063  1.3191  0.4313
11380TIP3    H255556   4.205   0.400   4.833 -0.0210  0.6114 -0.5432
11381TIP3   OH255557   2.119   0.864   0.926  0.1424 -0.6246 -0.1849
11381TIP3    H155558   2.138   0.950   0.887  0.9065 -0.1270  1.2354
11381TIP3    H255559   2.023   0.858   0.922 -0.0181  0.8038  0.7047
11382TIP3   OH255560   5.193   5.748   5.745 -0.0263  0.1448  0.0400
11382TIP3    H155561   5.132   5.726   5.675  0.7348  0.4230 -0.7267
11382TIP3    H255562   5.138   5.786   5.814 -0.8043 -0.2826 -0.3284
11383TIP3   OH255563   2.674   2.768  15.995 -0.5794  0.4549 -0.2085
11383TIP3    H155564   2.728   2.689  15.998 -0.6686  0.4159  0.6485
11383TIP3    H255565   2.585   2.735  15.980 -0.1182  0.6560 -4.9217
11384TIP3   OH255566   2.260   3.096  15.018  0.1165 -0.3892 -0.4729
11384TIP3    H155567   2.194   3.073  15.083 -0.2178  2.5943  0.3984
11384TIP3    H255568   2.333   3.131  15.070  0.2403  1.1649 -1.6337
11385TIP3   OH255569   5.238   6.583   9.916  0.1010 -0.0926 -0.0450
11385TIP3    H155570   5.318   6.557   9.870  1.4219  0.5563  1.7493
11385TIP3    H255571   5.221   6.512   9.977  0.9297  0.9484  1.4775
11386TIP3   OH255572   5.514   2.407  11.418  0.2935  0.4128  0.5320
11386TIP3    H155573   5.419   2.416  11.428  0.0408  1.0016 -1.8228
11386TIP3    H255574   5.539   2.344  11.486 -2.0081 -0.8540  0.3190
11387TIP3   OH255575   6.658   2.670  12.072 -0.3003 -0.2959 -0.0044
11387TIP3    H155576   6.652   2.758  12.110 -1.0016 -0.5662  0.5280
11387TIP3    H255577   6.631   2.681  11.981  1.4506  0.3680 -0.4943
11388TIP3   OH255578   6.162   2.930  12.759  0.5361  0.6870 -0.3368
11388TIP3    H155579   6.159   2.849  12.810  2.0534 -1.0654 -2.7515
11388TIP3    H255580   6.107   2.911  12.682 -0.5404  2.6634 -0.1031
11389TIP3   OH255581   6.233   0.416  12.246  0.6089  0.3675 -0.5443
11389TIP3    H155582   6.201   0.354  12.311  0.5903  1.3121  0.3607
11389TIP3    H255583   6.317   0.447  12.281  0.1348  1.6073 -0.4808
11390TIP3   OH255584   0.631   3.303  14.134 -0.5713 -0.2796  0.5029
11390TIP3    H155585   0.700   3.316  14.069 -0.8917 -1.8626 -0.1995
11390TIP3    H255586   0.555   3.350  14.098 -0.2033  0.4881  0.7110
11391TIP3   OH255587   3.989   5.715  15.702 -0.3856 -0.1191  0.2679
11391TIP3    H155588   4.068   5.677  15.664 -0.3569 -0.3223  0.5297
11391TIP3    H255589   3.924   5.645  15.699 -0.3993 -0.1193  0.5372
11392TIP3   OH255590   4.923   4.782   0.378 -0.0958 -0.1252  0.5318
11392TIP3    H155591   5.018   4.785   0.390 -0.0035 -1.5197  0.3071
11392TIP3    H255592   4.890   4.855   0.431  1.0932  0.3963  0.5857
11393TIP3   OH255593   2.842   1.418  13.424 -0.1380  0.0814  0.0963
11393TIP3    H155594   2.756   1.417  13.466  0.5703 -0.4057  1.6210
11393TIP3    H255595   2.835   1.356  13.353 -0.9778 -0.1450  0.3668
11394TIP3   OH255596   3.151   3.973   5.278 -0.7307  0.3370 -0.0738
11394TIP3    H155597   3.200   4.028   5.218  0.4831 -0.4034  0.1943
11394TIP3    H255598   3.105   3.910   5.221 -0.6127  0.4430 -0.2872
11395TIP3   OH255599   4.232   5.381  14.356  0.3841 -0.2250  0.2728
11395TIP3    H155600   4.314   5.336  14.375  0.6465  0.0621 -0.1542
11395TIP3    H255601   4.259   5.463  14.313 -0.1083  0.0381  0.4548
11396TIP3   OH255602   3.011   1.785  15.515 -0.1119  0.4583 -0.3055
11396TIP3    H155603   3.070   1.736  15.573  0.5182  0.8857 -0.5666
11396TIP3    H255604   2.967   1.847  15.573  1.9633  2.2488 -0.5134
11397TIP3   OH255605   1.873   1.477   0.260  0.8592 -0.3872  0.3249
11397TIP3    H155606   1.935   1.478   0.188 -0.3754 -1.0744 -0.7842
11397TIP3    H255607   1.888   1.393   0.304 -0.7320 -1.5838 -1.2967
11398TIP3   OH255608   0.190   0.469  14.208  0.4192 -0.6337 -0.1098
11398TIP3    H155609   0.112   0.523  14.196 -0.5766 -1.7881  0.9101
11398TIP3    H255610   0.261   0.532  14.220 -0.6682  0.4740  0.8242
11399TIP3   OH255611   0.130   3.389   6.361 -0.5850  0.0510  0.1077
11399TIP3    H155612   0.065   3.322   6.382  0.9409 -1.2715  0.8226
11399TIP3    H255613   0.080   3.471   6.360 -1.9885 -0.6714  2.3720
11400TIP3   OH255614   0.191   3.389  17.026  0.3681 -0.0949  0.1132
11400TIP3    H155615   0.191   3.416  16.934 -0.5790 -0.1588  0.0787
11400TIP3    H255616   0.214   3.468  17.075 -1.2404  0.5318 -0.0577
11401TIP3   OH255617   3.208   5.864   2.158  0.0019 -0.1849  0.5166
11401TIP3    H155618   3.114   5.866   2.142  0.1253  0.2622 -0.1667
11401TIP3    H255619   3.245   5.824   2.080  0.4197 -0.0178  0.6297
11402TIP3   OH255620   4.783   1.778  13.804 -0.7623  0.1603 -0.5349
11402TIP3    H155621   4.806   1.794  13.712  1.1552  0.3760 -0.0541
11402TIP3    H255622   4.796   1.684  13.816 -0.4659  0.2277 -0.3354
11403TIP3   OH255623   2.617   1.329   5.434  0.5447  0.5500  0.1514
11403TIP3    H155624   2.640   1.295   5.521  0.0007 -2.2955 -0.6936
11403TIP3    H255625   2.694   1.379   5.407  1.6429 -0.3682  1.4076
11404TIP3   OH255626   0.017   4.219  15.950  0.0528 -0.1050 -0.0127
11404TIP3    H155627   0.049   4.278  15.881  0.5368  0.7250  0.8971
11404TIP3    H255628   0.078   4.231  16.022  0.1009 -1.6816  0.2405
11405TIP3   OH255629   0.293   4.717   2.705 -0.0270  0.0317 -0.0322
11405TIP3    H155630   0.347   4.661   2.649  0.1283  0.8120 -0.6775
11405TIP3    H255631   0.293   4.802   2.661 -0.2163  0.5587  0.9589
11406TIP3   OH255632   2.411   1.762  11.097 -0.1815 -0.2695 -0.8839
11406TIP3    H155633   2.356   1.801  11.029 -0.5957 -1.8811 -1.5058
11406TIP3    H255634   2.436   1.677  11.063  1.8260 -0.0469 -0.1295
11407TIP3   OH255635   1.743   0.239   0.922 -0.7858 -0.4486  0.1244
11407TIP3    H155636   1.750   0.326   0.962  1.2313 -0.3903 -0.2661
11407TIP3    H255637   1.832   0.204   0.925 -0.9859 -1.3236 -2.3071
11408TIP3   OH255638   1.764   3.480  12.373 -0.0732  0.3954 -0.2746
11408TIP3    H155639   1.675   3.464  12.341 -0.3421  1.7482 -0.2410
11408TIP3    H255640   1.785   3.402  12.425 -1.1017 -0.0953 -0.5725
11409TIP3   OH255641   4.604   6.668  15.801  0.0755 -0.3197  0.3307
11409TIP3    H155642   4.545   6.727  15.848 -0.3459 -1.2035  0.9468
11409TIP3    H255643   4.614   6.708  15.714 -0.1232  0.6929  0.7646
11410TIP3   OH255644   0.122   2.533   1.790 -0.2058  0.4439  0.5969
11410TIP3    H155645   0.077   2.513   1.708  1.5393  2.0165 -0.8351
11410TIP3    H255646   0.080   2.477   1.854  0.4114 -3.2395 -1.9019
11411TIP3   OH255647   4.638   4.708  11.960  0.8540 -0.2270 -0.7493
11411TIP3    H155648   4.694   4.780  11.931 -0.2682  0.7112 -0.6400
11411TIP3    H255649   4.678   4.678  12.042  1.2142  0.3993 -0.6924
11412TIP3   OH255650   2.721   5.426   4.185  0.3700 -0.1405 -0.1991
11412TIP3    H155651   2.754   5.496   4.129  1.5397 -0.9553 -0.5615
11412TIP3    H255652   2.701   5.469   4.268  1.1843  0.6100 -0.3835
11413TIP3   OH255653   4.986   6.710  12.613  0.1748 -0.1462 -0.2390
11413TIP3    H155654   4.908   6.711  12.558 -0.5865  0.4551  0.8031
11413TIP3    H255655   4.962   6.763  12.689  1.4050 -0.4295  0.3739
11414TIP3   OH255656   0.767   6.670   4.881  0.1031 -0.1085  0.6662
11414TIP3    H155657   0.684   6.637   4.914 -0.8727  1.6269  0.1017
11414TIP3    H255658   0.779   6.627   4.797 -0.9825  0.6784  0.0820
11415TIP3   OH255659   3.503   5.646   2.102 -0.3761  0.6208  0.1736
11415TIP3    H155660   3.416   5.629   2.140 -0.5130  2.2236  0.6832
11415TIP3    H255661   3.505   5.595   2.022 -2.5952  2.0366 -0.8779
11416TIP3   OH255662   2.582   3.054  16.128  0.1659  0.1055  0.6299
11416TIP3    H155663   2.673   3.076  16.109 -0.2973  1.2829 -0.3849
11416TIP3    H255664   2.583   3.021  16.218  1.5957  0.0053  0.6004
11417TIP3   OH255665   3.649   4.219   2.039 -0.1150 -0.4684  0.3501
11417TIP3    H155666   3.641   4.312   2.060 -1.1813  0.1986 -2.5743
11417TIP3    H255667   3.559   4.188   2.031  0.2323 -1.3846 -0.1220
11418TIP3   OH255668   1.437   4.447   3.476 -0.1428  1.0277 -0.1317
11418TIP3    H155669   1.429   4.384   3.404 -0.4680  0.5515  0.3150
11418TIP3    H255670   1.392   4.525   3.444  1.2636  1.4696 -1.1509
11419TIP3   OH255671   4.274   5.277   1.892  0.3848  0.4947  0.4806
11419TIP3    H155672   4.207   5.299   1.828  1.4196  0.5548 -0.6232
11419TIP3    H255673   4.232   5.216   1.951 -0.2452 -0.5830 -1.0275
11420TIP3   OH255674   2.575   0.013  11.356 -0.3495 -0.4215  0.1155
11420TIP3    H155675   2.503   0.033  11.415  1.3774  1.6389  1.6987
11420TIP3    H255676   2.600  -0.077  11.379 -1.8972 -0.8938  0.0531
11421TIP3   OH255677   1.203   0.931   2.026 -0.7319 -0.2373  0.0771
11421TIP3    H155678   1.214   0.839   2.052 -1.4950 -0.2383  0.3958
11421TIP3    H255679   1.115   0.954   2.054 -0.3759  0.7411  0.4230
11422TIP3   OH255680   4.906   5.338   3.648 -0.0018 -0.0041  0.0399
11422TIP3    H155681   4.880   5.328   3.740  0.1111  1.8798  0.3113
11422TIP3    H255682   4.949   5.255   3.627 -0.7354 -0.7823  1.4353
11423TIP3   OH255683   2.209   2.487   5.405  0.1580 -0.2775 -0.2637
11423TIP3    H155684   2.260   2.568   5.412  0.9722 -0.6747 -1.4558
11423TIP3    H255685   2.167   2.492   5.319 -1.1344 -0.3717  0.3368
11424TIP3   OH255686   5.569   5.647  11.049  0.2274 -0.0763 -0.2488
11424TIP3    H155687   5.517   5.575  11.087  0.3152  1.0279  2.1477
11424TIP3    H255688   5.503   5.710  11.019  0.1200  0.5986  1.3190
11425TIP3   OH255689   1.374   0.005   4.206  0.1024 -0.8465 -0.3184
11425TIP3    H155690   1.465  -0.008   4.182  0.3405  0.6855 -0.3857
11425TIP3    H255691   1.375   0.017   4.301  0.3542  1.5115 -0.5422
11426TIP3   OH255692   1.282   6.682  12.900  0.3129  0.2429  0.7836
11426TIP3    H155693   1.376   6.703  12.895  0.5084 -0.8480 -0.3883
11426TIP3    H255694   1.273   6.600  12.853 -1.2026  0.1602  1.1739
11427TIP3   OH255695   4.536   5.166   3.818  0.4162 -0.2730 -0.8093
11427TIP3    H155696   4.498   5.184   3.904  0.6066 -0.1461 -0.7511
11427TIP3    H255697   4.616   5.220   3.816 -0.1201  0.5181 -1.4614
11428TIP3   OH255698   1.674   2.285  16.979 -0.0803  0.2150  0.4002
11428TIP3    H155699   1.669   2.218  17.047 -1.0345 -0.8806 -0.7071
11428TIP3    H255700   1.753   2.262  16.929  0.5182  0.9129  0.9941
11429TIP3   OH255701   0.321   5.268   2.237 -0.1117 -0.2943  0.0670
11429TIP3    H155702   0.233   5.232   2.247 -0.0041 -0.2975  1.1971
11429TIP3    H255703   0.309   5.363   2.242 -0.0484 -0.2963  0.2654
11430TIP3   OH255704   6.497   3.725   0.638  0.3035 -0.2147  0.1462
11430TIP3    H155705   6.541   3.688   0.715  0.6655  0.2352  0.1575
11430TIP3    H255706   6.445   3.797   0.673  0.9248  0.3649 -0.1040
11431TIP3   OH255707   5.808   0.052  15.291 -0.0020 -0.4427 -0.1137
11431TIP3    H155708   5.770  -0.023  15.336 -1.7683 -0.2052 -1.1162
11431TIP3    H255709   5.830   0.114  15.361  2.1933 -2.1306  0.7910
11432TIP3   OH255710   4.976   1.766  12.317 -0.1248  0.6217  0.3264
11432TIP3    H155711   4.951   1.833  12.253 -0.3856 -0.1220 -0.3724
11432TIP3    H255712   4.944   1.684  12.279 -1.3594  0.2860  1.9691
11433TIP3   OH255713   3.276   1.268   1.316 -0.4490  0.2713  0.2537
11433TIP3    H155714   3.269   1.350   1.364 -0.0490 -0.3116  1.3522
11433TIP3    H255715   3.343   1.218   1.363 -1.5190 -1.1651  0.3176
11434TIP3   OH255716   5.041   0.526   6.074  0.1590 -0.2942 -0.5165
11434TIP3    H155717   5.090   0.445   6.060  1.1828  0.3251 -0.6125
11434TIP3    H255718   4.999   0.514   6.160  0.8657 -0.6586 -0.2132
11435TIP3   OH255719   0.526   5.222  12.953 -0.2557 -0.2384  0.2715
11435TIP3    H155720   0.525   5.174  12.870  0.0097 -0.3136  0.3101
11435TIP3    H255721   0.617   5.218  12.982 -0.4395 -0.6569  0.8230
11436TIP3   OH255722   6.427   1.200  12.385 -0.4544 -0.2506  0.9690
11436TIP3    H155723   6.518   1.208  12.355 -1.0012  0.5591 -0.5557
11436TIP3    H255724   6.398   1.290  12.397 -0.4190 -0.5251  3.6029
11437TIP3   OH255725   0.967   0.756   2.266 -0.0961 -0.2727  0.3529
11437TIP3    H155726   0.928   0.754   2.354 -1.0418 -0.7900 -0.0658
11437TIP3    H255727   0.963   0.848   2.241  0.0998 -0.1323  0.8134
11438TIP3   OH255728   5.010   3.189   2.526 -0.0965  0.2726  0.1156
11438TIP3    H155729   4.927   3.184   2.479  0.2700  3.1690 -1.0663
11438TIP3    H255730   5.077   3.184   2.457  0.4935  3.2039  0.3465
11439TIP3   OH255731   2.780   6.201   4.598  0.6845  0.0869  0.3570
11439TIP3    H155732   2.825   6.158   4.671 -0.2167  1.4106  1.7688
11439TIP3    H255733   2.692   6.163   4.600  0.9159 -0.5311 -0.6566
11440TIP3   OH255734   4.837   4.743  13.886  0.2846 -0.1107  0.0131
11440TIP3    H155735   4.925   4.780  13.891 -0.3982  1.7386 -0.6368
11440TIP3    H255736   4.839   4.685  13.810  0.5100  1.3040 -1.1061
11441TIP3   OH255737   2.000   5.856   4.466 -0.3576  0.4633 -0.1828
11441TIP3    H155738   1.959   5.826   4.385  0.1363  2.0201 -1.0647
11441TIP3    H255739   1.957   5.806   4.535 -2.0631  0.3439 -1.2601
11442TIP3   OH255740   0.150   3.144   1.480 -0.4437  0.2365 -0.5690
11442TIP3    H155741   0.158   3.232   1.517  0.2713 -0.3629  0.7695
11442TIP3    H255742   0.190   3.151   1.393 -0.7679  1.3272 -0.6370
11443TIP3   OH255743   1.315   2.094  12.063 -0.1413  0.3575  0.1088
11443TIP3    H155744   1.316   2.104  11.968 -0.0739 -0.5211  0.0097
11443TIP3    H255745   1.229   2.059  12.083 -1.1314  2.8518  0.6619
11444TIP3   OH255746   4.747   3.681   1.037  0.4139  0.3325  0.0488
11444TIP3    H155747   4.713   3.645   0.955 -1.7355  0.6504  0.7401
11444TIP3    H255748   4.764   3.605   1.092  0.1879  0.1959 -0.0724
11445TIP3   OH255749   4.708   2.568   6.247 -0.1777  0.6877  0.0404
11445TIP3    H155750   4.634   2.574   6.308 -1.4748  1.2969 -1.5020
11445TIP3    H255751   4.755   2.489   6.273 -0.7405  0.8810  1.7433
11446TIP3   OH255752   6.126   1.395   1.061 -0.0748  0.0549 -0.4826
11446TIP3    H155753   6.074   1.457   1.010 -1.1636  0.2685  0.8545
11446TIP3    H255754   6.139   1.438   1.145  2.1967 -0.0413 -0.7196
11447TIP3   OH255755   3.215   3.938   6.697 -0.2832  0.2788  0.0171
11447TIP3    H155756   3.204   3.860   6.752 -1.8153  0.3330 -0.1715
11447TIP3    H255757   3.273   3.910   6.627 -1.3096 -0.8955 -0.3982
11448TIP3   OH255758   0.500   1.506  15.450 -0.3792  0.5283  0.2410
11448TIP3    H155759   0.538   1.563  15.384  4.0028  0.7312  2.6078
11448TIP3    H255760   0.535   1.419  15.431 -0.8110  0.1564  1.0789
11449TIP3   OH255761   0.986   5.577   2.044 -0.1859 -0.1553  0.1361
11449TIP3    H155762   1.065   5.584   1.990  0.6898  1.8479  1.5642
11449TIP3    H255763   0.992   5.490   2.084  1.8405  0.2967  0.9404
11450TIP3   OH255764   5.870   4.178   2.785 -0.4537 -0.7869 -0.2061
11450TIP3    H155765   5.921   4.252   2.751 -0.7080 -0.1290  0.7776
11450TIP3    H255766   5.933   4.106   2.791  1.1996  0.7026  3.4862
11451TIP3   OH255767   6.436   0.477  13.686 -0.3993  0.5373  0.0854
11451TIP3    H155768   6.446   0.469  13.781 -1.4967 -0.7070  0.1197
11451TIP3    H255769   6.401   0.565  13.674  0.1967  0.8861  0.7825
11452TIP3   OH255770   3.709   3.933   2.176 -0.6043 -0.2932 -0.6317
11452TIP3    H155771   3.646   3.971   2.236 -0.7437 -0.3347 -0.7517
11452TIP3    H255772   3.786   3.989   2.183  0.4032 -1.8120  1.6230
11453TIP3   OH255773   5.611   2.731  14.477 -0.0012 -0.2945 -0.4609
11453TIP3    H155774   5.552   2.659  14.453 -0.6944  1.0850 -3.2620
11453TIP3    H255775   5.566   2.775  14.550 -2.1127  0.1991 -1.9582
11454TIP3   OH255776   1.729   6.785   4.378 -0.3079  0.1384 -0.1823
11454TIP3    H155777   1.681   6.738   4.446 -0.0199  1.5493  1.0260
11454TIP3    H255778   1.798   6.724   4.351 -0.0355 -0.2034  1.2408
11455TIP3   OH255779   4.057   0.154   5.715  0.9043  0.1238 -0.2696
11455TIP3    H155780   4.126   0.088   5.716  1.6956  0.9376  0.6080
11455TIP3    H255781   4.016   0.147   5.801 -0.1166 -0.3374 -0.7729
11456TIP3   OH255782   2.889   5.600   4.567 -0.2860 -0.1047  0.2100
11456TIP3    H155783   2.845   5.619   4.650 -1.0611  0.4275 -0.3055
11456TIP3    H255784   2.971   5.650   4.571  0.4459 -1.3277  1.3014
11457TIP3   OH255785   0.656   1.067   5.405 -0.2285  1.0577  0.1732
11457TIP3    H155786   0.741   1.094   5.439  0.8059  0.6358 -1.9617
11457TIP3    H255787   0.656   1.095   5.314 -0.5620 -2.7117 -1.1525
11458TIP3   OH255788   0.500   3.383  14.549  0.0855  0.2867 -0.2111
11458TIP3    H155789   0.554   3.310  14.580 -1.7013 -1.1040 -0.2444
11458TIP3    H255790   0.419   3.342  14.519 -1.9343  2.4550  1.8472
11459TIP3   OH255791   6.404   2.450  16.300 -0.2934  0.6038 -0.1294
11459TIP3    H155792   6.333   2.463  16.237 -0.8321 -1.1405  0.0620
11459TIP3    H255793   6.469   2.398  16.253  0.2683  1.0793  0.1063
11460TIP3   OH255794   3.796   5.393  16.284 -0.3752  0.3400 -0.7431
11460TIP3    H155795   3.884   5.374  16.316  0.8035  1.0356 -3.3128
11460TIP3    H255796   3.739   5.370  16.357  1.6541 -2.9517  0.0489
11461TIP3   OH255797   6.698   2.067  14.597  0.1519  0.2350  0.0714
11461TIP3    H155798   6.713   2.140  14.537  1.3691  0.9802  1.2255
11461TIP3    H255799   6.778   2.062  14.649 -0.6261 -0.7670  1.2336
11462TIP3   OH255800   4.587   5.109  15.665 -0.6479  0.0040  0.4808
11462TIP3    H155801   4.641   5.120  15.743 -1.1694  1.2060  0.6948
11462TIP3    H255802   4.526   5.183  15.667 -1.5185 -0.6523 -0.3834
11463TIP3   OH255803   3.802   5.140  12.280 -0.6813  0.0150 -0.1480
11463TIP3    H155804   3.854   5.098  12.348 -1.6622 -0.1082  0.5400
11463TIP3    H255805   3.866   5.189  12.228  0.1482 -0.3066  0.5470
11464TIP3   OH255806   0.129   2.688  14.804  0.1534  0.0340 -0.2493
11464TIP3    H155807   0.222   2.664  14.800 -0.0331 -0.6014 -0.8603
11464TIP3    H255808   0.118   2.753  14.734 -0.2717 -1.3581 -1.5298
11465TIP3   OH255809   2.180   4.895  11.468 -0.2906  0.0583  0.2180
11465TIP3    H155810   2.247   4.839  11.429 -2.2834 -1.3647 -1.3376
11465TIP3    H255811   2.178   4.870  11.560  0.5928 -0.6041  0.0685
11466TIP3   OH255812   1.193   0.126  17.189  0.2443  0.2188  0.2393
11466TIP3    H155813   1.259   0.163  17.131 -0.2316  3.3130  1.5020
11466TIP3    H255814   1.236   0.124  17.275 -1.3926  3.1109  1.2698
11467TIP3   OH255815   5.521   3.110  11.531 -0.0820 -0.1322 -0.1269
11467TIP3    H155816   5.533   3.042  11.464  1.5684  0.8071 -0.8494
11467TIP3    H255817   5.560   3.073  11.610  1.5615  0.2332 -0.7257
11468TIP3   OH255818   1.678   6.203   1.219  0.0047 -0.4894 -0.8970
11468TIP3    H155819   1.693   6.256   1.298  1.2314 -1.6159 -0.3474
11468TIP3    H255820   1.583   6.198   1.211 -0.1516 -0.9242  0.9088
11469TIP3   OH255821   2.671   6.757   1.852  0.6292 -0.0179 -0.2689
11469TIP3    H155822   2.631   6.801   1.778  1.4013  1.7942  0.3191
11469TIP3    H255823   2.735   6.821   1.886  1.7313 -1.5674  0.7136
11470TIP3   OH255824   3.769   1.839  13.589 -0.3753  0.1741  0.3486
11470TIP3    H155825   3.746   1.784  13.664  0.2793  0.2341  0.5954
11470TIP3    H255826   3.689   1.890  13.571 -0.7603 -0.3523  0.5499
11471TIP3   OH255827   0.559   2.887  12.785  0.3717 -0.0153  0.2956
11471TIP3    H155828   0.512   2.805  12.774  0.7340 -0.4316  1.7138
11471TIP3    H255829   0.494   2.948  12.819  0.7038 -0.4953  1.9090
11472TIP3   OH255830   1.681   1.738  16.696 -0.4687  1.2312 -0.1893
11472TIP3    H155831   1.614   1.674  16.720  1.1847 -0.9014 -0.9080
11472TIP3    H255832   1.680   1.740  16.600  0.9796  0.5313 -0.2511
11473TIP3   OH255833   6.253   0.660   5.830  0.4409  0.2438 -0.1391
11473TIP3    H155834   6.329   0.659   5.888 -0.1521  1.5103  0.7004
11473TIP3    H255835   6.232   0.753   5.819 -1.7682 -0.0990  0.7267
11474TIP3   OH255836   5.158   0.283   5.611  0.0491 -0.1277 -0.0874
11474TIP3    H155837   5.192   0.356   5.663 -0.5300 -0.4928  0.8290
11474TIP3    H255838   5.131   0.323   5.529  2.5948  0.1930 -0.8538
11475TIP3   OH255839   4.090   1.638   0.113 -0.0714 -0.2643  0.1136
11475TIP3    H155840   4.152   1.615   0.044 -1.9381 -1.1819 -1.3359
11475TIP3    H255841   4.061   1.554   0.148 -0.9208  0.1242  0.3671
11476TIP3   OH255842   3.976   2.095   5.465  0.5895  0.2864 -0.2876
11476TIP3    H155843   3.933   2.071   5.547  0.0287  0.2358 -0.5903
11476TIP3    H255844   4.069   2.100   5.487  0.2961  1.9762  0.7656
11477TIP3   OH255845   3.510   5.155  11.131 -0.6491 -0.3404  0.0310
11477TIP3    H155846   3.451   5.139  11.057  0.0045 -1.8607 -0.1923
11477TIP3    H255847   3.594   5.120  11.103  0.5819  2.2897  0.1278
11478TIP3   OH255848   3.066   5.597  13.244  0.2191  0.9616  0.1327
11478TIP3    H155849   3.006   5.607  13.170 -0.1684  0.5708  0.3879
11478TIP3    H255850   3.008   5.587  13.320  0.6085  0.2625  0.3418
11479TIP3   OH255851   5.094   3.485   0.772 -0.2540  0.8257  0.0585
11479TIP3    H155852   5.081   3.525   0.857  0.5870 -0.4814  0.8441
11479TIP3    H255853   5.115   3.393   0.792 -0.3052  0.4337 -1.5577
11480TIP3   OH255854   5.630   4.352   5.010 -0.2130  0.0755  0.0363
11480TIP3    H155855   5.582   4.271   5.023 -0.6864 -0.0790 -2.2980
11480TIP3    H255856   5.606   4.407   5.085 -0.1458 -1.7652  1.4821
11481TIP3   OH255857   4.420   1.415  13.696 -0.1230  0.0389 -0.0083
11481TIP3    H155858   4.329   1.439  13.677  0.0983 -0.4045 -1.8143
11481TIP3    H255859   4.418   1.383  13.787 -2.6752 -4.1451 -1.2634
11482TIP3   OH255860   1.415   3.632  12.809 -0.1662 -0.1135  0.1253
11482TIP3    H155861   1.474   3.697  12.770  0.5149 -0.6473  0.2276
11482TIP3    H255862   1.462   3.549  12.798 -1.5212 -0.7699 -1.0516
11483TIP3   OH255863   6.329   2.478  12.850  1.3554  0.3841  0.1541
11483TIP3    H155864   6.278   2.539  12.798  1.0641  1.0257  1.1657
11483TIP3    H255865   6.265   2.439  12.910  1.5806 -0.7371 -0.3110
11484TIP3   OH255866   2.265   1.398   2.144  0.2906  0.2742  0.4661
11484TIP3    H155867   2.177   1.362   2.145 -0.0452  1.0144 -0.7645
11484TIP3    H255868   2.264   1.467   2.210  0.1487 -0.1495  0.9118
11485TIP3   OH255869   1.471   1.401   1.071 -0.2694 -0.4682 -0.4940
11485TIP3    H155870   1.454   1.451   0.990 -1.5680 -0.4284 -0.2262
11485TIP3    H255871   1.510   1.464   1.130 -0.7768 -0.0682 -0.5717
11486TIP3   OH255872   3.660   2.353   4.782  0.2841  0.1450  0.2984
11486TIP3    H155873   3.695   2.435   4.747  1.0009 -0.1195  0.3768
11486TIP3    H255874   3.716   2.334   4.858  1.1469 -1.2416 -0.6531
11487TIP3   OH255875   1.129   1.318   4.498  0.6903  0.3918 -0.4717
11487TIP3    H155876   1.061   1.302   4.563  1.9101 -0.4406  0.6541
11487TIP3    H255877   1.102   1.265   4.423  1.2070 -1.8118  0.7958
11488TIP3   OH255878   4.586   6.122   4.331  0.4439  0.2398 -0.1789
11488TIP3    H155879   4.630   6.181   4.270  0.6028 -1.9875 -2.4063
11488TIP3    H255880   4.648   6.051   4.345 -1.0821 -1.2723 -0.6615
11489TIP3   OH255881   3.194   3.506   1.061 -0.1337  0.4787 -0.3540
11489TIP3    H155882   3.250   3.582   1.046  0.5243  0.0519 -0.0964
11489TIP3    H255883   3.218   3.476   1.148 -1.1125  0.5704 -0.0405
11490TIP3   OH255884   4.988   0.446  14.889 -0.3189 -0.0647 -0.4424
11490TIP3    H155885   4.933   0.518  14.857 -1.0240 -0.7941 -0.9233
11490TIP3    H255886   5.003   0.467  14.981 -1.2686  0.2388 -0.3435
11491TIP3   OH255887   6.609   3.821  15.707  0.1074 -0.3201 -0.9968
11491TIP3    H155888   6.631   3.874  15.784 -0.8811 -0.6066 -0.4940
11491TIP3    H255889   6.681   3.760  15.698  0.9443  0.6705 -1.1854
11492TIP3   OH255890   4.652   4.613   6.024  0.5765  0.1014  0.3349
11492TIP3    H155891   4.644   4.532   5.974  1.3175 -0.1493  0.6015
11492TIP3    H255892   4.563   4.632   6.054  0.3882 -0.5942  0.2319
11493TIP3   OH255893   1.749   3.037  12.337  0.2134  0.5627 -0.4639
11493TIP3    H155894   1.681   3.081  12.286 -1.0188 -1.0069 -0.2388
11493TIP3    H255895   1.819   3.021  12.273  0.6101  2.5712 -0.5994
11494TIP3   OH255896   6.333   1.956   1.796 -0.1613 -0.6072 -0.0521
11494TIP3    H155897   6.241   1.982   1.804 -0.1224  0.4478 -2.3438
11494TIP3    H255898   6.335   1.899   1.719  1.0790 -0.8667  0.1509
11495TIP3   OH255899   5.796   6.099  16.600 -0.2906 -0.2186 -0.4498
11495TIP3    H155900   5.834   6.185  16.587  0.0137  0.2033  2.4757
11495TIP3    H255901   5.711   6.103  16.557 -0.0054  1.2929 -0.9124
11496TIP3   OH255902   1.299   5.805   2.025 -0.4329 -0.2392  0.3841
11496TIP3    H155903   1.327   5.752   2.100 -1.2706 -1.2796 -0.0234
11496TIP3    H255904   1.235   5.866   2.062  0.6763  0.6562  0.8910
11497TIP3   OH255905   2.926   0.398  12.580 -0.0918 -0.3013  0.6110
11497TIP3    H155906   3.018   0.414  12.560 -0.3318 -0.5150 -0.7489
11497TIP3    H255907   2.894   0.345  12.507 -1.5896  0.7720  0.4403
11498TIP3   OH255908   1.238   6.694  11.950  0.1905 -0.3661 -0.2310
11498TIP3    H155909   1.311   6.633  11.959 -0.5284 -1.1490  0.3363
11498TIP3    H255910   1.191   6.689  12.033  0.4404  1.3939  0.0643
11499TIP3   OH255911   1.769   2.840   4.824 -0.5947  0.0095  0.2310
11499TIP3    H155912   1.691   2.811   4.777  0.0967 -1.7437  0.0738
11499TIP3    H255913   1.828   2.765   4.821  0.0358  0.3032  2.7194
11500TIP3   OH255914   0.174   3.165  15.590 -0.3033 -0.3541 -0.4535
11500TIP3    H155915   0.113   3.092  15.579 -1.6331  0.6154  0.1285
11500TIP3    H255916   0.261   3.126  15.585 -0.9821 -1.9115 -0.4600
11501TIP3   OH255917   1.287   2.739  11.801  0.1831  0.0261 -0.2659
11501TIP3    H155918   1.283   2.782  11.716 -1.4190 -1.3935 -0.9909
11501TIP3    H255919   1.215   2.778  11.851  0.8425  0.5476  0.2755
11502TIP3   OH255920   5.195   5.971   3.635  0.2275 -0.5058  0.2371
11502TIP3    H155921   5.262   5.912   3.601  2.4242  1.4408  0.9495
11502TIP3    H255922   5.173   5.935   3.721 -0.6228 -1.8608 -0.5194
11503TIP3   OH255923   2.262   5.806   3.541 -0.4954  0.1037  0.5662
11503TIP3    H155924   2.251   5.898   3.517  1.4787 -0.2494 -2.1111
11503TIP3    H255925   2.184   5.763   3.505  0.6152  0.1814 -2.2126
11504TIP3   OH255926   0.940   5.111  14.337 -0.0710  0.1458 -0.0063
11504TIP3    H155927   0.915   5.081  14.424 -1.0018  0.0284 -0.3129
11504TIP3    H255928   0.873   5.174  14.313 -0.2344 -0.3670 -0.9392
11505TIP3   OH255929   1.239   1.419   1.907 -0.0297 -0.2548  0.4031
11505TIP3    H155930   1.257   1.337   1.862  1.7143 -0.3173  1.1106
11505TIP3    H255931   1.208   1.479   1.839 -2.6054 -1.8243  0.0931
11506TIP3   OH255932   3.679   4.246  11.646 -0.0839 -0.8781 -0.1038
11506TIP3    H155933   3.760   4.292  11.623  0.2811 -0.7621  1.3230
11506TIP3    H255934   3.610   4.310  11.629  0.5351  1.0898  3.6548
11507TIP3   OH255935   3.440   6.302   3.042  0.1643 -0.1406  0.5417
11507TIP3    H155936   3.383   6.374   3.013 -0.8145 -0.8863  0.5725
11507TIP3    H255937   3.500   6.288   2.968 -1.8195 -1.5095 -0.8976
11508TIP3   OH255938   1.892   6.456   1.856  0.1675 -0.3113  0.2573
11508TIP3    H155939   1.961   6.392   1.871  0.7436  0.0348 -0.7785
11508TIP3    H255940   1.812   6.403   1.846  0.7014 -0.9218 -1.0081
11509TIP3   OH255941   4.155   4.262   4.448 -0.2464 -0.0844  0.5864
11509TIP3    H155942   4.082   4.324   4.452  0.4001  0.7522 -0.2320
11509TIP3    H255943   4.149   4.223   4.361 -1.0300 -1.6992  1.3080
11510TIP3   OH255944   0.216   2.529  11.094 -0.4968  0.1065  0.0820
11510TIP3    H155945   0.287   2.496  11.039 -1.2215 -0.8503 -0.3256
11510TIP3    H255946   0.155   2.570  11.032 -0.8839 -0.1757  0.2709
11511TIP3   OH255947   6.239   0.280  12.018  0.5529 -0.3995  0.3972
11511TIP3    H155948   6.237   0.318  12.106  3.4508 -0.5944  0.6428
11511TIP3    H255949   6.228   0.355  11.959  1.2664  0.1463  0.9345
11512TIP3   OH255950   5.284   2.755  16.394  0.9112 -0.3874  0.2045
11512TIP3    H155951   5.206   2.724  16.347  1.1846  1.3490 -1.5160
11512TIP3    H255952   5.264   2.845  16.417  2.9668  0.6875 -1.7996
11513TIP3   OH255953   5.571   6.194  13.932 -0.3236  0.1070 -0.2162
11513TIP3    H155954   5.548   6.210  13.841 -0.3502  0.6928 -0.1126
11513TIP3    H255955   5.601   6.279  13.964 -0.5013 -0.0499  0.3755
11514TIP3   OH255956   6.367   0.005  11.648 -0.4989 -0.1971  0.7087
11514TIP3    H155957   6.377  -0.079  11.603  1.7868  0.3036  0.1502
11514TIP3    H255958   6.393  -0.014  11.739  0.4079 -0.0441  0.4931
11515TIP3   OH255959   1.004   4.637  15.125  0.1878 -0.1561 -0.1247
11515TIP3    H155960   1.099   4.628  15.133  0.2147 -0.9568 -1.0990
11515TIP3    H255961   0.975   4.553  15.089 -0.8230  0.2816 -0.3733
11516TIP3   OH255962   6.175   4.715   3.763 -0.1988  0.4442 -0.1046
11516TIP3    H155963   6.232   4.690   3.691 -0.4032 -0.4801  0.0413
11516TIP3    H255964   6.149   4.632   3.803  0.8081  0.9549  1.7320
11517TIP3   OH255965   0.987   3.956  10.311 -0.0789 -0.6170 -0.0932
11517TIP3    H155966   1.067   3.904  10.300  1.0401  0.9236  0.4274
11517TIP3    H255967   0.943   3.915  10.385  0.5951 -1.0508  0.0856
11518TIP3   OH255968   2.225   2.915   1.811  0.1738 -0.6252  0.5769
11518TIP3    H155969   2.248   3.007   1.827  1.6468 -0.9551  0.4998
11518TIP3    H255970   2.225   2.906   1.716  3.0701 -1.3529  0.5452
11519TIP3   OH255971   2.793   5.547  11.718 -0.0735 -0.3621  0.0135
11519TIP3    H155972   2.764   5.602  11.646  0.0469 -1.0308 -0.5580
11519TIP3    H255973   2.819   5.464  11.677 -0.3508 -0.8861  0.8600
11520TIP3   OH255974   4.558   4.245  11.298  0.3925 -0.2937 -0.4962
11520TIP3    H155975   4.551   4.168  11.241  1.2034 -1.0615  0.3977
11520TIP3    H255976   4.633   4.294  11.263 -0.6079  0.5445 -1.5511
11521TIP3   OH255977   6.687   2.668  10.225  0.6474  0.1037 -0.0862
11521TIP3    H155978   6.683   2.749  10.174  3.0894  0.0827 -0.4170
11521TIP3    H255979   6.719   2.695  10.311  0.3918 -0.3710  0.1618
11522TIP3   OH255980   1.512   2.063   4.212 -0.1722  0.2645 -0.2790
11522TIP3    H155981   1.442   2.085   4.273 -0.8864 -0.1071 -0.9331
11522TIP3    H255982   1.484   1.980   4.173  0.3343  0.4139 -0.9879
11523TIP3   OH255983   5.941   2.006   0.633  0.0144  0.0049  0.1778
11523TIP3    H155984   5.942   2.094   0.593  1.9151  0.8273  1.8812
11523TIP3    H255985   5.848   1.988   0.647 -0.5792  0.7267 -2.2690
11524TIP3   OH255986   4.593   6.758   5.223 -0.7650  0.0865  0.5374
11524TIP3    H155987   4.580   6.794   5.311 -0.6177 -0.7198  0.8971
11524TIP3    H255988   4.622   6.833   5.171  1.4204  0.1511  1.7158
11525TIP3   OH255989   3.737   2.729  16.279 -0.1271 -0.2361 -0.0483
11525TIP3    H155990   3.668   2.769  16.227  0.5078  1.2877  0.2339
11525TIP3    H255991   3.761   2.650  16.231 -1.6775 -0.5124 -0.4281
11526TIP3   OH255992   2.781   4.057  10.846 -0.2889  0.5272 -0.1631
11526TIP3    H155993   2.875   4.063  10.864 -0.2705 -0.8829  0.3606
11526TIP3    H255994   2.777   4.010  10.762 -0.5121  1.6404 -0.7885
11527TIP3   OH255995   0.189   2.108   4.198 -0.0661  0.1163  0.0814
11527TIP3    H155996   0.223   2.096   4.287  1.6601 -1.9210 -0.7578
11527TIP3    H255997   0.261   2.153   4.151 -0.8754  0.9913 -0.3593
11528TIP3   OH255998   5.425   5.468   3.396 -0.2304 -0.0222  0.3843
11528TIP3    H155999   5.397   5.460   3.305 -1.3711  1.7646  0.5275
11528TIP3    H256000   5.371   5.539   3.431  0.2167 -0.6454  2.4455
11529TIP3   OH256001   6.560   3.582   0.871  0.3520  0.2807  0.4222
11529TIP3    H156002   6.511   3.507   0.904  0.7594 -0.2968 -0.2756
11529TIP3    H256003   6.641   3.581   0.921  0.0782  0.6624  0.8864
11530TIP3   OH256004   4.543   5.512   3.336 -0.0693 -0.3745 -0.3954
11530TIP3    H156005   4.555   5.451   3.409  0.6603 -0.8140 -0.8664
11530TIP3    H256006   4.600   5.586   3.357  0.5138 -0.7167 -0.7421
11531TIP3   OH256007   5.091   1.612  17.037 -0.2106  0.2013 -0.5460
11531TIP3    H156008   5.042   1.676  17.090 -2.5467 -2.0269  0.2013
11531TIP3    H256009   5.093   1.533  17.091 -1.3483 -1.7124 -3.0991
11532TIP3   OH256010   3.408   2.913   5.648 -0.0257 -0.2100 -0.5018
11532TIP3    H156011   3.473   2.956   5.703 -0.7554  0.5149 -0.1754
11532TIP3    H256012   3.338   2.887   5.708 -0.7117  0.3471 -1.0348
11533TIP3   OH256013   1.185   1.037   3.004 -0.8690 -0.3613 -0.1787
11533TIP3    H156014   1.107   1.039   2.949 -1.2745 -0.2398  0.3856
11533TIP3    H256015   1.219   1.126   3.001 -0.8854 -0.3572 -0.2428
11534TIP3   OH256016   5.230   4.667  12.990  0.0169 -0.3668 -0.0937
11534TIP3    H156017   5.183   4.741  13.028  0.3455 -0.2659  0.1198
11534TIP3    H256018   5.272   4.703  12.911 -0.1851 -0.4318 -0.2294
11535TIP3   OH256019   5.794   3.421  16.356 -0.6296  0.1655 -0.0750
11535TIP3    H156020   5.761   3.464  16.435 -2.3266  0.4685 -0.9173
11535TIP3    H256021   5.889   3.434  16.360 -0.7038  0.4016  1.7639
11536TIP3   OH256022   0.552   0.710  15.685 -0.2944  0.2361  0.3340
11536TIP3    H156023   0.632   0.721  15.737  0.7676 -1.7051 -0.7694
11536TIP3    H256024   0.550   0.786  15.628  1.7132 -0.4377 -0.7443
11537TIP3   OH256025   0.577   2.504  13.674 -0.3704 -0.3504  0.0220
11537TIP3    H156026   0.511   2.546  13.619 -2.2470 -0.8618  1.7391
11537TIP3    H256027   0.562   2.542  13.761  0.4559 -1.7445  0.7942
11538TIP3   OH256028   0.686   3.474   2.350  0.4259  0.0300 -0.3373
11538TIP3    H156029   0.737   3.462   2.430  1.0372  1.7142 -0.4264
11538TIP3    H256030   0.658   3.565   2.354 -2.0752 -0.6615 -0.6224
11539TIP3   OH256031   6.339   5.675  13.218  0.3305  0.0024  0.2607
11539TIP3    H156032   6.246   5.677  13.194 -0.1696  1.6391  2.0388
11539TIP3    H256033   6.378   5.748  13.170  1.0375 -1.4160 -1.4487
11540TIP3   OH256034   6.235   3.383   1.180 -0.3557 -0.1751  0.7531
11540TIP3    H156035   6.304   3.392   1.114 -0.5198  0.4505  0.6615
11540TIP3    H256036   6.274   3.418   1.260  0.2320 -1.9330  1.2895
11541TIP3   OH256037   2.638   5.143  16.712  0.0718  0.8247 -0.1797
11541TIP3    H156038   2.642   5.227  16.757 -0.6030  0.1391  1.2205
11541TIP3    H256039   2.712   5.093  16.748 -0.1908  0.4331 -0.1773
11542TIP3   OH256040   5.815   3.883   1.872 -0.2437 -0.0247 -0.4212
11542TIP3    H156041   5.776   3.921   1.951 -0.0371 -1.3389  0.3409
11542TIP3    H256042   5.765   3.803   1.857  0.5756 -0.4664 -0.8544
11543TIP3   OH256043   4.272   1.524   1.536  0.2918 -0.0104 -0.2394
11543TIP3    H156044   4.282   1.619   1.543 -0.0636 -0.0427  1.0505
11543TIP3    H256045   4.349   1.489   1.580  0.8220 -0.3380 -1.4011
11544TIP3   OH256046   0.413   0.946   1.545  0.0921 -0.6042 -0.1753
11544TIP3    H156047   0.326   0.959   1.583  0.2328  0.0214 -0.0418
11544TIP3    H256048   0.430   1.028   1.498  0.2575 -1.0576 -0.9094
11545TIP3   OH256049   4.648   6.768   4.229 -0.1519 -0.0506  0.1555
11545TIP3    H156050   4.733   6.774   4.185 -0.3289  2.5502  0.0288
11545TIP3    H256051   4.610   6.855   4.218 -3.0623 -1.2782 -0.1982
11546TIP3   OH256052   5.386   2.102   3.754 -0.1404 -0.0290  0.8940
11546TIP3    H156053   5.340   2.025   3.721 -0.4777  0.5414  0.0135
11546TIP3    H256054   5.452   2.122   3.687 -0.1519  0.5329  1.0442
11547TIP3   OH256055   6.400   4.637  11.276  0.3196 -0.4211 -0.5208
11547TIP3    H156056   6.444   4.699  11.217  0.9178  0.2864  0.6315
11547TIP3    H256057   6.353   4.693  11.338 -0.3930 -1.1569 -0.3803
11548TIP3   OH256058   5.621   5.262   3.793 -0.0632  0.2216  0.6323
11548TIP3    H156059   5.654   5.349   3.813  2.9876 -0.8757  0.9500
11548TIP3    H256060   5.631   5.213   3.874  1.9878 -1.3744 -0.4786
11549TIP3   OH256061   0.230   6.263  11.781  0.3679 -0.7688 -0.0429
11549TIP3    H156062   0.242   6.352  11.814  0.3378 -0.9830  0.5780
11549TIP3    H256063   0.189   6.273  11.696 -0.4118 -0.2148  0.3855
11550TIP3   OH256064   1.753   1.410  12.696 -0.1291  0.1348  0.0898
11550TIP3    H156065   1.734   1.425  12.788  0.6621 -0.0991  0.2980
11550TIP3    H256066   1.794   1.323  12.693  1.0737  0.6872 -0.2896
11551TIP3   OH256067   4.100   6.474   2.879 -0.5479 -0.3154 -0.0302
11551TIP3    H156068   4.189   6.439   2.882 -0.4160  0.0097 -0.1924
11551TIP3    H256069   4.045   6.396   2.869 -0.2998 -0.5389  0.2811
11552TIP3   OH256070   6.731   1.375  11.124  0.5129 -0.6278 -0.1737
11552TIP3    H156071   6.821   1.341  11.123  1.7562  2.3111 -0.2946
11552TIP3    H256072   6.722   1.421  11.041 -0.9664 -0.5051  0.0244
11553TIP3   OH256073   2.359   2.404  17.006  0.6121 -0.6285  0.4277
11553TIP3    H156074   2.437   2.458  16.995  1.0209 -0.9228  1.6944
11553TIP3    H256075   2.288   2.467  17.017  0.4574 -0.3444 -1.7350
11554TIP3   OH256076   1.663   3.730  11.734  0.1101 -0.2641  0.2265
11554TIP3    H156077   1.672   3.786  11.811 -1.4304 -0.8857  0.9123
11554TIP3    H256078   1.736   3.754  11.677 -0.5172  2.4525  0.4635
11555TIP3   OH256079   6.052   1.460  15.230  0.5759  0.3927  0.5925
11555TIP3    H156080   6.078   1.376  15.267 -1.1295 -0.1761  0.5601
11555TIP3    H256081   6.021   1.439  15.142 -2.1852  0.6182  1.4242
11556TIP3   OH256082   2.477   3.947  11.145  0.1943 -0.0224 -0.6273
11556TIP3    H156083   2.454   3.905  11.228  0.0979  0.3052 -0.4882
11556TIP3    H256084   2.448   3.885  11.078  1.0898 -0.7064 -0.4068
11557TIP3   OH256085   5.721   1.755   1.412 -0.1122  0.5728  0.0469
11557TIP3    H156086   5.655   1.709   1.463 -0.4256 -0.3190 -1.1150
11557TIP3    H256087   5.744   1.832   1.465 -2.4594  1.2108  0.2471
11558TIP3   OH256088   6.674   0.166   3.098 -0.0650 -0.2399  0.2315
11558TIP3    H156089   6.691   0.136   3.188 -3.4536  0.8585  1.4026
11558TIP3    H256090   6.690   0.261   3.101  2.2846 -0.5051 -1.1389
11559TIP3   OH256091   0.059   4.391  11.780  0.1220  0.0188  0.2122
11559TIP3    H156092   0.070   4.457  11.849 -2.4673  2.5869 -1.5895
11559TIP3    H256093   0.115   4.421  11.708 -0.0674 -0.4881 -0.1565
11560TIP3   OH256094   3.843   1.435  15.791 -0.2644  0.6026 -0.1538
11560TIP3    H156095   3.815   1.527  15.788 -0.9724  0.4299  0.6119
11560TIP3    H256096   3.787   1.391  15.728 -2.7142  0.0466  2.2038
11561TIP3   OH256097   6.272   6.445  11.743  0.2750 -0.2026  0.3476
11561TIP3    H156098   6.324   6.497  11.804 -0.8743  1.1250  0.2487
11561TIP3    H256099   6.308   6.466  11.657  0.5028 -0.4161  0.3882
11562TIP3   OH256100   4.765   0.956   2.328  0.0470  0.5263 -0.6455
11562TIP3    H156101   4.768   1.047   2.298  0.3171  0.8205  0.2377
11562TIP3    H256102   4.676   0.945   2.361 -0.1365  0.3154 -1.2001
11563TIP3   OH256103   3.405   0.890  13.231  0.8033 -0.1161 -0.3715
11563TIP3    H156104   3.348   0.895  13.307  3.0589  0.5130  1.3716
11563TIP3    H256105   3.422   0.981  13.207  2.4119 -0.2224  0.2388
11564TIP3   OH256106   5.720   1.126   1.973  0.0187 -0.4125  0.4105
11564TIP3    H156107   5.744   1.218   1.970 -1.0763 -0.1405 -1.6290
11564TIP3    H256108   5.716   1.099   1.881  0.5423 -2.5665  0.9598
11565TIP3   OH256109   0.352   4.501   5.373 -0.2716  0.3394  0.7456
11565TIP3    H156110   0.261   4.523   5.389 -0.7421 -0.9500 -0.0329
11565TIP3    H256111   0.398   4.532   5.451 -1.5458 -0.0662  1.6888
11566TIP3   OH256112   2.605   1.500  11.248  0.6494  0.2107  0.0199
11566TIP3    H156113   2.639   1.482  11.161 -0.9247  1.1221 -0.8384
11566TIP3    H256114   2.516   1.464  11.247 -0.3944  2.6170  0.2756
11567TIP3   OH256115   4.580   6.148  15.830  0.3973 -0.5848  0.6317
11567TIP3    H156116   4.586   6.234  15.789  0.3949 -0.9318 -0.1038
11567TIP3    H256117   4.668   6.132  15.864  0.9319 -1.1015 -0.9035
11568TIP3   OH256118   1.650   4.302   2.194  0.2806  0.6943  0.1950
11568TIP3    H156119   1.667   4.320   2.286 -0.3576 -1.3613  0.7626
11568TIP3    H256120   1.631   4.208   2.191  0.1561  0.7408 -2.0154
11569TIP3   OH256121   4.713   3.025  16.049  0.8519 -0.3038 -0.0863
11569TIP3    H156122   4.655   2.964  16.002 -0.7515  1.4130 -0.4640
11569TIP3    H256123   4.775   3.055  15.982 -0.0893  0.5112 -0.6336
11570TIP3   OH256124   0.887   1.277  14.831  0.0638  0.4203 -0.2402
11570TIP3    H156125   0.852   1.351  14.780 -0.6598  0.8187  0.8026
11570TIP3    H256126   0.931   1.222  14.766 -1.8802  0.2699 -1.5254
11571TIP3   OH256127   4.230   4.202  12.144  0.3393  0.7742 -0.2765
11571TIP3    H156128   4.306   4.260  12.145  0.2303  0.9202 -0.4715
11571TIP3    H256129   4.155   4.259  12.160  0.3304  0.5326  0.6445
11572TIP3   OH256130   4.598   4.794  14.631  0.2881 -0.0975  0.0508
11572TIP3    H156131   4.565   4.741  14.559 -1.4869 -0.1870  0.8729
11572TIP3    H256132   4.626   4.876  14.590 -0.5841 -0.1914 -0.7688
11573TIP3   OH256133   3.224   4.373   0.665 -0.0776  0.1987 -0.2204
11573TIP3    H156134   3.187   4.435   0.728 -0.2593 -0.0128 -0.1174
11573TIP3    H256135   3.315   4.363   0.691 -0.9915 -2.8807  2.4768
11574TIP3   OH256136   2.148   1.526  16.257  0.0552 -0.0581  0.1812
11574TIP3    H156137   2.200   1.576  16.194  0.3821 -0.7343 -0.0972
11574TIP3    H256138   2.205   1.454  16.285 -1.1008 -1.5637 -1.0753
11575TIP3   OH256139   1.808   5.154  17.125 -0.3848  0.1500  0.3297
11575TIP3    H156140   1.886   5.192  17.086 -2.4567  2.5228 -1.8778
11575TIP3    H256141   1.777   5.222  17.186 -0.5222 -0.9603  1.5447
11576TIP3   OH256142   2.720   5.531   3.143 -0.7833  0.2327 -0.1662
11576TIP3    H156143   2.665   5.595   3.098 -0.5726  0.8225  0.3919
11576TIP3    H256144   2.663   5.493   3.210 -0.2696  1.5751  1.0903
11577TIP3   OH256145   1.445   5.582   0.345  0.1531  0.8996 -0.8253
11577TIP3    H156146   1.387   5.651   0.313 -1.2487  1.3758  2.3133
11577TIP3    H256147   1.482   5.618   0.426  2.8002 -0.4609 -1.2982
11578TIP3   OH256148   4.354   0.646  12.831 -0.6267 -0.1751  0.3432
11578TIP3    H156149   4.439   0.671  12.867  0.0981  2.6166 -2.7652
11578TIP3    H256150   4.374   0.580  12.765 -1.0349 -0.2962  0.3377
11579TIP3   OH256151   4.727   1.521  15.432  0.4281 -0.0248  0.4107
11579TIP3    H156152   4.638   1.553  15.438  0.3704  0.3251 -1.7085
11579TIP3    H256153   4.782   1.598  15.447  0.3276  0.2590 -0.6087
11580TIP3   OH256154   0.463   5.771   5.294 -0.1249 -0.3722  0.0009
11580TIP3    H156155   0.517   5.745   5.369 -0.1673  0.3627  0.3011
11580TIP3    H256156   0.415   5.848   5.325  0.1708  0.1993 -0.9174
11581TIP3   OH256157   1.244   5.775   0.340 -0.5167  0.2243  0.6503
11581TIP3    H156158   1.246   5.853   0.396  2.4674 -0.3666  1.5756
11581TIP3    H256159   1.193   5.711   0.390 -0.0669  0.5350  1.5321
11582TIP3   OH256160   4.450   2.430   4.500  0.0332  0.5426 -0.1339
11582TIP3    H156161   4.461   2.465   4.411 -0.0555  1.0948  0.0675
11582TIP3    H256162   4.534   2.444   4.542 -0.3518  1.5819  0.3110
11583TIP3   OH256163   5.301   1.108  12.954 -0.3357 -0.0619 -0.1615
11583TIP3    H156164   5.305   1.194  12.995  1.5547 -0.5156  0.7593
11583TIP3    H256165   5.216   1.105  12.911 -1.2759  1.4819  1.4737
11584TIP3   OH256166   5.919   4.823  15.283  0.3970  0.6065  0.7493
11584TIP3    H156167   5.875   4.906  15.299 -1.1645  0.2323 -1.2127
11584TIP3    H256168   5.994   4.846  15.227 -0.9574  0.5705 -1.1569
11585TIP3   OH256169   0.413   2.992  11.215 -0.1063 -0.6446 -0.4741
11585TIP3    H156170   0.330   2.949  11.197 -0.0276 -1.2576  0.5218
11585TIP3    H256171   0.430   3.046  11.138 -2.1647  0.6937 -0.0472
11586TIP3   OH256172   3.489   0.608   2.664  0.1494 -0.0703 -0.2832
11586TIP3    H156173   3.399   0.586   2.641 -0.2209  0.6867  0.3731
11586TIP3    H256174   3.502   0.696   2.629  0.7213 -0.2719 -0.5861
11587TIP3   OH256175   4.223   4.631  11.376  0.1309  0.1608 -0.0836
11587TIP3    H156176   4.276   4.623  11.455 -0.2599  3.1364  0.6242
11587TIP3    H256177   4.282   4.669  11.311 -0.4871  1.3185  0.0032
11588TIP3   OH256178   5.963   2.888   3.108  0.5463 -0.0717  0.1038
11588TIP3    H156179   5.999   2.878   3.196  0.2325 -0.5167  0.1866
11588TIP3    H256180   6.038   2.879   3.050  0.4514 -2.1599  0.2113
11589TIP3   OH256181   0.380   1.556   2.267 -0.5034 -0.3621 -0.4426
11589TIP3    H156182   0.292   1.574   2.298  0.6520  1.9679  1.8911
11589TIP3    H256183   0.424   1.641   2.269  1.8954 -1.4751 -1.2810
11590TIP3   OH256184   1.890   1.659  11.635 -0.2121 -0.2549  0.1104
11590TIP3    H156185   1.876   1.595  11.565  0.0647 -0.6426  0.4030
11590TIP3    H256186   1.983   1.649  11.657  0.2612  1.4202 -0.9807
11591TIP3   OH256187   5.759   6.275  12.007  0.4122 -0.4311  0.6787
11591TIP3    H156188   5.833   6.218  11.987  0.6961  0.4520 -0.9469
11591TIP3    H256189   5.753   6.333  11.932 -1.8625 -0.3947  0.8339
11592TIP3   OH256190   5.083   3.498  16.260 -0.1000 -0.4179  0.1624
11592TIP3    H156191   5.131   3.566  16.306 -0.0199 -1.4086  1.6329
11592TIP3    H256192   5.007   3.479  16.317 -1.4998  0.1504 -1.4282
11593TIP3   OH256193   5.561   6.576   6.141 -0.1763  0.0689  0.4162
11593TIP3    H156194   5.520   6.599   6.058 -0.6987 -0.6681  0.4609
11593TIP3    H256195   5.630   6.642   6.153  2.0999 -1.6401 -2.1376
11594TIP3   OH256196   1.110   2.157   2.459 -0.5562 -0.0727 -0.0306
11594TIP3    H156197   1.182   2.194   2.407 -0.0103  0.3597  0.9863
11594TIP3    H256198   1.035   2.213   2.440 -0.4255 -0.0685 -0.5395
11595TIP3   OH256199   2.380   5.941   2.612  0.3724 -0.6426  0.0136
11595TIP3    H156200   2.308   6.001   2.633  1.1773  0.3342  0.0841
11595TIP3    H256201   2.395   5.892   2.692 -0.2935 -0.9540 -0.0422
11596TIP3   OH256202   6.635   2.882  12.241 -0.1180 -0.2591 -0.3331
11596TIP3    H156203   6.640   2.975  12.220 -0.6056 -0.0062  0.6208
11596TIP3    H256204   6.546   2.869  12.272 -1.2333 -1.7628 -3.6994
11597TIP3   OH256205   2.950   1.277   4.370  0.4340 -0.3562 -0.5349
11597TIP3    H156206   2.996   1.308   4.292  2.0254 -0.0053  0.5027
11597TIP3    H256207   2.894   1.350   4.396  0.2959 -0.2844 -1.0197
11598TIP3   OH256208   5.414   5.908   5.813  0.5749 -0.0167  0.5835
11598TIP3    H156209   5.340   5.874   5.764  1.7927 -0.7202 -0.8299
11598TIP3    H256210   5.443   5.985   5.764  0.0652  0.9698  1.7842
11599TIP3   OH256211   1.543   0.820   3.380  0.2481 -0.2851  0.1536
11599TIP3    H156212   1.484   0.821   3.305  0.4313  0.0479  0.0085
11599TIP3    H256213   1.502   0.760   3.443  0.6112 -1.3832 -0.6268
11600TIP3   OH256214   2.956   0.873   2.286 -0.2401  0.5456  0.0459
11600TIP3    H156215   2.942   0.894   2.379  0.3546  0.9805  0.0413
11600TIP3    H256216   2.878   0.822   2.262 -1.0069  1.4819  0.4551
11601TIP3   OH256217   0.726   3.164  11.554 -0.4383 -0.3559 -0.6602
11601TIP3    H156218   0.699   3.089  11.501  0.9255  0.1080 -2.0999
11601TIP3    H256219   0.822   3.158  11.558 -0.4206  0.3845  0.6244
11602TIP3   OH256220   5.439   2.509  14.456 -0.2770  0.2575  0.1150
11602TIP3    H156221   5.360   2.475  14.499 -0.5719  0.8004  0.0207
11602TIP3    H256222   5.412   2.525  14.366  0.1854 -0.3519 -0.1305
11603TIP3   OH256223   6.322   3.749  11.680  0.3852 -0.7187  0.0259
11603TIP3    H156224   6.323   3.775  11.772  0.2143 -1.2031  0.1702
11603TIP3    H256225   6.316   3.831  11.632 -1.7965 -0.5129  0.5081
11604TIP3   OH256226   3.941   3.263   1.903  0.0540  0.1498  0.2216
11604TIP3    H156227   3.969   3.198   1.968 -0.2068 -0.1735  0.0138
11604TIP3    H256228   3.889   3.326   1.953 -2.2993 -1.4595 -0.0692
11605TIP3   OH256229   5.041   2.042  13.760  0.1069 -0.3595  0.1401
11605TIP3    H156230   4.951   2.053  13.729  0.1012 -0.3732  0.1513
11605TIP3    H256231   5.077   1.972  13.706  0.0770 -0.4269  0.2054
11606TIP3   OH256232   3.697   1.721   4.144 -0.1379 -0.3431 -0.1704
11606TIP3    H156233   3.691   1.637   4.190  1.0803  0.2693  1.2167
11606TIP3    H256234   3.655   1.784   4.203 -1.2605  0.0025 -1.3099
11607TIP3   OH256235   3.588   2.175   1.950 -0.0685 -0.4926 -0.3829
11607TIP3    H156236   3.632   2.202   1.869  0.7660 -0.8056 -0.0538
11607TIP3    H256237   3.574   2.081   1.939 -1.3683 -0.2717 -0.7939
11608TIP3   OH256238   6.225   3.082   0.664  0.6010 -0.5383  0.4274
11608TIP3    H156239   6.204   3.065   0.756  1.2901  0.4079  0.7883
11608TIP3    H256240   6.209   3.176   0.654 -0.4743 -0.8251 -0.7189
11609TIP3   OH256241   6.685   6.290   4.758  0.1132 -0.0126 -0.1889
11609TIP3    H156242   6.653   6.207   4.721 -0.7291  0.4039 -0.4059
11609TIP3    H256243   6.771   6.268   4.794  0.1619 -0.8445 -0.7828
11610TIP3   OH256244   0.092   6.253   3.896 -0.2432  0.1639  0.1364
11610TIP3    H156245   0.051   6.331   3.932 -1.9086 -0.8642  0.5831
11610TIP3    H256246   0.179   6.252   3.934 -0.9689  0.6216  1.8985
11611TIP3   OH256247   3.539   2.323  12.572  0.0046  0.0459 -0.4212
11611TIP3    H156248   3.608   2.275  12.617  2.0121  0.8230 -2.5174
11611TIP3    H256249   3.536   2.408  12.615  1.0321  0.3348 -0.8965
11612TIP3   OH256250   5.691   4.488  15.693  0.0823  0.0715 -0.2409
11612TIP3    H156251   5.645   4.410  15.663  1.0573 -0.3109 -0.8124
11612TIP3    H256252   5.781   4.476  15.661  0.0991  1.7408 -0.9261
11613TIP3   OH256253   5.690   5.789   3.423 -0.1880  0.9317  0.9376
11613TIP3    H156254   5.631   5.755   3.355 -0.2818  0.7075  1.1280
11613TIP3    H256255   5.749   5.848   3.376 -0.3983  0.9566  0.7001
11614TIP3   OH256256   2.249   6.772  11.846 -0.1290 -0.1621  0.4881
11614TIP3    H156257   2.205   6.734  11.922 -1.4338 -0.1811 -0.2502
11614TIP3    H256258   2.187   6.761  11.774  0.7386  0.5953 -0.4060
11615TIP3   OH256259   2.184   4.660   1.431 -0.9259  0.4465  0.1826
11615TIP3    H156260   2.246   4.730   1.454 -1.3151  0.6441  0.6351
11615TIP3    H256261   2.098   4.695   1.456 -1.2834  0.3763 -0.8977
11616TIP3   OH256262   0.196   4.309  15.476  0.7186  0.4436  0.3485
11616TIP3    H156263   0.241   4.261  15.545  0.0682  0.9910  1.1709
11616TIP3    H256264   0.205   4.254  15.398 -0.3136 -1.1882  1.3329
11617TIP3   OH256265   2.675   4.535  12.289  0.2079  0.2217  0.8522
11617TIP3    H156266   2.612   4.541  12.217  1.9199 -0.9195 -0.8137
11617TIP3    H256267   2.689   4.626  12.316 -0.9983  0.6128  0.2680
11618TIP3   OH256268   5.643   5.733   5.869  0.2008 -0.0205 -0.0307
11618TIP3    H156269   5.588   5.797   5.824  2.4233  1.2823 -1.1161
11618TIP3    H256270   5.588   5.656   5.881 -1.6232  0.9760 -1.5734
11619TIP3   OH256271   5.102   3.265  11.654 -0.2234  0.2288  0.1041
11619TIP3    H156272   5.022   3.278  11.706 -1.3421 -1.3870 -1.0742
11619TIP3    H256273   5.094   3.175  11.622  1.6809  0.3249 -0.7498
11620TIP3   OH256274   1.079   0.583  14.000  0.8881  0.4779  0.2277
11620TIP3    H156275   1.169   0.555  13.984  1.0329  0.8180  0.4426
11620TIP3    H256276   1.047   0.610  13.914  0.3653 -1.3974 -0.2160
11621TIP3   OH256277   2.651   3.677  15.243  0.2125  0.5257 -0.1078
11621TIP3    H156278   2.595   3.658  15.167 -0.4880 -0.7218  0.6743
11621TIP3    H256279   2.680   3.767  15.230  2.0064 -0.3413 -3.0325
11622TIP3   OH256280   2.202   6.648   5.103  0.2341  0.1168  0.2554
11622TIP3    H156281   2.148   6.603   5.039 -1.9166  0.6463  1.6076
11622TIP3    H256282   2.240   6.721   5.056  0.9447 -1.0639 -1.0737
11623TIP3   OH256283   4.282   6.546  13.961 -0.5205 -0.1218  0.4195
11623TIP3    H156284   4.252   6.456  13.975 -1.5966 -0.1254 -1.6135
11623TIP3    H256285   4.356   6.538  13.901 -0.6440  0.3628  0.1993
11624TIP3   OH256286   2.442   5.615   3.163 -0.2321 -0.4188  0.2488
11624TIP3    H156287   2.348   5.624   3.179 -0.3156 -0.3883 -0.2434
11624TIP3    H256288   2.476   5.577   3.244 -0.9374 -2.0040 -0.1542
11625TIP3   OH256289   4.937   4.180   0.577 -0.1006  0.0058  0.5697
11625TIP3    H156290   5.020   4.227   0.577 -0.3253  0.4902 -1.2041
11625TIP3    H256291   4.875   4.240   0.536 -1.5179 -0.0856  2.4745
11626TIP3   OH256292   0.413   3.741  12.086  0.4412  0.2475 -0.2244
11626TIP3    H156293   0.377   3.656  12.062 -1.7238  1.3295 -1.1562
11626TIP3    H256294   0.506   3.725  12.102 -0.0687 -2.4383  0.5831
11627TIP3   OH256295   4.844   5.861  16.660 -0.2344 -0.3268 -0.0993
11627TIP3    H156296   4.846   5.955  16.642 -0.8436 -0.1230  0.7943
11627TIP3    H256297   4.773   5.827  16.606  0.1075 -0.3070 -0.5629
11628TIP3   OH256298   5.331   6.136  14.736 -0.0042 -0.4022  0.2434
11628TIP3    H156299   5.382   6.072  14.785 -0.6929 -1.5298 -0.4582
11628TIP3    H256300   5.386   6.157  14.660 -1.0166 -2.5748 -1.1908
11629TIP3   OH256301   5.740   6.614   2.258 -0.1385 -0.1205  0.1490
11629TIP3    H156302   5.677   6.682   2.281 -0.3238 -0.0078 -0.6443
11629TIP3    H256303   5.794   6.654   2.190  1.1331 -0.0318  1.1702
11630TIP3   OH256304   1.581   2.349  15.834 -0.1693 -0.4190 -0.0368
11630TIP3    H156305   1.509   2.289  15.852 -1.0514  0.1767 -1.4459
11630TIP3    H256306   1.553   2.399  15.757  0.9092  1.1952  0.5611
11631TIP3   OH256307   3.695   2.493  13.018  0.4421 -0.4836 -0.1092
11631TIP3    H156308   3.696   2.489  13.113  0.5137 -0.1191 -0.0955
11631TIP3    H256309   3.765   2.433  12.990  1.9211  1.0755  0.1143
11632TIP3   OH256310   0.141   1.190  11.918  0.0705 -0.0353  0.6979
11632TIP3    H156311   0.082   1.164  11.847  0.6161  0.8016 -0.0830
11632TIP3    H256312   0.087   1.186  11.997 -0.8735  0.1563  0.0775
11633TIP3   OH256313   5.555   6.003  10.601 -0.7877 -0.6052 -0.3634
11633TIP3    H156314   5.517   5.934  10.547 -2.3183 -2.0637  2.3677
11633TIP3    H256315   5.604   5.957  10.668  3.6460  1.2027 -2.0176
11634TIP3   OH256316   1.672   2.632   5.126 -0.3867 -0.3752  0.1076
11634TIP3    H156317   1.762   2.625   5.158 -0.7275 -0.3436  1.1081
11634TIP3    H256318   1.661   2.557   5.069  1.2148  1.1887 -2.4460
11635TIP3   OH256319   2.631   6.043  14.174 -0.8138 -0.3047 -0.3028
11635TIP3    H156320   2.669   6.068  14.258  0.4847 -0.9247 -0.6869
11635TIP3    H256321   2.544   6.010  14.196  0.6511 -3.5752  1.2555
11636TIP3   OH256322   2.801   5.214  13.245 -0.6680  0.5449 -0.0145
11636TIP3    H156323   2.715   5.207  13.287 -1.3354  0.2923 -1.3550
11636TIP3    H256324   2.811   5.132  13.198  0.7029  0.2234  0.7986
11637TIP3   OH256325   6.246   3.768   2.601 -0.1085 -0.3006  0.2608
11637TIP3    H156326   6.252   3.695   2.662  0.8774 -0.4013  0.0641
11637TIP3    H256327   6.187   3.738   2.533  0.0748 -0.8123  0.3225
11638TIP3   OH256328   1.826   6.647   2.209  0.1329 -0.2348 -0.0610
11638TIP3    H156329   1.736   6.627   2.185 -0.4551  0.1932  1.6196
11638TIP3    H256330   1.819   6.723   2.268  1.8434  1.8211 -2.2882
11639TIP3   OH256331   5.270   1.400   0.312  0.7200  0.8140  0.1172
11639TIP3    H156332   5.291   1.326   0.255  1.9260  0.7596  0.5918
11639TIP3    H256333   5.338   1.398   0.379 -2.1720 -0.8509  3.2885
11640TIP3   OH256334   0.478   5.599   3.592 -0.3238 -0.1967  0.1234
11640TIP3    H156335   0.553   5.577   3.537  0.7206  0.0714  1.3860
11640TIP3    H256336   0.466   5.523   3.649 -1.3372 -0.4385 -0.3778
11641TIP3   OH256337   0.872   0.721   0.464  0.3921  0.6443 -0.2881
11641TIP3    H156338   0.820   0.730   0.544  1.2273 -0.1213  0.3586
11641TIP3    H256339   0.820   0.663   0.408 -0.0280  0.8930 -0.1584
11642TIP3   OH256340   5.921   3.695  12.055  0.0856 -0.1599  0.5174
11642TIP3    H156341   5.926   3.762  12.123  2.2162  0.7370 -0.4071
11642TIP3    H256342   5.829   3.671  12.050 -0.3696  0.9891  2.4991
11643TIP3   OH256343   2.151   3.589  11.063  0.3569 -0.6184  0.3816
11643TIP3    H156344   2.058   3.573  11.046  0.2194  0.5834 -0.1274
11643TIP3    H256345   2.196   3.513  11.027 -0.3984 -1.0105  0.2415
11644TIP3   OH256346   1.167   1.971   3.903 -1.0317  0.5669  0.9910
11644TIP3    H156347   1.176   2.023   3.983  2.1867  2.5676 -0.4123
11644TIP3    H256348   1.255   1.936   3.888 -1.0208  1.6358 -2.4079
11645TIP3   OH256349   2.267   3.203  15.313  0.4155  0.1981  0.3200
11645TIP3    H156350   2.220   3.250  15.381 -1.3371  0.4837 -1.0303
11645TIP3    H256351   2.215   3.125  15.296  1.0970 -0.1331 -0.3467
11646TIP3   OH256352   1.837   6.111  13.860  0.1002  0.5367 -0.1036
11646TIP3    H156353   1.895   6.047  13.901  0.1737  0.1547 -0.7817
11646TIP3    H256354   1.761   6.116  13.919 -0.2928 -0.8198 -0.4686
11647TIP3   OH256355   1.611   5.157  16.905  0.0147 -0.6794 -0.3736
11647TIP3    H156356   1.685   5.168  16.965 -0.1874 -0.4723 -0.1612
11647TIP3    H256357   1.637   5.203  16.825 -1.0081  1.8105  0.6473
11648TIP3   OH256358   5.450   1.086  11.909  0.5213  0.1696 -0.5470
11648TIP3    H156359   5.381   1.026  11.936  0.5161  0.9315  1.2349
11648TIP3    H256360   5.501   1.036  11.845  0.2014 -1.5496  0.4730
11649TIP3   OH256361   3.477   0.685   6.190 -0.4093  0.6117  0.0339
11649TIP3    H156362   3.384   0.664   6.190 -0.0525 -1.0953  0.5826
11649TIP3    H256363   3.480   0.780   6.201 -2.0988  0.8679 -1.3458
11650TIP3   OH256364   1.523   4.527  13.471  0.1338 -0.1886 -0.2057
11650TIP3    H156365   1.483   4.453  13.425 -0.3760 -0.3991  0.5462
11650TIP3    H256366   1.501   4.603  13.418  0.5529 -0.5570 -0.9219
11651TIP3   OH256367   0.294   3.174  14.172  0.0976 -0.3079 -0.5077
11651TIP3    H156368   0.383   3.143  14.154  0.2666 -0.1613  0.0646
11651TIP3    H256369   0.252   3.177  14.086  0.2277 -1.6484 -0.6334
11652TIP3   OH256370   3.004   4.245  15.738  0.2750  0.0828 -0.3403
11652TIP3    H156371   3.020   4.208  15.651 -2.1978  0.1959 -0.9286
11652TIP3    H256372   2.921   4.205  15.766  0.7112  0.5037  1.7228
11653TIP3   OH256373   6.397   5.893  11.932  0.2961 -0.4296 -0.2468
11653TIP3    H156374   6.304   5.888  11.911  0.0053  0.0290  0.8719
11653TIP3    H256375   6.415   5.811  11.980  0.8611 -1.2817 -1.8372
11654TIP3   OH256376   3.986   0.623   4.870 -0.1402  0.6248  0.1674
11654TIP3    H156377   3.915   0.645   4.930 -1.1166  1.0804 -1.1083
11654TIP3    H256378   4.024   0.707   4.846  0.5403  0.4141  0.4733
11655TIP3   OH256379   4.607   3.712  12.015 -0.2105 -0.3776 -0.0890
11655TIP3    H156380   4.641   3.667  11.937  0.7650 -0.1156  0.1772
11655TIP3    H256381   4.675   3.775  12.038 -0.9203  0.2152  0.4169
11656TIP3   OH256382   2.594   0.421   4.603 -0.2807  1.3623 -0.6117
11656TIP3    H156383   2.536   0.443   4.677 -0.8627 -1.2525 -0.1873
11656TIP3    H256384   2.535   0.409   4.529 -0.2890 -0.6569 -0.3343
11657TIP3   OH256385   4.090   5.986  13.907 -0.6687 -0.3513 -0.3651
11657TIP3    H156386   4.149   6.008  13.978 -1.6433 -0.9399  0.6488
11657TIP3    H256387   4.004   5.977  13.948 -1.3645 -0.1718 -1.6928
11658TIP3   OH256388   0.084   1.107  12.281 -0.0007  0.5659  0.4452
11658TIP3    H156389   0.047   1.194  12.268 -2.2606 -0.4479 -0.3409
11658TIP3    H256390   0.067   1.088  12.374  2.2894  1.6652  1.1778
11659TIP3   OH256391   4.860   2.128  14.028  0.1000  0.0691  0.3525
11659TIP3    H156392   4.904   2.190  13.971 -1.4090  0.4950 -0.4173
11659TIP3    H256393   4.913   2.049  14.023  1.8400  1.1269  1.0293
11660TIP3   OH256394   1.678   5.597   4.879 -0.4900 -0.1134 -0.0588
11660TIP3    H156395   1.618   5.664   4.912 -0.7821  0.3947 -1.5444
11660TIP3    H256396   1.739   5.582   4.951 -1.8993 -0.0633  1.2025
11661TIP3   OH256397   1.995   0.074  13.969 -0.4621 -0.1305 -0.0041
11661TIP3    H156398   1.942   0.134  13.916  1.6560  1.5380 -0.3371
11661TIP3    H256399   2.085   0.095  13.948  0.4108 -2.1028  1.4051
11662TIP3   OH256400   0.190   2.745  15.304 -0.1917  0.6193  0.4874
11662TIP3    H156401   0.134   2.712  15.233  2.0310 -1.1753 -0.5532
11662TIP3    H256402   0.168   2.690  15.379 -2.0140  2.0293  1.0620
11663TIP3   OH256403   4.401   1.450  14.807  0.2709  0.7548 -0.0703
11663TIP3    H156404   4.431   1.527  14.759  2.9856 -0.4379 -0.5171
11663TIP3    H256405   4.311   1.436  14.777  0.7760  1.9166 -2.4069
11664TIP3   OH256406   2.836   3.128  16.137 -0.1177  0.8865 -1.0665
11664TIP3    H156407   2.919   3.175  16.135 -0.6898  1.9250 -0.9742
11664TIP3    H256408   2.799   3.149  16.223  0.0610 -0.5497 -0.6062
11665TIP3   OH256409   1.424   3.968   1.932 -0.0963 -0.3634 -0.0100
11665TIP3    H156410   1.374   4.017   1.997 -0.7829 -0.7520 -0.2397
11665TIP3    H256411   1.475   3.905   1.984 -1.7675 -1.6972  0.0898
11666TIP3   OH256412   5.311   6.280  11.054 -0.0547  0.1782  0.1108
11666TIP3    H156413   5.249   6.276  10.981 -0.2305  1.9622  0.1057
11666TIP3    H256414   5.335   6.373  11.059  0.5823 -0.0501  1.8076
11667TIP3   OH256415   4.761   0.489   3.433  0.0371 -0.8121  0.3336
11667TIP3    H156416   4.738   0.401   3.404  0.7052 -0.1842 -2.3051
11667TIP3    H256417   4.686   0.543   3.409 -0.2069 -0.5609  1.5921
11668TIP3   OH256418   5.144   4.481  10.558 -0.3217  0.4033 -0.0134
11668TIP3    H156419   5.144   4.385  10.561  0.9026  0.4146  1.9170
11668TIP3    H256420   5.171   4.502  10.469  1.3906 -1.0935  0.1013
11669TIP3   OH256421   5.894   3.797  12.859  0.8241 -0.2054 -0.2375
11669TIP3    H156422   5.831   3.730  12.883  0.8961 -0.3028 -0.3217
11669TIP3    H256423   5.979   3.761  12.885  0.6166  1.3475  3.2654
11670TIP3   OH256424   2.987   3.953  10.635 -0.0651  0.4671  0.2330
11670TIP3    H156425   2.963   3.913  10.552  1.2822  0.0019  0.0284
11670TIP3    H256426   3.058   4.013  10.612 -0.2472  0.9531  0.9304
11671TIP3   OH256427   6.692   1.500  16.732  0.4607  0.0946 -0.1217
11671TIP3    H156428   6.685   1.556  16.809  1.8552  0.5162 -0.2671
11671TIP3    H256429   6.602   1.487  16.703 -0.0453  0.3690  1.2548
11672TIP3   OH256430   6.212   5.977  12.506  0.3978 -0.2332  0.2269
11672TIP3    H156431   6.140   5.937  12.458  1.6681 -1.7279 -0.5359
11672TIP3    H256432   6.255   6.034  12.441  2.4930 -2.7286 -0.7521
11673TIP3   OH256433   5.886   0.290  14.678  0.2385 -0.2136 -0.2202
11673TIP3    H156434   5.845   0.265  14.761  0.2657  1.7756  0.4520
11673TIP3    H256435   5.811   0.307  14.620  0.2208 -1.8368 -0.7214
11674TIP3   OH256436   4.614   0.209  13.473  0.3232 -0.1886  0.3923
11674TIP3    H156437   4.688   0.175  13.422  0.7889 -0.8864  1.4766
11674TIP3    H256438   4.598   0.296  13.437  0.8735 -0.5055 -0.6740
11675TIP3   OH256439   3.104   5.170  15.866 -0.4451 -0.2899  0.1603
11675TIP3    H156440   3.114   5.254  15.823  2.9822 -0.3274  0.6463
11675TIP3    H256441   3.065   5.113  15.800  0.3331  0.8417 -1.3168
11676TIP3   OH256442   2.183   5.871  11.240  0.1161  0.0637  0.3513
11676TIP3    H156443   2.172   5.790  11.190 -2.5930  0.0233  0.8212
11676TIP3    H256444   2.155   5.848  11.329  1.3862  1.0166  1.0292
11677TIP3   OH256445   3.608   2.323  13.275  0.4604 -0.5765  0.2175
11677TIP3    H156446   3.522   2.339  13.315  0.5158 -0.9664  0.4928
11677TIP3    H256447   3.667   2.311  13.349  0.3284 -2.6267  0.0514
11678TIP3   OH256448   0.251   0.286   1.249 -0.6703  0.6810 -0.3513
11678TIP3    H156449   0.341   0.260   1.269 -1.3300  0.0802  2.1487
11678TIP3    H256450   0.213   0.209   1.206  0.1191  1.1464 -1.9690
11679TIP3   OH256451   4.816   1.598   0.628  0.5517 -0.2191 -0.6122
11679TIP3    H156452   4.829   1.660   0.699  1.3294 -1.1253  0.0523
11679TIP3    H256453   4.901   1.591   0.586 -0.0654  0.8980 -2.1676
11680TIP3   OH256454   4.739   5.658  16.845  0.1585  0.0511 -0.5954
11680TIP3    H156455   4.654   5.679  16.806  0.0158 -0.4649 -0.5776
11680TIP3    H256456   4.791   5.737  16.834 -0.3585  0.4036 -0.5179
11681TIP3   OH256457   1.569   1.078  13.563 -0.2033 -0.0771 -0.0855
11681TIP3    H156458   1.582   1.133  13.640  0.5833 -0.1795 -0.1396
11681TIP3    H256459   1.651   1.084  13.514 -1.0551  0.8130 -1.4631
11682TIP3   OH256460   2.058   6.429  16.056 -0.0260  0.1947 -0.2058
11682TIP3    H156461   2.066   6.524  16.070 -1.3834  0.2793  0.1310
11682TIP3    H256462   2.148   6.400  16.040  0.4051  1.5534 -0.4353
11683TIP3   OH256463   5.348   5.735   0.113  0.3847 -0.0994  0.0370
11683TIP3    H156464   5.334   5.644   0.138 -0.0186 -0.0468  0.0081
11683TIP3    H256465   5.419   5.765   0.170  0.5439 -0.4377  0.0223
11684TIP3   OH256466   2.995   0.872  12.047  0.6073  0.1505 -0.3142
11684TIP3    H156467   3.034   0.807  12.105 -0.8433 -0.2151  0.3070
11684TIP3    H256468   2.988   0.827  11.962 -0.6518 -0.6459  0.1839
11685TIP3   OH256469   5.360   1.908  10.826  0.4480 -0.1661 -0.1050
11685TIP3    H156470   5.321   1.994  10.839  0.0021 -0.3095 -0.4454
11685TIP3    H256471   5.451   1.926  10.804 -0.3058  0.4202 -3.1872
11686TIP3   OH256472   0.761   6.012  13.774  0.2280  0.1360  0.7744
11686TIP3    H156473   0.812   5.937  13.744 -1.3885 -0.7415  0.0447
11686TIP3    H256474   0.811   6.049  13.846  2.1347 -0.3244 -0.2600
11687TIP3   OH256475   4.283   4.952   5.156 -0.0873 -0.2060  0.8987
11687TIP3    H156476   4.375   4.960   5.182 -0.4693 -1.7133  2.8971
11687TIP3    H256477   4.257   4.865   5.184 -2.0886  0.0904  0.1342
11688TIP3   OH256478   4.860   3.936   1.853  0.0155  0.4502 -0.1106
11688TIP3    H156479   4.785   3.995   1.842 -0.2234  0.0805 -0.5327
11688TIP3    H256480   4.880   3.939   1.946  0.7142  2.0521 -0.2922
11689TIP3   OH256481   2.780   6.208   1.474  0.4468  0.0195 -0.7332
11689TIP3    H156482   2.756   6.261   1.550 -0.4337 -1.3039 -0.0666
11689TIP3    H256483   2.785   6.271   1.401 -0.7360  0.9821 -0.0068
11690TIP3   OH256484   1.189   3.290  11.976  0.6673 -0.0074 -0.0488
11690TIP3    H156485   1.156   3.372  11.938  0.4196 -0.2103 -0.2755
11690TIP3    H256486   1.276   3.279  11.938  0.0834 -0.6506 -1.2383
11691TIP3   OH256487   2.178   3.034   4.821  0.5609 -0.1367 -0.5642
11691TIP3    H156488   2.246   3.089   4.860 -1.3321  2.9654 -1.3154
11691TIP3    H256489   2.138   2.990   4.896  0.9812  0.9272  0.3138
11692TIP3   OH256490   4.894   3.003  14.476  0.1935  0.3815 -0.1592
11692TIP3    H156491   4.894   2.908  14.488 -0.3473  0.4715  0.6209
11692TIP3    H256492   4.860   3.038  14.559  0.9755  1.2859 -0.2067
11693TIP3   OH256493   1.854   2.505   5.923  0.3175 -0.0924 -0.1368
11693TIP3    H156494   1.819   2.422   5.957  1.4915 -0.4988  0.1251
11693TIP3    H256495   1.850   2.495   5.828  0.9750 -0.6931 -0.1115
11694TIP3   OH256496   1.483   4.941  12.861 -0.1271  1.0043  0.4453
11694TIP3    H156497   1.475   4.964  12.768  1.0809 -0.5825 -0.0992
11694TIP3    H256498   1.562   4.987  12.890  0.7524 -0.2138  0.0675
11695TIP3   OH256499   4.718   1.257   4.016 -0.1864  0.6097 -0.0844
11695TIP3    H156500   4.774   1.196   3.969  0.7298  1.7947 -0.5994
11695TIP3    H256501   4.740   1.244   4.108 -0.4665 -0.2602 -0.1343
11696TIP3   OH256502   4.001   2.696   4.309  0.3183  0.5376  0.3636
11696TIP3    H156503   3.990   2.664   4.219 -1.2579  0.4341  0.5682
11696TIP3    H256504   4.026   2.618   4.359  1.9101  0.7267 -0.0780
11697TIP3   OH256505   6.372   0.056   2.288 -0.1359  0.0778  0.0405
11697TIP3    H156506   6.443   0.065   2.351 -1.9012  0.0988  2.1557
11697TIP3    H256507   6.403  -0.010   2.226  2.2360  1.0746  0.0481
11698TIP3   OH256508   4.299   1.156   5.560  0.3932  0.1826  0.1783
11698TIP3    H156509   4.327   1.066   5.548  2.1142  0.6511  0.4461
11698TIP3    H256510   4.377   1.202   5.589 -0.2942  1.8855 -0.5143
11699TIP3   OH256511   0.847   3.126   3.129  0.1210 -0.1620 -0.1557
11699TIP3    H156512   0.897   3.070   3.071 -0.1824  0.2193 -0.7910
11699TIP3    H256513   0.913   3.172   3.182  0.5898  1.7125 -2.2211
11700TIP3   OH256514   4.291   3.485   5.675 -0.2792  0.0647 -0.5294
11700TIP3    H156515   4.289   3.418   5.607 -0.7463  0.5395 -0.9898
11700TIP3    H256516   4.383   3.487   5.703 -0.2143 -0.5953 -0.6728
11701TIP3   OH256517   6.725   2.538  14.209  0.6854 -0.3123 -0.2516
11701TIP3    H156518   6.796   2.500  14.261 -0.7700 -0.7397  1.5275
11701TIP3    H256519   6.688   2.464  14.161  1.1038 -0.1759 -0.7975
11702TIP3   OH256520   3.596   5.394   3.826  0.1957 -0.7654 -0.1069
11702TIP3    H156521   3.584   5.447   3.905 -2.5790  0.4074 -1.1688
11702TIP3    H256522   3.657   5.444   3.772 -0.6240  0.2437 -0.1340
11703TIP3   OH256523   2.292   0.346   2.833  0.0511  0.2440  0.0073
11703TIP3    H156524   2.211   0.384   2.802 -1.1753 -0.3671  2.2388
11703TIP3    H256525   2.334   0.415   2.884 -0.9429 -0.5139  1.9501
11704TIP3   OH256526   1.011   2.721  10.471 -0.0129  0.5141  0.0982
11704TIP3    H156527   1.010   2.798  10.415  0.9059 -1.0023 -2.1442
11704TIP3    H256528   0.919   2.692  10.474 -0.9194  3.0833  3.2368
11705TIP3   OH256529   6.038   0.745   0.193  0.1584 -0.0522  0.3411
11705TIP3    H156530   6.063   0.701   0.111  2.4899  0.9729  0.4258
11705TIP3    H256531   5.953   0.785   0.174 -0.0110 -1.0104 -1.1039
11706TIP3   OH256532   4.036   4.045   0.621 -0.0836  0.1414 -0.4101
11706TIP3    H156533   4.082   4.083   0.546  0.2299 -0.7379 -0.6756
11706TIP3    H256534   4.090   3.970   0.646 -0.3879  0.2057  0.4639
11707TIP3   OH256535   0.932   4.195   3.868 -0.4826 -0.2538  0.2734
11707TIP3    H156536   1.026   4.183   3.858 -0.6038  0.2083 -1.8153
11707TIP3    H256537   0.902   4.115   3.911  0.9481 -0.0419  1.7741
11708TIP3   OH256538   1.302   6.538  14.319 -0.0762 -0.4382 -0.3380
11708TIP3    H156539   1.265   6.554  14.232  0.0262 -0.7444 -0.4385
11708TIP3    H256540   1.240   6.580  14.379  0.6700  1.1998 -0.6370
11709TIP3   OH256541   0.496   2.126   3.547 -0.5434  0.3340  0.5088
11709TIP3    H156542   0.575   2.179   3.563 -0.2062  0.7309 -2.0796
11709TIP3    H256543   0.529   2.039   3.525 -0.9711 -0.1637  1.7505
11710TIP3   OH256544   6.488   5.275   1.999 -0.3059 -0.1600  0.3816
11710TIP3    H156545   6.468   5.365   2.025 -2.0845 -0.2202 -0.6642
11710TIP3    H256546   6.430   5.221   2.053  1.4441 -0.8046  1.7280
11711TIP3   OH256547   6.672   1.308  12.251 -0.0037  0.2334  0.2005
11711TIP3    H156548   6.673   1.241  12.183  0.0474 -0.0098  0.4400
11711TIP3    H256549   6.678   1.391  12.204 -0.1906  0.0726 -0.1009
11712TIP3   OH256550   6.381   1.378   2.033 -0.3783 -0.2698 -0.3850
11712TIP3    H156551   6.380   1.282   2.035  0.7943 -0.3316 -1.3564
11712TIP3    H256552   6.388   1.400   1.940  2.3495  0.6449 -0.0804
11713TIP3   OH256553   6.189   1.349   4.342  0.5188 -0.8997 -0.1419
11713TIP3    H156554   6.207   1.428   4.394 -1.2865 -0.6301  0.1224
11713TIP3    H256555   6.220   1.371   4.254  0.4574 -0.0730  0.0322
11714TIP3   OH256556   5.213   6.687  15.710 -0.0994  0.0747  0.4807
11714TIP3    H156557   5.131   6.641  15.728  0.0415 -0.3087  0.1537
11714TIP3    H256558   5.281   6.631  15.748 -0.0537  0.8730  1.6300
11715TIP3   OH256559   3.021   0.373  14.426 -0.3474  0.0347 -0.8534
11715TIP3    H156560   3.026   0.327  14.343  1.0596  2.2486 -2.0922
11715TIP3    H256561   3.060   0.312  14.489 -0.0790 -1.1169 -2.0844
11716TIP3   OH256562   4.621   4.642   3.931 -0.0602  0.1331 -0.0070
11716TIP3    H156563   4.623   4.730   3.894  0.9623 -0.1544 -0.6689
11716TIP3    H256564   4.711   4.613   3.928 -0.3471 -0.8446  0.4637
11717TIP3   OH256565   1.976   5.569  16.429 -0.6265  0.1029 -0.1318
11717TIP3    H156566   2.069   5.569  16.452 -1.3434  1.4440  3.3906
11717TIP3    H256567   1.954   5.477  16.420  0.6140 -0.3585  1.1692
11718TIP3   OH256568   6.721   4.975   0.640  0.1409 -0.3286 -0.1471
11718TIP3    H156569   6.783   5.013   0.577  0.1191  0.4575  0.2874
11718TIP3    H256570   6.750   5.007   0.725 -1.1884  0.5724  0.0192
11719TIP3   OH256571   0.605   3.904  14.353 -0.2945  0.4393 -0.0888
11719TIP3    H156572   0.614   3.969  14.422  1.1707  2.6966 -2.2435
11719TIP3    H256573   0.518   3.921  14.315 -1.0069 -0.6562  0.9850
11720TIP3   OH256574   0.548   5.394  12.464  0.3946 -0.1835  0.0621
11720TIP3    H156575   0.458   5.417  12.488  1.5199  1.4865  3.1990
11720TIP3    H256576   0.571   5.322  12.523  1.8200  0.9256  0.9028
11721TIP3   OH256577   4.911   1.803  13.190 -0.1266 -0.2499  0.1248
11721TIP3    H156578   4.999   1.802  13.151  0.0978 -0.6809  0.6211
11721TIP3    H256579   4.907   1.886  13.237 -0.5023  0.3972 -1.0362
11722TIP3   OH256580   0.859   2.897  14.227  0.5706 -0.1857 -0.5294
11722TIP3    H156581   0.854   2.972  14.166  0.8274  0.6129  0.4059
11722TIP3    H256582   0.840   2.821  14.172  1.8629  0.3870 -1.8444
11723TIP3   OH256583   5.349   6.528   3.880  0.4988 -0.3856 -0.1348
11723TIP3    H156584   5.286   6.456   3.880  0.6243 -0.5229 -1.2507
11723TIP3    H256585   5.431   6.487   3.850  0.5251  0.2510 -0.9561
11724TIP3   OH256586   0.146   4.971   2.739  0.7941 -0.0834  0.2254
11724TIP3    H156587   0.097   4.950   2.659  1.0590  1.7212 -0.4632
11724TIP3    H256588   0.103   5.049   2.774  0.7084 -0.8176  1.8594
11725TIP3   OH256589   6.317   1.845   2.168 -0.0199 -0.0803 -0.1282
11725TIP3    H156590   6.247   1.878   2.225 -2.4341 -1.5741 -2.0103
11725TIP3    H256591   6.372   1.922   2.151 -2.2169  1.6527  0.0824
11726TIP3   OH256592   4.405   5.029   0.758 -0.2194  0.2265 -0.7102
11726TIP3    H156593   4.387   4.989   0.843  0.1671 -1.8312 -1.5459
11726TIP3    H256594   4.378   5.120   0.768 -1.0321 -0.1943  1.3233
11727TIP3   OH256595   5.623   4.118   6.325 -0.0660 -0.4961  0.4340
11727TIP3    H156596   5.685   4.075   6.384 -1.4325 -0.9745  1.5993
11727TIP3    H256597   5.621   4.209   6.354  2.3489  0.3361 -1.6239
11728TIP3   OH256598   4.067   0.713  14.572  0.1603 -0.2060  0.0703
11728TIP3    H156599   4.007   0.767  14.520  1.0265  1.2905  0.5796
11728TIP3    H256600   4.067   0.753  14.658  1.2283 -0.7158  0.3233
11729TIP3   OH256601   2.104   6.570   1.449 -0.1389  0.0092  0.4149
11729TIP3    H156602   2.070   6.489   1.410 -0.3129 -0.5004  1.5772
11729TIP3    H256603   2.030   6.631   1.447 -0.4554 -0.3522  0.8660
11730TIP3   OH256604   6.421   6.274   3.247 -0.0897  0.0985  0.3931
11730TIP3    H156605   6.436   6.217   3.323 -0.4319  0.0312  0.4112
11730TIP3    H256606   6.332   6.305   3.257  0.3919  1.3769  0.8647
11731TIP3   OH256607   4.509   5.460   0.936  0.3608 -0.3327 -1.0686
11731TIP3    H156608   4.578   5.520   0.908  1.0252 -1.0349 -0.9706
11731TIP3    H256609   4.467   5.504   1.010 -1.3131  1.4750 -2.9570
11732TIP3   OH256610   0.536   1.736   5.170  0.0815 -0.7664  0.5455
11732TIP3    H156611   0.525   1.770   5.082  0.9039 -1.1056  0.3009
11732TIP3    H256612   0.630   1.716   5.177 -0.0177 -0.9852  1.4014
11733TIP3   OH256613   5.769   4.677  12.539 -0.3515 -0.0975  0.1676
11733TIP3    H156614   5.838   4.716  12.485 -1.1773 -1.1011 -1.6902
11733TIP3    H256615   5.724   4.752  12.578  1.3910  0.5911  0.9438
11734TIP3   OH256616   0.336   1.587   6.216  0.1402 -0.0347  0.3115
11734TIP3    H156617   0.331   1.491   6.222 -0.6890 -0.1354 -1.2956
11734TIP3    H256618   0.427   1.607   6.239  0.1036 -1.1067  1.5357
11735TIP3   OH256619   1.716   2.827  12.517 -0.1810  0.1240 -0.2206
11735TIP3    H156620   1.807   2.800  12.505 -0.4852 -0.2697 -2.0032
11735TIP3    H256621   1.711   2.914  12.479  0.0118  1.3330  2.3559
11736TIP3   OH256622   4.615   2.746  15.929 -0.3667 -0.0756  0.4198
11736TIP3    H156623   4.680   2.746  15.859  0.5440  0.5447  1.2474
11736TIP3    H256624   4.648   2.682  15.993 -1.3127 -0.8203  0.1827
11737TIP3   OH256625   4.567   3.454  15.443  0.3684 -0.0853  0.3396
11737TIP3    H156626   4.517   3.378  15.412 -1.3348  0.8558  0.6484
11737TIP3    H256627   4.577   3.439  15.537  0.1752 -0.0114  0.3721
11738TIP3   OH256628   3.022   0.781  14.672 -0.1517  0.3980 -0.1915
11738TIP3    H156629   2.968   0.712  14.634 -0.1511  0.9164 -1.1715
11738TIP3    H256630   3.069   0.739  14.744 -1.9378 -0.0323  0.7656
11739TIP3   OH256631   1.985   6.049  15.851 -0.4610 -0.0713 -0.7367
11739TIP3    H156632   2.054   6.074  15.790 -0.2901 -1.8841 -1.3704
11739TIP3    H256633   2.031   6.016  15.928 -0.6757  2.7350  0.6990
11740TIP3   OH256634   6.000   2.137  13.225  0.0267  0.5385  0.2389
11740TIP3    H156635   5.922   2.180  13.192 -0.4923  0.6443  1.5591
11740TIP3    H256636   5.980   2.116  13.316  1.1890 -0.2730  0.3323
11741TIP3   OH256637   2.219   3.368   4.349 -0.0735 -0.0425  0.1762
11741TIP3    H156638   2.188   3.297   4.406 -0.3184 -1.1024 -1.2419
11741TIP3    H256639   2.217   3.331   4.261  2.2765  0.8745 -0.3307
11742TIP3   OH256640   4.603   6.040   0.060 -0.4307  0.4201  0.2705
11742TIP3    H156641   4.576   5.991   0.138 -1.3939  1.9219  0.9407
11742TIP3    H256642   4.553   6.121   0.065  0.4859  1.1188 -1.2343
11743TIP3   OH256643   3.033   5.086   4.773  0.6294  0.3293 -0.4508
11743TIP3    H156644   3.092   5.040   4.714 -0.9138 -3.0091  0.3735
11743TIP3    H256645   3.062   5.062   4.861  0.4538  1.9527  0.0929
11744TIP3   OH256646   4.015   5.624  11.725 -0.1288 -0.1590 -0.1380
11744TIP3    H156647   3.935   5.572  11.713 -0.7177  0.6402  0.2358
11744TIP3    H256648   4.017   5.682  11.648 -0.0743  0.0355  0.0105
11745TIP3   OH256649   1.689   3.870   4.216  0.0490  0.2091  0.7201
11745TIP3    H156650   1.738   3.862   4.135 -0.7387 -2.1652  0.3923
11745TIP3    H256651   1.755   3.872   4.285  0.6556 -0.6820  0.1699
11746TIP3   OH256652   3.134   3.752  13.643  0.2011  0.0342  0.2523
11746TIP3    H156653   3.117   3.799  13.562  1.3319  1.5618  0.8708
11746TIP3    H256654   3.157   3.819  13.707 -0.8167 -1.1023  1.9185
11747TIP3   OH256655   4.228   0.177  13.484  0.1418 -0.3214 -0.1797
11747TIP3    H156656   4.167   0.202  13.553 -0.7849  0.9364 -1.3867
11747TIP3    H256657   4.309   0.154  13.530 -0.1665  1.3248  1.2893
11748TIP3   OH256658   1.067   0.511  14.790 -0.4090 -0.5350 -0.3284
11748TIP3    H156659   1.158   0.541  14.801 -0.0718 -1.6751  0.1148
11748TIP3    H256660   1.073   0.416  14.785 -1.6133 -0.6457 -0.0278
11749TIP3   OH256661   6.666   1.801  14.649  0.0403 -0.1052 -0.2770
11749TIP3    H156662   6.685   1.885  14.607 -1.5547  0.7200  0.5485
11749TIP3    H256663   6.697   1.812  14.739  0.9026 -0.8546 -0.4663
11750TIP3   OH256664   6.197   0.565  13.433  0.4171 -0.3708 -0.7066
11750TIP3    H156665   6.284   0.572  13.394  0.7152 -0.8818 -0.1617
11750TIP3    H256666   6.143   0.528  13.365  1.2403 -2.5652 -0.2393
11751TIP3   OH256667   4.089   3.898  13.625 -0.7045 -0.6766 -0.0424
11751TIP3    H156668   4.056   3.947  13.550  1.3213  0.5139 -0.2084
11751TIP3    H256669   4.106   3.964  13.692  0.8390 -1.2580  0.1876
11752TIP3   OH256670   6.223   1.414  15.827 -0.6659  0.2395 -0.4528
11752TIP3    H156671   6.280   1.490  15.835 -0.3588 -0.1535  1.7437
11752TIP3    H256672   6.149   1.444  15.774 -0.6127  2.1021  0.4679
11753TIP3   OH256673   1.019   3.913   0.118  0.0467 -0.3062 -0.5188
11753TIP3    H156674   1.016   3.979   0.187  0.2847  0.7566 -1.4970
11753TIP3    H256675   0.935   3.867   0.125  0.4807 -0.9243  1.1166
11754TIP3   OH256676   2.355   0.910  16.837  0.4542 -0.7885  0.2725
11754TIP3    H156677   2.370   0.815  16.842  0.0010 -0.8982 -0.3483
11754TIP3    H256678   2.366   0.940  16.927 -1.8722 -1.8205  0.9907
11755TIP3   OH256679   2.184   3.686  14.022  0.0746 -0.7559  0.2746
11755TIP3    H156680   2.207   3.779  14.025  0.2384 -0.8010  0.4642
11755TIP3    H256681   2.119   3.675  14.092 -1.8496 -0.2852 -1.3494
11756TIP3   OH256682   1.452   2.778  14.788  0.2687 -0.1771  0.0384
11756TIP3    H156683   1.544   2.803  14.797  0.0060  1.6878 -1.7329
11756TIP3    H256684   1.411   2.805  14.871  0.9582  0.8223  0.0659
11757TIP3   OH256685   3.399   5.294   3.148 -0.2807 -0.1356 -0.1796
11757TIP3    H156686   3.487   5.328   3.130  0.6114 -2.1923  0.0247
11757TIP3    H256687   3.364   5.353   3.215  2.1088 -0.9143  1.9106
11758TIP3   OH256688   3.363   1.071   0.667  0.6999 -1.0217 -0.6773
11758TIP3    H156689   3.404   0.986   0.680  2.7541  0.1411  0.9934
11758TIP3    H256690   3.433   1.135   0.681 -1.1705  1.0109  0.1316
11759TIP3   OH256691   2.185   0.289   1.587  0.1278 -0.5409 -0.2210
11759TIP3    H156692   2.090   0.293   1.580  0.1691  0.2001 -0.4398
11759TIP3    H256693   2.203   0.200   1.617 -0.6809 -0.4397  0.6176
11760TIP3   OH256694   1.386   3.778  15.744  0.2491 -0.5009 -0.0895
11760TIP3    H156695   1.394   3.866  15.707 -1.4093 -0.8203 -1.3049
11760TIP3    H256696   1.331   3.789  15.821  0.1257 -0.4541 -0.1839
11761TIP3   OH256697   3.734   4.884   1.912 -0.0775 -0.5697 -0.4697
11761TIP3    H156698   3.732   4.859   2.004  1.2909 -2.2222 -0.8429
11761TIP3    H256699   3.650   4.854   1.877 -0.8021  0.4798  0.2920
11762TIP3   OH256700   4.225   3.982   1.013 -0.2776 -0.5969 -0.2480
11762TIP3    H156701   4.236   3.893   1.046 -0.8827 -0.0356  1.5839
11762TIP3    H256702   4.314   4.010   0.990  0.2391 -0.9266  1.2504
11763TIP3   OH256703   3.452   0.770  11.802  0.3487 -0.0788  0.1644
11763TIP3    H156704   3.435   0.861  11.778 -0.6509 -0.5358 -0.9964
11763TIP3    H256705   3.498   0.775  11.885  2.3386  1.5643 -0.9468
11764TIP3   OH256706   3.920   2.360  16.693  0.0340 -0.1346 -0.2666
11764TIP3    H156707   3.883   2.412  16.764 -1.2715 -0.7596 -0.4507
11764TIP3    H256708   3.898   2.410  16.613  1.1037  0.3413 -0.2790
11765TIP3   OH256709   6.432   5.049  12.584  0.1232  0.5345 -0.4973
11765TIP3    H156710   6.366   5.061  12.515 -0.3165 -0.1303 -0.1974
11765TIP3    H256711   6.469   5.137  12.597 -1.8771  1.2838  0.5162
11766TIP3   OH256712   5.446   6.681  16.961  0.7207 -0.2630 -0.0546
11766TIP3    H156713   5.418   6.750  16.901 -1.9279 -0.3909  0.8788
11766TIP3    H256714   5.428   6.599  16.915  2.8952 -0.3928 -0.7599
11767TIP3   OH256715   4.172   3.811  14.152 -0.2200  0.0514 -0.3698
11767TIP3    H156716   4.170   3.903  14.176 -0.9196 -0.0196 -0.1205
11767TIP3    H256717   4.181   3.765  14.235 -3.0211 -0.2119 -0.0937
11768TIP3   OH256718   3.969   1.662   0.417 -0.8019 -0.0802 -0.2734
11768TIP3    H156719   4.059   1.646   0.392 -0.5320  2.2851 -1.0705
11768TIP3    H256720   3.975   1.720   0.493 -1.6842 -0.8793  0.4492
11769TIP3   OH256721   6.653   2.143  15.765  0.1657  0.1361  0.2754
11769TIP3    H156722   6.590   2.132  15.694 -0.9892  1.5400  1.0405
11769TIP3    H256723   6.620   2.087  15.835 -2.0012  3.0784  1.7638
11770TIP3   OH256724   5.906   4.482  10.953 -0.4309 -0.6515 -0.0414
11770TIP3    H156725   5.955   4.446  10.878 -0.1268 -0.9825  0.3092
11770TIP3    H256726   5.853   4.552  10.916 -0.7678 -1.2341 -0.6856
11771TIP3   OH256727   6.590   1.259   5.186 -0.0278  0.3893  0.0492
11771TIP3    H156728   6.537   1.209   5.249  0.4611  1.9704  1.8138
11771TIP3    H256729   6.626   1.331   5.238  0.6217  1.6223 -2.0203
11772TIP3   OH256730   0.760   5.306   3.932  0.5439 -0.0427 -0.2139
11772TIP3    H156731   0.854   5.298   3.951  0.4547  0.6207  0.5617
11772TIP3    H256732   0.745   5.400   3.922 -0.2289 -0.0374  0.7851
11773TIP3   OH256733   3.354   5.526   5.532 -0.4594 -0.4082  0.3974
11773TIP3    H156734   3.372   5.569   5.616 -0.4005  1.0021 -0.3035
11773TIP3    H256735   3.397   5.583   5.467 -2.4586 -0.1719 -0.7901
11774TIP3   OH256736   1.020   3.055   1.381 -0.3421  0.0210  0.0945
11774TIP3    H156737   0.951   3.063   1.447 -0.4341  0.5307 -0.0609
11774TIP3    H256738   0.991   2.984   1.324 -0.6327  0.0883  0.1590
11775TIP3   OH256739   1.900   3.897  14.777 -0.0128  0.2257  0.4253
11775TIP3    H156740   1.928   3.856  14.695  0.2589 -1.5570  1.3815
11775TIP3    H256741   1.977   3.894  14.833 -0.1549  1.5743  0.7387
11776TIP3   OH256742   3.496   2.121   2.772  0.4108 -0.2119  0.7252
11776TIP3    H156743   3.437   2.059   2.730  2.6640 -1.8174 -0.2208
11776TIP3    H256744   3.541   2.164   2.700  0.8912  0.5013  1.4338
11777TIP3   OH256745   3.492   0.443  16.270 -0.2222 -0.6391 -0.1862
11777TIP3    H156746   3.403   0.471  16.246 -0.1680  0.2848  0.6201
11777TIP3    H256747   3.480   0.356  16.308 -1.4889  1.0442  3.8633
11778TIP3   OH256748   2.214   5.636   0.421 -0.4165  0.7291  0.3980
11778TIP3    H156749   2.255   5.606   0.502  0.3688  1.3473  0.2426
11778TIP3    H256750   2.139   5.688   0.450 -0.3983  0.5789  0.7185
11779TIP3   OH256751   0.421   5.301  14.451 -0.0554  0.5628  0.3820
11779TIP3    H156752   0.387   5.358  14.520  1.0639  1.7692 -0.0200
11779TIP3    H256753   0.344   5.272  14.403 -0.6562  1.7888  0.5803
11780TIP3   OH256754   1.702   2.247  16.376  0.8643  0.4480  0.3063
11780TIP3    H156755   1.761   2.319  16.351  1.1426  0.4282  0.8914
11780TIP3    H256756   1.744   2.208  16.453 -0.6954  1.3890  1.6821
11781TIP3   OH256757   6.738   6.404  14.044 -0.2185 -0.4639  0.5665
11781TIP3    H156758   6.691   6.333  14.087 -0.8673 -0.1459  0.3955
11781TIP3    H256759   6.698   6.484  14.077 -2.0957 -0.2046 -2.0327
11782TIP3   OH256760   4.453   2.963  11.710 -0.1659 -0.2081 -0.0639
11782TIP3    H156761   4.366   2.926  11.697 -0.3149 -0.3417  1.1957
11782TIP3    H256762   4.443   3.056  11.691 -0.4291 -0.3330 -0.5500
11783TIP3   OH256763   3.301   5.473  12.699 -0.4478  0.0369  0.1686
11783TIP3    H156764   3.360   5.546  12.720  1.7124 -1.5610  0.0936
11783TIP3    H256765   3.286   5.482  12.605 -2.0739  1.6156  0.5288
11784TIP3   OH256766   5.123   5.918   4.320  0.5064 -0.0321  0.6520
11784TIP3    H156767   5.047   5.969   4.348 -0.0833 -0.3796 -0.2571
11784TIP3    H256768   5.086   5.848   4.266  1.5348  0.1645 -0.3323
11785TIP3   OH256769   0.099   3.249   0.498 -0.0931  0.2995  0.4749
11785TIP3    H156770   0.064   3.322   0.550 -2.5300 -0.8996  0.6632
11785TIP3    H256771   0.044   3.246   0.420  1.5872  0.1784 -0.7650
11786TIP3   OH256772   4.592   5.996   1.087  0.5469 -0.6705  0.2920
11786TIP3    H156773   4.517   5.938   1.100 -0.0723  0.3881  1.6893
11786TIP3    H256774   4.625   6.012   1.175 -0.9400  3.1800  0.3205
11787TIP3   OH256775   5.736   3.299   3.749  0.3812  0.3909 -0.3699
11787TIP3    H156776   5.683   3.343   3.815  0.7403  1.1909 -0.5995
11787TIP3    H256777   5.729   3.355   3.672  0.2083 -0.3767 -0.9178
11788TIP3   OH256778   6.188   6.613   3.785  0.2071  0.5207 -0.4794
11788TIP3    H156779   6.255   6.658   3.733 -1.2662 -0.0907 -3.1135
11788TIP3    H256780   6.106   6.656   3.760 -0.5215  0.7992  2.1379
11789TIP3   OH256781   0.110   4.127  11.033  0.1544  0.2257 -0.4796
11789TIP3    H156782   0.029   4.151  11.078 -0.2359  0.9747 -1.5295
11789TIP3    H256783   0.082   4.103  10.944  0.8525 -1.6252 -0.2353
11790TIP3   OH256784   4.693   3.510   1.519  0.0290  0.0439 -0.0204
11790TIP3    H156785   4.756   3.582   1.528 -0.1050  0.0977  0.5072
11790TIP3    H256786   4.629   3.526   1.588 -0.1074 -0.4763 -0.0252
11791TIP3   OH256787   3.208   2.991   2.229  0.0411  0.5181 -0.0803
11791TIP3    H156788   3.174   3.046   2.159 -0.8707  0.4441  0.2829
11791TIP3    H256789   3.175   2.903   2.209 -2.0910  0.8598  1.5432
11792TIP3   OH256790   4.509   4.229  14.245  0.3114 -0.1179  0.3244
11792TIP3    H156791   4.578   4.276  14.291  0.0028 -0.0842  0.7547
11792TIP3    H256792   4.428   4.268  14.278  0.0606 -0.7689  0.4824
11793TIP3   OH256793   5.657   1.099   4.782 -0.1635  0.1090  0.5716
11793TIP3    H156794   5.684   1.013   4.813  0.8318  0.3784  0.5048
11793TIP3    H256795   5.669   1.156   4.858  0.2548  0.3873  0.2993
11794TIP3   OH256796   2.851   4.987  16.384 -0.0529 -0.5383  0.2321
11794TIP3    H156797   2.859   5.081  16.366  0.1155 -0.5600  0.1895
11794TIP3    H256798   2.938   4.952  16.366  0.1459 -0.5530  1.1803
11795TIP3   OH256799   5.530   0.848   2.191  1.0415 -0.3864  0.5341
11795TIP3    H156800   5.570   0.775   2.143  1.7108 -1.7364  2.9458
11795TIP3    H256801   5.464   0.882   2.132  2.5900 -1.1362 -1.7758
11796TIP3   OH256802   2.833   3.149  11.945 -0.2188  0.2618  0.2104
11796TIP3    H156803   2.847   3.194  12.029 -0.1927  0.0024  0.3485
11796TIP3    H256804   2.856   3.214  11.879  2.1791 -0.2730  0.4206
11797TIP3   OH256805   2.669   2.054  15.144  0.1368 -0.1443  0.6727
11797TIP3    H156806   2.616   2.088  15.072 -1.9017  0.4866  2.3741
11797TIP3    H256807   2.725   1.988  15.103 -1.3440 -0.2137 -1.3971
11798TIP3   OH256808   3.682   4.300  15.771 -0.1939 -0.2805  0.0630
11798TIP3    H156809   3.723   4.376  15.729  1.0372 -1.4781 -1.0208
11798TIP3    H256810   3.588   4.320  15.771  0.2091  1.8824  1.2201
11799TIP3   OH256811   3.553   1.270  16.364 -0.0673  0.3243  0.0163
11799TIP3    H156812   3.509   1.225  16.292  1.0760 -0.2128 -0.3625
11799TIP3    H256813   3.645   1.247  16.355  0.1995  0.8060  1.2510
11800TIP3   OH256814   5.252   4.476   5.293  0.1384 -0.1011 -0.1561
11800TIP3    H156815   5.299   4.496   5.374 -0.5162  1.9187 -0.2357
11800TIP3    H256816   5.196   4.402   5.316  2.7211 -2.1282  0.1429
11801TIP3   OH256817   0.996   2.441   1.327  0.1467  0.0550 -0.6787
11801TIP3    H156818   0.997   2.537   1.336  0.1736  0.0381 -0.5162
11801TIP3    H256819   1.033   2.426   1.240  1.5698  0.1265 -0.1139
11802TIP3   OH256820   3.695   4.337  16.407 -0.2518  0.3724  0.1798
11802TIP3    H156821   3.693   4.433  16.404 -0.8303  0.3542 -1.3990
11802TIP3    H256822   3.785   4.315  16.430 -0.2716  1.2881  1.2104
11803TIP3   OH256823   2.382   0.026   4.284 -0.3384  0.1805  0.0244
11803TIP3    H156824   2.334   0.038   4.366  0.7300  0.2502  0.6571
11803TIP3    H256825   2.326   0.066   4.218 -0.7304  1.0720  0.8667
11804TIP3   OH256826   3.486   6.730  17.210 -0.1411  0.1061 -0.3437
11804TIP3    H156827   3.484   6.679  17.292 -0.0536  0.0147 -0.3973
11804TIP3    H256828   3.563   6.697  17.164  0.1873  0.6141 -0.1703
11805TIP3   OH256829   4.275   1.323   3.298  0.8663 -0.4356 -0.1552
11805TIP3    H156830   4.266   1.238   3.341 -1.5843 -0.4557 -0.5524
11805TIP3    H256831   4.232   1.385   3.358  1.3431  0.2813 -0.5350
11806TIP3   OH256832   6.368   0.026   4.589  0.1430 -0.4614 -0.0784
11806TIP3    H156833   6.280   0.061   4.580  0.7790  0.9578 -1.0011
11806TIP3    H256834   6.393   0.048   4.679 -0.2183 -0.3296 -0.0089
11807TIP3   OH256835   6.023   1.095   5.828 -0.3132 -0.3007 -0.1720
11807TIP3    H156836   6.052   1.183   5.804 -0.4857 -0.0879  0.3956
11807TIP3    H256837   5.933   1.090   5.797 -0.1672 -0.4290 -0.5818
11808TIP3   OH256838   4.705   2.393   3.375  0.3459  0.5671 -0.3280
11808TIP3    H156839   4.623   2.345   3.390  0.3796  0.1591 -1.3984
11808TIP3    H256840   4.694   2.474   3.426 -0.5579  0.3432 -0.1372
11809TIP3   OH256841   1.390   2.126  12.921 -0.2843  0.1601 -0.1777
11809TIP3    H156842   1.335   2.162  12.852  0.8161 -0.3803 -1.3950
11809TIP3    H256843   1.463   2.187  12.929 -1.9704  2.0339  2.9210
11810TIP3   OH256844   5.917   3.093   3.371  0.3436  0.2431 -0.2199
11810TIP3    H156845   5.847   3.073   3.434  0.3412  1.5158  0.2191
11810TIP3    H256846   5.989   3.035   3.395 -0.1846 -0.3260  0.0072
11811TIP3   OH256847   4.884   0.135  11.694  0.7715 -0.6184 -0.1392
11811TIP3    H156848   4.969   0.132  11.736 -0.6706 -0.8546  3.0218
11811TIP3    H256849   4.841   0.053  11.719 -0.7288 -0.0999 -0.8502
11812TIP3   OH256850   6.581   5.525   2.452 -0.5692 -0.1430 -0.2299
11812TIP3    H156851   6.565   5.606   2.405  0.7488 -0.7959 -1.9124
11812TIP3    H256852   6.524   5.460   2.410  1.3522 -0.9615 -1.7526
11813TIP3   OH256853   3.933   2.819   3.608  0.4448 -0.0256 -0.0969
11813TIP3    H156854   3.908   2.749   3.668  1.3200  1.4631  2.1656
11813TIP3    H256855   3.867   2.887   3.622  0.9966  0.5809 -0.3625
11814TIP3   OH256856   0.792   0.601  12.939 -0.1307 -0.1906  0.1050
11814TIP3    H156857   0.827   0.566  13.021  0.7788  2.5167  0.9826
11814TIP3    H256858   0.698   0.582  12.943 -0.3952  1.2278  2.5699
11815TIP3   OH256859   1.575   3.927  10.833 -0.2991 -0.4538 -0.3688
11815TIP3    H156860   1.652   3.969  10.872  0.2926 -2.8372  1.2318
11815TIP3    H256861   1.606   3.841  10.806 -2.1268 -1.0077 -0.8217
11816TIP3   OH256862   2.055   3.487   3.526 -0.5624  0.1709  0.4268
11816TIP3    H156863   2.032   3.402   3.562 -0.4893  0.3552  0.9071
11816TIP3    H256864   2.149   3.495   3.542 -1.0673  1.6694  3.2258
11817TIP3   OH256865   3.832   0.307  11.459 -0.2422  0.5286 -0.0349
11817TIP3    H156866   3.846   0.269  11.373 -1.3109 -0.6280  0.2577
11817TIP3    H256867   3.744   0.345  11.454 -0.5620 -0.0840  0.7039
11818TIP3   OH256868   5.283   3.554   0.388  0.2987  0.0766 -0.1023
11818TIP3    H156869   5.322   3.641   0.381 -0.1714  0.6532  3.1795
11818TIP3    H256870   5.343   3.505   0.444 -0.5993 -0.9960 -0.0419
11819TIP3   OH256871   1.548   0.990  16.158 -0.2861 -0.0005 -0.2647
11819TIP3    H156872   1.474   1.025  16.208 -0.4902 -1.4150  0.4721
11819TIP3    H256873   1.610   0.960  16.225 -0.2999 -1.3813 -0.8484
11820TIP3   OH256874   0.082   2.883  11.510 -0.5916 -0.3619  0.0805
11820TIP3    H156875   0.003   2.936  11.520 -1.5552 -1.5679 -0.8695
11820TIP3    H256876   0.094   2.841  11.595 -1.3835 -0.7323  0.0098
11821TIP3   OH256877   3.209   3.267   5.646  0.4740  0.1004  0.2415
11821TIP3    H156878   3.242   3.337   5.702  3.3509 -1.3438  0.5113
11821TIP3    H256879   3.277   3.253   5.581  0.0508 -2.4699  0.2302
11822TIP3   OH256880   2.916   5.900  12.162  0.1238  0.3113 -0.6270
11822TIP3    H156881   2.883   5.974  12.213  0.6235  0.8597 -1.0899
11822TIP3    H256882   2.890   5.919  12.072  1.1721  0.4684 -0.9137
11823TIP3   OH256883   5.485   3.175  17.112 -0.2405  0.4557  0.0427
11823TIP3    H156884   5.415   3.188  17.047 -1.0912 -1.7012  0.4482
11823TIP3    H256885   5.513   3.264  17.134 -0.9193  1.3109 -2.1814
11824TIP3   OH256886   0.184   2.861   4.024 -0.2829  0.0001  0.4476
11824TIP3    H156887   0.115   2.842   4.088  0.5289 -1.0703  1.0349
11824TIP3    H256888   0.265   2.834   4.068  0.3682 -0.0560 -0.7646
11825TIP3   OH256889   4.891   5.187   2.286 -0.2855  0.5809 -0.1813
11825TIP3    H156890   4.923   5.176   2.197 -0.2174 -1.1961  0.0288
11825TIP3    H256891   4.969   5.174   2.341 -0.9935 -2.4419  0.2731
11826TIP3   OH256892   1.463   2.163   3.481 -0.1213  0.2143 -0.3024
11826TIP3    H156893   1.488   2.197   3.567 -0.7234 -0.8707  0.3217
11826TIP3    H256894   1.415   2.082   3.500 -0.5030  0.1022 -1.6506
11827TIP3   OH256895   4.082   2.821   6.065 -0.2542  0.4224 -0.6103
11827TIP3    H156896   4.033   2.740   6.049 -0.1590  0.0094  1.0665
11827TIP3    H256897   4.023   2.874   6.119  1.1274 -0.1396  1.5621
11828TIP3   OH256898   2.168   1.200  15.653 -0.0127  0.4211 -0.7078
11828TIP3    H156899   2.252   1.199  15.699 -1.5326 -1.3921  2.3381
11828TIP3    H256900   2.164   1.114  15.611 -0.7227  0.1431 -0.0724
11829TIP3   OH256901   6.434   2.485   4.485 -0.4340 -0.0817  0.2508
11829TIP3    H156902   6.406   2.470   4.395  0.4041 -0.9254  0.0993
11829TIP3    H256903   6.515   2.536   4.477 -1.0944  1.0490  0.6025
11830TIP3   OH256904   5.023   1.277   4.991  0.0034  0.5900  0.1198
11830TIP3    H156905   5.107   1.281   4.945  0.1953 -0.5799  0.3420
11830TIP3    H256906   4.972   1.349   4.954  0.9238  1.0063 -0.3682
11831TIP3   OH256907   2.546   4.665  14.378 -0.3639 -0.1799  0.0729
11831TIP3    H156908   2.601   4.659  14.456 -1.3013 -1.9698  0.6497
11831TIP3    H256909   2.475   4.724  14.403  0.6626  1.2508 -0.3021
11832TIP3   OH256910   0.054   6.698  16.440  0.0184 -0.0921  0.4442
11832TIP3    H156911   0.030   6.615  16.398  1.2462  0.6488 -1.9002
11832TIP3    H256912   0.008   6.765  16.389  1.2416  0.8342  0.5118
11833TIP3   OH256913   1.468   0.274   2.992  0.3205  0.2883 -0.7792
11833TIP3    H156914   1.448   0.256   2.901 -0.5570  1.0869 -0.7552
11833TIP3    H256915   1.428   0.202   3.041 -0.9628  0.9030 -0.8813
11834TIP3   OH256916   4.364   0.111  15.613 -0.5891  0.2837 -0.0535
11834TIP3    H156917   4.434   0.059  15.574 -0.3169  1.4961 -1.2359
11834TIP3    H256918   4.409   0.175  15.668 -0.6853  1.5235 -1.3698
11835TIP3   OH256919   0.729   3.959   5.250 -0.0055  0.5470  0.0091
11835TIP3    H156920   0.820   3.944   5.275  0.0911 -2.1828 -1.5687
11835TIP3    H256921   0.679   3.898   5.304 -0.2859 -1.6623 -2.5283
11836TIP3   OH256922   3.072   1.573   6.171  0.3815  0.8501  0.1335
11836TIP3    H156923   3.120   1.573   6.253  0.9831  0.0068 -0.2093
11836TIP3    H256924   2.992   1.523   6.190  0.8104  0.1259  0.0428
11837TIP3   OH256925   1.400   4.583   0.904  0.4356 -0.0608  0.2904
11837TIP3    H156926   1.437   4.671   0.916 -0.1111  0.0852  0.9788
11837TIP3    H256927   1.351   4.589   0.822 -0.1792  0.4902  0.6865
11838TIP3   OH256928   0.153   6.488  16.871 -0.0845 -0.5504  0.2718
11838TIP3    H156929   0.107   6.427  16.928 -2.4106  1.3512  0.5671
11838TIP3    H256930   0.211   6.537  16.930 -2.0939  1.0457  1.0480
11839TIP3   OH256931   1.165   4.550   0.289  0.3898  0.0163  0.1771
11839TIP3    H156932   1.166   4.598   0.207  1.3948  0.5619  0.5046
11839TIP3    H256933   1.076   4.513   0.293  0.5369 -0.6212 -1.4825
11840TIP3   OH256934   0.797   4.638   5.836 -0.1015 -0.4140 -0.2180
11840TIP3    H156935   0.730   4.630   5.904 -1.1919  0.0139 -1.1981
11840TIP3    H256936   0.758   4.597   5.759  0.5527  0.2883 -0.9489
11841TIP3   OH256937   1.573   5.725  15.858  0.1717  0.0722  0.3864
11841TIP3    H156938   1.615   5.722  15.773  1.7424  1.2158  1.0725
11841TIP3    H256939   1.621   5.792  15.907 -1.3478  0.1923  1.8252
11842TIP3   OH256940   5.593   3.117  15.968 -0.1536 -0.1387 -0.3240
11842TIP3    H156941   5.661   3.160  15.915 -2.5758  0.7177 -3.0052
11842TIP3    H256942   5.617   3.137  16.058  3.5006 -0.5269 -1.0703
11843TIP3   OH256943   4.244   4.021  11.409  0.2619  0.1272 -0.2981
11843TIP3    H156944   4.214   3.930  11.411  1.4066 -0.2640  1.6085
11843TIP3    H256945   4.184   4.067  11.467  0.9349  0.1414  0.4024
11844TIP3   OH256946   6.754   2.322   6.015  0.0674 -0.2755  0.4982
11844TIP3    H156947   6.762   2.270   5.936  1.4947  1.0156 -0.2589
11844TIP3    H256948   6.841   2.318   6.056  0.6332  2.3799 -0.2179
11845TIP3   OH256949   5.165   4.755   2.533  0.0777  0.8724  0.4289
11845TIP3    H156950   5.151   4.735   2.626 -1.0801 -0.1526  0.0653
11845TIP3    H256951   5.089   4.717   2.489  0.9812  0.6956 -1.0269
11846TIP3   OH256952   4.407   3.023   6.645 -0.5758  0.6272  0.1007
11846TIP3    H156953   4.494   3.027   6.683 -0.7647  1.5804  0.4882
11846TIP3    H256954   4.382   2.931   6.650  0.2618  0.4032  0.3119
11847TIP3   OH256955   5.105   5.090   2.464 -0.0671 -0.6825  0.0403
11847TIP3    H156956   5.142   5.043   2.538 -1.0683 -0.4684  0.6960
11847TIP3    H256957   5.151   5.056   2.388  1.0534 -0.8208  0.7710
11848TIP3   OH256958   4.374   3.475  16.142 -0.6232 -0.6712 -0.0939
11848TIP3    H156959   4.468   3.475  16.158 -0.5700 -1.7176 -0.2737
11848TIP3    H256960   4.364   3.427  16.059 -1.3052 -0.6000 -0.0611
11849TIP3   OH256961   3.134   3.581   1.945  0.2096  0.4374  0.6445
11849TIP3    H156962   3.044   3.595   1.915  0.1575  0.6385  0.8969
11849TIP3    H256963   3.127   3.569   2.039  0.4163  0.1705  0.6261
11850TIP3   OH256964   1.009   4.544   5.255 -0.3536 -0.6744 -0.6551
11850TIP3    H156965   0.934   4.602   5.238  1.0980  1.0731 -1.5180
11850TIP3    H256966   0.988   4.463   5.208 -2.2389 -0.7267  0.1982
11851TIP3   OH256967   1.512   5.386   1.193  0.0007  0.2674 -0.0681
11851TIP3    H156968   1.494   5.406   1.285  2.5697  1.8721  0.1657
11851TIP3    H256969   1.504   5.291   1.187 -0.3111  0.1426  1.7773
11852TIP3   OH256970   5.712   3.291   1.617  0.1613 -0.5854 -0.7808
11852TIP3    H156971   5.799   3.251   1.619 -0.0707 -1.0570  0.4689
11852TIP3    H256972   5.721   3.365   1.557  1.6216 -0.1731 -0.0708
11853TIP3   OH256973   4.419   5.342   4.229 -0.2712  0.3341  0.0308
11853TIP3    H156974   4.408   5.330   4.134 -1.1228 -1.3560  0.2956
11853TIP3    H256975   4.354   5.408   4.252 -0.2683  0.5354 -0.5210
11854TIP3   OH256976   3.582   5.799   5.713 -0.3343  0.2866  0.5564
11854TIP3    H156977   3.603   5.853   5.789  0.5446  0.5265  0.1649
11854TIP3    H256978   3.530   5.856   5.656  0.5767  0.7400  0.1530
11855TIP3   OH256979   1.640   4.952  11.789  0.1504  0.1640 -0.0875
11855TIP3    H156980   1.669   4.873  11.835  1.2496  0.6479  0.0911
11855TIP3    H256981   1.714   4.976  11.734  0.4157  1.8699  0.9293
11856TIP3   OH256982   0.993   3.028   5.841  0.3053  0.1789  0.1326
11856TIP3    H156983   0.920   3.079   5.807 -1.5600 -3.1470 -1.4395
11856TIP3    H256984   0.963   2.994   5.925 -0.4700 -1.9113 -0.9103
11857TIP3   OH256985   5.368   2.514  16.768  0.5523 -0.2038 -0.4397
11857TIP3    H156986   5.382   2.491  16.859  1.7695 -1.3812 -0.8818
11857TIP3    H256987   5.307   2.587  16.770  0.8991  0.0735  1.3356
11858TIP3   OH256988   6.781   4.437   4.817 -0.1440 -0.3331 -0.0956
11858TIP3    H156989   6.781   4.344   4.796 -0.6084 -0.9382  2.2799
11858TIP3    H256990   6.692   4.467   4.795  0.0874 -0.3399 -1.1182
11859TIP3   OH256991   3.909   6.188   0.608  0.0661  0.2461  0.0895
11859TIP3    H156992   3.952   6.121   0.661  0.2280  0.9890  0.9132
11859TIP3    H256993   3.977   6.218   0.547  0.6669  1.2081  1.1935
11860TIP3   OH256994   5.409   1.831  13.799  0.2991 -0.2305  0.3479
11860TIP3    H156995   5.371   1.918  13.790 -0.1039 -0.4739 -0.4920
11860TIP3    H256996   5.467   1.837  13.875 -0.0086  0.6606  0.5239
11861TIP3   OH256997   3.173   0.683  11.501 -0.4070 -0.1588  0.2745
11861TIP3    H156998   3.138   0.713  11.417 -2.5482  0.3503  1.2754
11861TIP3    H256999   3.266   0.668  11.484 -0.0820  2.8629 -1.4121
11862TIP3   OH257000   5.737   0.181  13.905 -0.8309 -0.5415 -0.5721
11862TIP3    H157001   5.771   0.254  13.853 -0.4749  0.0387  0.4573
11862TIP3    H257002   5.779   0.191  13.991 -2.0177 -1.0206  0.0775
11863TIP3   OH257003   5.774   5.248   0.741  0.4137  0.0755 -0.1164
11863TIP3    H157004   5.721   5.180   0.700 -0.4192  0.2741  0.6025
11863TIP3    H257005   5.837   5.274   0.673 -0.8228  0.2985 -1.2059
11864TIP3   OH257006   0.464   0.173   4.062 -0.4050 -0.4384  0.1889
11864TIP3    H157007   0.461   0.108   3.992  0.0365 -2.1492  1.6728
11864TIP3    H257008   0.553   0.209   4.058 -0.4635 -0.3369 -0.2636
11865TIP3   OH257009   3.613   5.401  16.527  0.4147 -0.0128  0.1404
11865TIP3    H157010   3.592   5.315  16.564 -0.5359  0.3201  0.3771
11865TIP3    H257011   3.558   5.463  16.574  2.2252  0.9619  1.1021
11866TIP3   OH257012   4.061   2.286  16.942  0.5977  0.6474 -0.0805
11866TIP3    H157013   4.040   2.331  16.860  1.5735  1.2972  0.0133
11866TIP3    H257014   4.042   2.350  17.010 -0.1405  0.1343  0.2026
11867TIP3   OH257015   5.950   5.569  11.712  0.4885 -0.1974  0.0128
11867TIP3    H157016   5.966   5.659  11.683  1.7562  0.1066  1.5218
11867TIP3    H257017   5.862   5.549  11.680  0.6296  1.1548 -1.3415
11868TIP3   OH257018   1.603   0.410   5.253 -0.0644  0.0288  0.1280
11868TIP3    H157019   1.576   0.339   5.312  1.1320 -0.5416  0.0237
11868TIP3    H257020   1.556   0.487   5.285  1.0726 -0.0882  2.2877
11869TIP3   OH257021   6.194   1.622  12.355 -0.4241  0.3747 -0.2131
11869TIP3    H157022   6.149   1.548  12.396  0.0397  0.4787  0.4998
11869TIP3    H257023   6.224   1.676  12.429 -2.4166  2.3106 -0.7194
11870TIP3   OH257024   2.501   0.117   1.672 -0.4824 -0.0108  0.0871
11870TIP3    H157025   2.405   0.114   1.667 -0.5075 -1.2351  0.8194
11870TIP3    H257026   2.522   0.209   1.688 -1.5691  0.1645  0.5643
11871TIP3   OH257027   3.434   5.911  11.401  0.0274 -0.0518  0.6378
11871TIP3    H157028   3.414   5.842  11.463  3.0800 -2.4231 -0.7554
11871TIP3    H257029   3.393   5.883  11.319  1.5297 -0.4932 -0.0142
11872TIP3   OH257030   2.493   2.865  16.970  0.4213  0.2633 -0.4210
11872TIP3    H157031   2.558   2.842  16.903  0.7014 -1.6175  0.4170
11872TIP3    H257032   2.539   2.925  17.028  2.5889 -3.1919  1.7926
11873TIP3   OH257033   1.154   5.949   5.753 -0.2246 -0.3553  0.2592
11873TIP3    H157034   1.162   5.906   5.838  1.0801  2.2169  1.5792
11873TIP3    H257035   1.245   5.968   5.727 -0.6492 -0.2380 -1.2433
11874TIP3   OH257036   3.371   2.017  11.073  0.6174 -0.2308 -0.0961
11874TIP3    H157037   3.443   1.956  11.060  0.6375  0.1113 -1.8503
11874TIP3    H257038   3.384   2.084  11.006  0.0278  1.1740  1.1294
11875TIP3   OH257039   1.889   6.127   1.911 -0.2202 -0.5613  0.2311
11875TIP3    H157040   1.924   6.048   1.871 -1.9523 -1.2476  0.0122
11875TIP3    H257041   1.921   6.125   2.001  0.7916 -0.8279 -0.1227
11876TIP3   OH257042   3.885   1.784   3.983 -0.1667  0.2161  0.2113
11876TIP3    H157043   3.820   1.798   4.051  0.9108  3.1807  0.7657
11876TIP3    H257044   3.967   1.813   4.021  0.6077  1.3025 -2.0935
11877TIP3   OH257045   6.412   4.950  11.353 -0.2945  0.4884 -0.3012
11877TIP3    H157046   6.440   4.981  11.267 -0.1243 -0.2403 -0.5147
11877TIP3    H257047   6.335   5.003  11.374  0.4992  1.6729 -0.2520
11878TIP3   OH257048   1.652   6.061  15.651  0.3471 -0.2502 -1.1410
11878TIP3    H157049   1.716   6.110  15.598  1.1296  0.9591  0.8073
11878TIP3    H257050   1.568   6.098  15.625  0.5179 -0.8932 -2.7503
11879TIP3   OH257051   2.030   3.363  13.169 -0.1496 -0.0282  0.1329
11879TIP3    H157052   1.963   3.375  13.102  2.0220 -0.0817 -2.1495
11879TIP3    H257053   2.046   3.269  13.170 -1.2489 -0.2459  1.9230
11880TIP3   OH257054   5.048   3.215  14.402  0.2153  0.2335  0.4187
11880TIP3    H157055   5.002   3.277  14.459 -1.4262 -0.8366  0.3315
11880TIP3    H257056   5.002   3.132  14.415  1.0766 -0.5001 -0.9828
11881TIP3   OH257057   0.241   4.931  13.613  0.4096  0.1855 -0.5383
11881TIP3    H157058   0.292   4.865  13.662 -1.7911 -0.8387  0.5245
11881TIP3    H257059   0.207   4.883  13.538 -0.8760  0.1705  0.0275
11882TIP3   OH257060   4.680   6.019   1.862  0.4015 -0.8366 -0.7578
11882TIP3    H157061   4.621   6.028   1.788  1.1215 -0.6799 -1.3290
11882TIP3    H257062   4.651   5.941   1.908 -0.2199 -0.7791 -1.0462
11883TIP3   OH257063   0.533   5.842  15.171 -0.0831 -0.0597 -0.4572
11883TIP3    H157064   0.569   5.930  15.157 -1.5106  0.9415  1.6535
11883TIP3    H257065   0.458   5.837  15.111 -0.9429  0.8061  0.5148
11884TIP3   OH257066   1.276   0.382   3.825  0.2764  0.4540 -0.3448
11884TIP3    H157067   1.293   0.309   3.885  1.1189  0.8512 -0.0815
11884TIP3    H257068   1.199   0.425   3.860 -0.3307 -0.4000 -0.5932
11885TIP3   OH257069   3.651   5.621  13.013  0.5380 -0.5370  0.1779
11885TIP3    H157070   3.712   5.603  13.084 -0.2382  0.0736  1.0125
11885TIP3    H257071   3.692   5.693  12.964 -0.3404  1.1258  1.8051
11886TIP3   OH257072   3.976   4.431  16.398  0.3526 -0.4176 -0.2145
11886TIP3    H157073   4.060   4.421  16.444  0.2566 -2.2156 -0.3430
11886TIP3    H257074   3.976   4.359  16.334 -0.1659  1.1212 -2.0326
11887TIP3   OH257075   1.249   4.993   4.645 -0.0416  0.4989 -0.3603
11887TIP3    H157076   1.254   4.916   4.701 -1.6048 -0.1499 -1.0671
11887TIP3    H257077   1.310   5.056   4.685  0.2965 -0.6258  0.9473
11888TIP3   OH257078   1.507   3.970  11.336 -0.2861 -0.0129  0.2159
11888TIP3    H157079   1.527   3.880  11.362 -0.6448  0.3260  1.7432
11888TIP3    H257080   1.452   4.004  11.407 -2.2923  0.6101 -1.5182
11889TIP3   OH257081   4.058   2.070  13.219 -0.5041  0.0261 -0.2775
11889TIP3    H157082   4.035   1.992  13.269 -0.5156  1.3498  1.9276
11889TIP3    H257083   3.978   2.093  13.171 -0.9714 -0.4768  0.2483
11890TIP3   OH257084   6.597   3.292  15.804  0.3804 -0.1405 -0.5571
11890TIP3    H157085   6.547   3.316  15.882 -0.0478  1.6616 -1.3266
11890TIP3    H257086   6.532   3.255  15.744  1.2341 -4.9379  1.1103
11891TIP3   OH257087   6.618   4.209   0.871 -0.2191  0.5755 -0.3934
11891TIP3    H157088   6.604   4.244   0.959 -0.7278  0.5586 -0.4648
11891TIP3    H257089   6.622   4.287   0.815 -0.8562  0.5534 -0.4830
11892TIP3   OH257090   1.887   0.341   5.885  0.3024  0.4649  0.2320
11892TIP3    H157091   1.872   0.384   5.801  0.5689 -0.2782 -0.2070
11892TIP3    H257092   1.869   0.249   5.869  0.0344  0.3598  1.0800
11893TIP3   OH257093   1.104   2.467   1.083 -0.1505  0.4200  0.3884
11893TIP3    H157094   1.123   2.487   0.992  0.9898  2.0305  0.9260
11893TIP3    H257095   1.184   2.425   1.115 -1.1492 -1.6884  0.2644
11894TIP3   OH257096   6.045   1.005  15.775 -0.2287 -0.2457 -0.3653
11894TIP3    H157097   6.094   1.083  15.800 -0.1758 -0.5854  0.6404
11894TIP3    H257098   6.046   1.005  15.680 -0.4892  1.1495 -0.3893
11895TIP3   OH257099   4.605   0.597   5.462  0.2888 -0.2793  0.0508
11895TIP3    H157100   4.599   0.595   5.558  1.0779 -0.5267  0.1002
11895TIP3    H257101   4.539   0.534   5.433 -2.9063  2.6710  0.2506
11896TIP3   OH257102   3.633   4.004  12.501  0.1909  0.2891 -0.1287
11896TIP3    H157103   3.575   4.080  12.502 -0.2468 -0.0427  0.4576
11896TIP3    H257104   3.641   3.978  12.593  2.1939  1.0119 -0.0454
11897TIP3   OH257105   2.389   3.476  14.796  0.2665 -0.1494  0.0245
11897TIP3    H157106   2.303   3.467  14.755  0.0508  1.6637  0.0310
11897TIP3    H257107   2.446   3.417  14.746 -0.4507  0.4325 -1.5167
11898TIP3   OH257108   5.497   6.753   5.908  0.4769 -0.2183 -0.4938
11898TIP3    H157109   5.491   6.784   5.818  1.2423  1.2952 -0.0506
11898TIP3    H257110   5.467   6.827   5.961  0.8045 -0.7965  0.5222
11899TIP3   OH257111   3.232   2.035   3.640 -0.2461 -0.0054  0.2441
11899TIP3    H157112   3.193   2.016   3.726 -0.5930 -0.2853  0.0255
11899TIP3    H257113   3.158   2.043   3.581  0.0589 -1.4570 -0.3647
11900TIP3   OH257114   2.784   1.665   6.374  0.7175 -0.0975 -0.3915
11900TIP3    H157115   2.706   1.663   6.430  0.1820  2.2211 -0.9605
11900TIP3    H257116   2.784   1.580   6.331 -2.0983  0.1798 -1.1306
11901TIP3   OH257117   6.052   1.174   2.463  0.0400 -0.0439  0.0496
11901TIP3    H157118   6.039   1.133   2.549  2.1461  1.8806  1.3816
11901TIP3    H257119   5.977   1.232   2.452 -0.5627 -0.7602  0.2534
11902TIP3   OH257120   5.687   3.537  15.831  0.2461 -0.8678 -0.3163
11902TIP3    H157121   5.769   3.561  15.788 -0.0980  1.7242  0.3199
11902TIP3    H257122   5.712   3.467  15.891  2.2896  0.6015  0.6822
11903TIP3   OH257123   4.021   1.251  15.338  0.0048  0.3299  0.3625
11903TIP3    H157124   3.968   1.239  15.259 -0.9765 -0.1755  1.0790
11903TIP3    H257125   3.964   1.223  15.410  1.9201 -2.3358  1.0138
11904TIP3   OH257126   5.082   4.325  13.188 -0.5469 -0.4075  0.2930
11904TIP3    H157127   5.018   4.393  13.209  1.6916  2.3984 -1.1644
11904TIP3    H257128   5.137   4.318  13.266 -0.4680 -0.1666  0.2581
11905TIP3   OH257129   4.090   1.641  14.607  0.0798 -0.7168  0.1320
11905TIP3    H157130   4.167   1.665  14.557  0.6720 -0.2190  1.2656
11905TIP3    H257131   4.018   1.686  14.563  0.8705  1.4855  0.9411
11906TIP3   OH257132   4.636   0.092   5.462  0.5995 -0.4992 -0.3792
11906TIP3    H157133   4.665   0.040   5.536 -0.5522  0.3551  0.7108
11906TIP3    H257134   4.563   0.144   5.495  0.5885  0.5335 -1.8806
11907TIP3   OH257135   2.425   4.829   3.337  0.5622  0.0011 -0.8084
11907TIP3    H157136   2.398   4.761   3.275  1.8069  0.1262 -1.5284
11907TIP3    H257137   2.358   4.827   3.406  0.0115 -1.2243 -1.3473
11908TIP3   OH257138   3.656   1.059  15.142  0.1894  0.2054 -0.1725
11908TIP3    H157139   3.565   1.060  15.111  0.6173 -0.4673 -1.5312
11908TIP3    H257140   3.708   1.045  15.062  1.5077  0.9162  0.5340
11909TIP3   OH257141   3.412   6.621  11.713  0.0833  0.4050 -0.1926
11909TIP3    H157142   3.445   6.544  11.667 -2.5900 -1.5856  0.9325
11909TIP3    H257143   3.419   6.599  11.806 -2.7479  0.4591  0.1417
11910TIP3   OH257144   4.643   2.948  14.216  0.3977  0.1130 -0.3816
11910TIP3    H157145   4.730   2.924  14.247  1.3479  1.1661 -2.1430
11910TIP3    H257146   4.637   2.912  14.128 -0.7599  0.4856 -0.4775
11911TIP3   OH257147   4.574   3.684  17.084  0.4840  0.4116 -0.5000
11911TIP3    H157148   4.668   3.701  17.078  1.4933 -4.0310 -0.6452
11911TIP3    H257149   4.564   3.624  17.157 -2.2521  0.5611 -0.6309
11912TIP3   OH257150   6.272   1.164   4.836 -0.0547 -0.2531  0.4560
11912TIP3    H157151   6.302   1.073   4.839  3.0732  0.6700  0.7945
11912TIP3    H257152   6.236   1.175   4.748  1.6203 -1.2842 -0.4019
11913TIP3   OH257153   3.749   0.317  13.357 -0.0635  0.4126 -0.2430
11913TIP3    H157154   3.660   0.281  13.361  0.0804 -0.1049 -1.2998
11913TIP3    H257155   3.749   0.371  13.278  1.0011 -0.9047 -1.1996
11914TIP3   OH257156   1.019   3.528  12.488 -0.1333  0.0602 -0.5257
11914TIP3    H157157   0.987   3.612  12.456 -0.5936  0.7223  1.5287
11914TIP3    H257158   1.105   3.547  12.525 -0.6896 -0.0918  0.9384
11915TIP3   OH257159   3.990   2.957  12.875 -0.2697 -0.4146  0.3903
11915TIP3    H157160   4.042   2.923  12.802  1.0867  1.0442  0.6270
11915TIP3    H257161   4.023   2.910  12.951  2.1885  1.8221  0.8488
11916TIP3   OH257162   0.696   4.070  15.511 -0.3540 -0.3529 -0.5126
11916TIP3    H157163   0.651   4.137  15.459  0.4430 -1.6923 -3.1531
11916TIP3    H257164   0.629   4.003  15.525 -0.6630  0.1634  0.5327
11917TIP3   OH257165   1.273   4.219  14.982  0.1990  0.4339  0.0970
11917TIP3    H157166   1.218   4.286  14.942  0.4127  0.2105 -0.5716
11917TIP3    H257167   1.343   4.204  14.920  0.4345 -0.0513  0.4684
11918TIP3   OH257168   0.194   2.867   2.363  0.2356  0.2024  0.4001
11918TIP3    H157169   0.128   2.809   2.401 -0.0993  0.4582  0.2151
11918TIP3    H257170   0.268   2.809   2.342 -0.1694 -0.1974  0.0409
11919TIP3   OH257171   5.350   0.805   3.705 -0.2991  0.1144 -0.1254
11919TIP3    H157172   5.270   0.810   3.758  0.1963 -0.1705  0.6816
11919TIP3    H257173   5.392   0.723   3.734  1.2604  1.2097  0.9211
11920TIP3   OH257174   6.046   0.605   5.137  0.1372 -0.3266 -0.1212
11920TIP3    H157175   6.037   0.684   5.190 -0.7534 -0.8762  0.5780
11920TIP3    H257176   6.138   0.605   5.110  0.4169  0.3785  0.7641
11921TIP3   OH257177   0.400   4.779   4.634  0.6984 -0.1324  0.0990
11921TIP3    H157178   0.322   4.768   4.689  0.2401  1.7372 -0.1124
11921TIP3    H257179   0.366   4.818   4.553  1.5588 -1.5139 -0.9735
11922TIP3   OH257180   2.601   6.317   2.980  0.0397  0.0481 -0.2261
11922TIP3    H157181   2.578   6.286   2.892 -1.2647  0.0936  0.0696
11922TIP3    H257182   2.696   6.308   2.985  0.3133  1.2781 -2.1108
11923TIP3   OH257183   6.095   4.384  12.353 -0.7894  0.4461 -0.3594
11923TIP3    H157184   6.045   4.433  12.288  0.2006  0.9240 -0.7665
11923TIP3    H257185   6.066   4.419  12.437 -1.1299  0.7243 -0.5895
11924TIP3   OH257186   0.724   3.801   4.994 -0.4309 -0.2736  0.0441
11924TIP3    H157187   0.692   3.863   5.059 -0.3377 -0.9812  0.7894
11924TIP3    H257188   0.665   3.726   5.001  0.1517 -0.7487 -0.0063
11925TIP3   OH257189   0.714   0.175  11.976  0.7977  0.3647  0.2993
11925TIP3    H157190   0.735   0.125  11.897  1.4487 -0.0655  0.7346
11925TIP3    H257191   0.799   0.195  12.015  0.4778  0.3813  1.0042
11926TIP3   OH257192   2.970   3.657   5.320 -0.1124 -0.2459 -0.1616
11926TIP3    H157193   3.026   3.650   5.243  0.5974  0.0678  0.3136
11926TIP3    H257194   2.890   3.611   5.296  0.6714 -1.4557 -0.5545
11927TIP3   OH257195   0.560   4.247   3.236  0.0838 -0.1363  0.0668
11927TIP3    H157196   0.585   4.169   3.286  2.2791  0.5399  0.1360
11927TIP3    H257197   0.643   4.285   3.208 -0.9156  2.2384  0.1049
11928TIP3   OH257198   3.985   2.481  15.695  1.1153 -0.3330 -0.1521
11928TIP3    H157199   3.967   2.570  15.664 -1.1650 -1.2372 -1.7146
11928TIP3    H257200   3.911   2.459  15.750  1.8795 -1.1429  0.5844
11929TIP3   OH257201   2.267   2.546  16.235  0.0645  0.1876  0.2131
11929TIP3    H157202   2.178   2.555  16.269 -0.3075  2.0374 -1.0922
11929TIP3    H257203   2.275   2.453  16.212 -1.8758  0.1589 -0.5160
11930TIP3   OH257204   4.590   0.505   4.440  0.4264  0.1136  0.1166
11930TIP3    H157205   4.511   0.533   4.394  1.9706  2.0435 -1.5650
11930TIP3    H257206   4.575   0.530   4.531 -0.3579  1.8302 -0.4330
11931TIP3   OH257207   2.744   0.745  15.473 -0.9017  0.2934  0.0827
11931TIP3    H157208   2.777   0.707  15.555 -3.0781 -0.6506  0.5927
11931TIP3    H257209   2.742   0.840  15.490  2.9106  0.6480 -0.5720
11932TIP3   OH257210   1.957   4.672  11.189 -0.0708 -0.2732 -0.0295
11932TIP3    H157211   1.940   4.679  11.095  0.7320  0.8787 -0.1095
11932TIP3    H257212   1.992   4.583  11.200  0.1242 -0.3114 -0.8673
11933TIP3   OH257213   0.996   3.063  10.548 -0.6273  0.2195  0.5737
11933TIP3    H157214   1.013   2.978  10.588 -1.2265 -0.5553 -0.7540
11933TIP3    H257215   0.922   3.099  10.597 -0.0745  0.2174  1.4423
11934TIP3   OH257216   3.071   1.755  16.033 -0.1401  0.0769 -0.0907
11934TIP3    H157217   3.136   1.694  15.997 -1.7324 -1.6148 -0.2214
11934TIP3    H257218   3.048   1.719  16.118 -0.3351  1.1219  0.3183
11935TIP3   OH257219   1.352   4.936  11.991 -0.4879 -0.6968  0.5452
11935TIP3    H157220   1.331   4.891  12.073 -0.7160 -1.4075  0.1066
11935TIP3    H257221   1.431   4.986  12.011 -1.2745  0.1876  1.5686
11936TIP3   OH257222   6.475   4.505   0.055  0.4804  0.3146 -0.0722
11936TIP3    H157223   6.432   4.573   0.107  0.3401  0.0127  0.2078
11936TIP3    H257224   6.562   4.541   0.035  0.7116  0.2285  0.7718
11937TIP3   OH257225   4.272   2.002   2.172  0.3037 -0.4442 -0.3527
11937TIP3    H157226   4.295   1.947   2.097 -0.9238 -0.3940 -0.7933
11937TIP3    H257227   4.261   1.940   2.244 -0.9870 -0.7953 -0.8254
11938TIP3   OH257228   5.178   3.467  16.853  0.0723 -0.5527  0.3847
11938TIP3    H157229   5.223   3.479  16.937 -1.2206  0.7510  0.9307
11938TIP3    H257230   5.217   3.533  16.795 -1.1512  0.6649  0.8946
11939TIP3   OH257231   1.541   4.835  13.548  0.4181  0.1952  0.0306
11939TIP3    H157232   1.475   4.791  13.602  0.4117 -0.9423 -0.8716
11939TIP3    H257233   1.623   4.790  13.568  0.7020  0.7777  0.2140
11940TIP3   OH257234   4.766   5.122   3.198 -0.3831  0.4792 -0.1237
11940TIP3    H157235   4.724   5.156   3.277 -0.8764  0.8106 -0.5225
11940TIP3    H257236   4.699   5.130   3.130 -0.6570 -1.6281 -0.1727
11941TIP3   OH257237   6.025   5.769   3.051 -0.3831 -0.7045  0.2732
11941TIP3    H157238   5.975   5.836   3.097 -0.3220  0.4547 -1.2911
11941TIP3    H257239   6.114   5.804   3.047 -0.7756  0.1495 -2.3825
11942TIP3   OH257240   1.364   5.809   2.918  0.5379  0.9362  0.3523
11942TIP3    H157241   1.393   5.725   2.953  2.2976  1.0836 -0.6130
11942TIP3    H257242   1.290   5.835   2.974  0.3425 -0.9517  1.0169
11943TIP3   OH257243   3.874   4.885  15.619 -0.2150  0.0055  0.0896
11943TIP3    H157244   3.892   4.940  15.542 -0.7717  2.4345  1.6136
11943TIP3    H257245   3.956   4.886  15.668 -0.4759  0.1104  0.5212
11944TIP3   OH257246   6.040   5.680  16.744 -0.0163 -0.4802  0.2794
11944TIP3    H157247   6.015   5.605  16.689  1.3000  0.0594 -1.1242
11944TIP3    H257248   5.993   5.754  16.706 -3.2086 -0.8249  3.0678
11945TIP3   OH257249   3.462   1.306   1.697  0.4082 -0.1201 -0.1768
11945TIP3    H157250   3.425   1.383   1.740  1.6457  1.1708 -1.3259
11945TIP3    H257251   3.396   1.237   1.709 -0.6567  1.0565  1.0075
11946TIP3   OH257252   6.355   1.731   3.754 -0.1301  0.3144  0.1929
11946TIP3    H157253   6.424   1.740   3.820 -0.8043  2.6349  0.6694
11946TIP3    H257254   6.392   1.771   3.675  0.6133 -2.2974 -0.9188
11947TIP3   OH257255   3.288   2.659  12.642  0.1076 -0.0208  0.7965
11947TIP3    H157256   3.244   2.574  12.641  1.6412 -0.8685 -0.6565
11947TIP3    H257257   3.333   2.662  12.727  0.2252 -0.7726  0.7685
11948TIP3   OH257258   4.794   5.292   5.126 -0.4804 -0.0154  0.1968
11948TIP3    H157259   4.703   5.302   5.100 -1.1291  0.6881  2.5294
11948TIP3    H257260   4.837   5.256   5.049 -2.5977  0.1900 -1.1521
11949TIP3   OH257261   4.256   0.426  11.240 -0.5063 -0.3683 -0.2530
11949TIP3    H157262   4.251   0.331  11.235  0.0449 -0.3651 -1.0250
11949TIP3    H257263   4.215   0.448  11.324 -1.4026 -1.2153 -0.4545
11950TIP3   OH257264   2.771   4.132  16.546 -0.1456 -0.3598 -0.0591
11950TIP3    H157265   2.847   4.121  16.603 -0.2413  0.3201  0.2054
11950TIP3    H257266   2.804   4.182  16.472 -0.0125 -1.2739 -0.6292
11951TIP3   OH257267   3.704   3.984  11.559 -0.1786 -0.3545 -0.2808
11951TIP3    H157268   3.769   3.943  11.616 -0.2209  0.2124  0.1883
11951TIP3    H257269   3.693   4.072  11.595 -0.2203  0.0106 -1.1609
11952TIP3   OH257270   4.527   3.470   2.853 -0.6432  0.3597  0.3469
11952TIP3    H157271   4.479   3.401   2.900  1.1578 -0.3019  1.3232
11952TIP3    H257272   4.614   3.433   2.841 -0.0604  1.9320 -0.4127
11953TIP3   OH257273   6.321   6.089  14.102 -0.0378  0.3960 -0.0885
11953TIP3    H157274   6.276   6.071  14.185 -0.2603  0.1565 -0.2614
11953TIP3    H257275   6.254   6.130  14.047  0.5462  2.1209  0.4234
11954TIP3   OH257276   4.084   3.810   0.112 -0.5100  0.0153  0.7534
11954TIP3    H157277   4.006   3.860   0.136 -0.2680  0.8383 -0.1208
11954TIP3    H257278   4.149   3.876   0.090 -0.9564 -0.5679 -2.9285
11955TIP3   OH257279   2.870   0.956   4.554 -0.3492 -0.5781  0.4879
11955TIP3    H157280   2.875   0.938   4.460 -1.8964 -0.5950  0.3708
11955TIP3    H257281   2.839   0.873   4.592  2.1618 -1.2174  1.3132
11956TIP3   OH257282   1.063   0.971  13.207 -0.6076 -0.5458 -0.3282
11956TIP3    H157283   0.982   1.010  13.238 -0.6979 -1.0209  0.0403
11956TIP3    H257284   1.041   0.933  13.122 -0.9217 -1.1874  0.0351
11957TIP3   OH257285   6.208   6.738   2.618  0.3677 -0.7192 -0.3471
11957TIP3    H157286   6.130   6.744   2.673  0.6934 -0.4720  0.1013
11957TIP3    H257287   6.256   6.819   2.637  0.5512 -0.6974 -0.8956
11958TIP3   OH257288   5.003   4.558  16.369  0.3755 -0.1706 -0.0423
11958TIP3    H157289   5.027   4.547  16.461  0.2799 -2.3204 -0.2367
11958TIP3    H257290   5.086   4.553  16.322  0.3877  0.6126 -0.1249
11959TIP3   OH257291   4.739   1.075   5.671  0.2696 -0.0323 -0.3361
11959TIP3    H157292   4.820   1.105   5.629  0.6756  1.5749  1.4483
11959TIP3    H257293   4.760   1.070   5.764 -1.2347 -1.2450 -0.0212
11960TIP3   OH257294   2.306   1.614  16.637 -0.2313 -0.2354  0.1612
11960TIP3    H157295   2.302   1.690  16.695 -1.1214  0.4817 -0.8099
11960TIP3    H257296   2.400   1.597  16.626 -0.0460 -0.1553  1.4866
11961TIP3   OH257297   5.420   3.950  14.748 -0.1618 -0.3318 -0.1307
11961TIP3    H157298   5.503   3.912  14.720 -0.9913 -1.9216 -0.5108
11961TIP3    H257299   5.444   4.004  14.824  1.1740 -0.9649 -0.0657
11962TIP3   OH257300   2.208   0.197  11.666 -0.1828  0.0458 -0.6651
11962TIP3    H157301   2.237   0.159  11.749  0.9409 -0.2998 -1.2051
11962TIP3    H257302   2.150   0.268  11.692 -0.8803 -0.8653  0.3991
11963TIP3   OH257303   4.970   6.170  11.223 -0.2674 -0.7585  0.2201
11963TIP3    H157304   4.878   6.184  11.244 -0.3548  0.2477 -0.7533
11963TIP3    H257305   4.975   6.079  11.196 -1.3159 -0.3908 -1.3188
11964TIP3   OH257306   4.190   6.223   3.472  0.3204  0.7473 -0.2730
11964TIP3    H157307   4.134   6.286   3.518  1.2616  1.8761 -0.6203
11964TIP3    H257308   4.199   6.260   3.384  2.5801  1.2849  0.1081
11965TIP3   OH257309   2.132   2.305   2.801 -0.0423  0.4380 -0.4392
11965TIP3    H157310   2.162   2.255   2.725 -0.8097  0.7060 -0.9323
11965TIP3    H257311   2.171   2.392   2.789  0.7875  0.1571  0.0969
11966TIP3   OH257312   6.137   2.684   4.848 -0.4200 -0.4133 -0.3197
11966TIP3    H157313   6.173   2.749   4.787  0.8505  0.2463  1.0728
11966TIP3    H257314   6.046   2.713   4.862 -0.4639 -0.0811 -1.2054
11967TIP3   OH257315   5.922   4.136  12.207  0.2005 -0.0339  0.1026
11967TIP3    H157316   5.900   4.223  12.174 -0.5925 -0.8258 -1.5820
11967TIP3    H257317   5.905   4.141  12.301 -2.6153  0.8148 -0.3628
11968TIP3   OH257318   3.153   4.046  12.132  0.7105 -0.0774 -0.3361
11968TIP3    H157319   3.104   4.037  12.214  0.3224 -0.9146 -0.6476
11968TIP3    H257320   3.138   4.137  12.105  1.3422  0.3954  0.8244
11969TIP3   OH257321   2.714   1.345  15.377  0.1531  0.3176  0.2757
11969TIP3    H157322   2.787   1.377  15.324 -0.2400 -0.1270 -0.5488
11969TIP3    H257323   2.684   1.421  15.426  1.0291  0.5547  0.4588
11970TIP3   OH257324   0.295   0.802  14.643  0.0853 -0.1420  0.1086
11970TIP3    H157325   0.345   0.883  14.651 -0.3840  0.2533 -0.8197
11970TIP3    H257326   0.204   0.831  14.642 -0.0525 -0.4906 -2.0273
11971TIP3   OH257327   0.813   1.933  14.252  0.1244 -0.5385 -0.0542
11971TIP3    H157328   0.788   1.847  14.218  2.6978 -1.6784  0.6589
11971TIP3    H257329   0.907   1.926  14.268 -0.0433  1.5069  2.6222
11972TIP3   OH257330   6.400   3.850   6.352  0.2220 -0.4525 -0.2449
11972TIP3    H157331   6.316   3.841   6.306 -0.5535  0.4278  0.9447
11972TIP3    H257332   6.464   3.812   6.292 -0.9080 -0.3604 -1.5674
11973TIP3   OH257333   0.864   0.396   4.266 -0.5394  0.3965 -0.2284
11973TIP3    H157334   0.915   0.473   4.241  0.3847  0.8150  2.6091
11973TIP3    H257335   0.786   0.432   4.307 -1.2512 -0.2431 -0.9853
11974TIP3   OH257336   2.098   5.929  13.726  0.1735 -0.2287  0.2018
11974TIP3    H157337   2.073   6.009  13.680 -2.2728 -1.6540 -1.1416
11974TIP3    H257338   2.118   5.958  13.815 -0.6353  1.8705 -0.2416
11975TIP3   OH257339   4.987   6.555   3.033  0.0221  0.4452  0.1760
11975TIP3    H157340   4.900   6.539   3.069  0.3274 -1.2516  0.2386
11975TIP3    H257341   4.973   6.623   2.967 -1.7191 -1.0710 -1.1316
11976TIP3   OH257342   2.078   2.924   5.047 -0.1396  0.2920  0.6167
11976TIP3    H157343   2.077   2.910   5.141 -1.9479 -2.2653  0.3094
11976TIP3    H257344   2.101   2.840   5.009  0.7094  1.2945 -1.2695
11977TIP3   OH257345   1.978   1.610   0.815  0.3620 -0.1494  0.4365
11977TIP3    H157346   1.912   1.622   0.746  1.8458  0.1406 -1.0072
11977TIP3    H257347   2.061   1.613   0.768  1.3695 -1.9328  1.9910
11978TIP3   OH257348   5.867   5.941   0.376  0.2220  0.0212 -0.1968
11978TIP3    H157349   5.806   5.982   0.437 -1.3605 -1.4799 -0.6817
11978TIP3    H257350   5.811   5.892   0.316  1.8154  0.3147 -2.0046
11979TIP3   OH257351   0.738   0.433   2.547 -0.1619  0.4057 -0.0794
11979TIP3    H157352   0.709   0.356   2.596  0.1738  0.2225 -0.1636
11979TIP3    H257353   0.765   0.398   2.462 -0.2473  0.6515 -0.2087
11980TIP3   OH257354   4.211   6.320  10.760 -0.2325 -0.1814  0.1089
11980TIP3    H157355   4.225   6.357  10.673 -0.8500 -0.7150 -0.2245
11980TIP3    H257356   4.119   6.294  10.761 -0.7216  1.3776  1.5267
11981TIP3   OH257357   4.175   0.891  13.732 -0.1148 -0.1953  0.3577
11981TIP3    H157358   4.150   0.817  13.788 -0.6439 -0.6886 -0.5099
11981TIP3    H257359   4.254   0.926  13.773  0.3712 -1.4756  0.5796
11982TIP3   OH257360   1.550   2.475  16.277  0.2880  0.3692  0.5581
11982TIP3    H157361   1.574   2.383  16.280  0.2567  0.3381  0.0229
11982TIP3    H257362   1.624   2.521  16.317 -0.3643  0.0069  2.2568
11983TIP3   OH257363   3.917   6.664   5.857  0.1565  0.2252  0.6021
11983TIP3    H157364   4.007   6.694   5.862 -0.2342  1.4862  0.3214
11983TIP3    H257365   3.901   6.622   5.941  0.8328  0.4598  0.8559
11984TIP3   OH257366   4.931   1.887  11.030  0.6465 -0.4302 -0.0547
11984TIP3    H157367   4.911   1.957  10.968  0.9756  0.7307  1.1036
11984TIP3    H257368   4.985   1.825  10.981  0.8284  0.4122 -0.9444
11985TIP3   OH257369   2.262   2.826   4.648  0.4803 -0.4959 -0.2624
11985TIP3    H157370   2.334   2.879   4.613 -0.2226  0.1075 -0.8343
11985TIP3    H257371   2.206   2.888   4.695 -0.4506 -0.6682 -1.0936
11986TIP3   OH257372   4.008   1.767  12.128  0.0883 -0.4246  0.0820
11986TIP3    H157373   4.101   1.761  12.151 -0.4601 -1.8711  2.2421
11986TIP3    H257374   3.988   1.683  12.088 -0.3438 -0.1926 -0.1944
11987TIP3   OH257375   2.068   1.084   2.579 -0.3735  0.3326 -0.2133
11987TIP3    H157376   2.036   1.104   2.667 -0.9723 -1.8423  0.1248
11987TIP3    H257377   2.008   1.018   2.546  1.8744 -1.5607 -0.8225
11988TIP3   OH257378   0.314   1.600  17.191  0.1647  0.2464 -0.3270
11988TIP3    H157379   0.267   1.633  17.268  0.0686 -0.1471 -0.2190
11988TIP3    H257380   0.377   1.670  17.170  0.4550  0.1884  0.3388
11989TIP3   OH257381   0.395   4.166   0.713 -0.5425 -0.0134 -0.1464
11989TIP3    H157382   0.374   4.204   0.628 -0.2529 -0.2231 -0.3118
11989TIP3    H257383   0.409   4.073   0.696  0.4433  0.1096 -0.0284
11990TIP3   OH257384   3.039   1.918   1.964  0.0317 -0.0204  0.9431
11990TIP3    H157385   2.998   1.937   2.048 -1.6362  2.1343 -0.2487
11990TIP3    H257386   3.130   1.947   1.974 -0.2118  0.4526  1.9135
11991TIP3   OH257387   2.815   2.562   4.161  0.0371 -0.5505 -0.4895
11991TIP3    H157388   2.740   2.506   4.182 -0.9390  0.8045 -0.1696
11991TIP3    H257389   2.864   2.567   4.243  0.1536 -0.9700 -0.5324
11992TIP3   OH257390   2.450   1.411   4.839 -0.0046  0.1773 -0.1696
11992TIP3    H157391   2.510   1.337   4.852  0.1452 -0.0387 -1.8485
11992TIP3    H257392   2.469   1.471   4.911  1.2170 -0.5481  0.1332
11993TIP3   OH257393   6.431   2.775   4.160 -0.0621  0.1306  0.4634
11993TIP3    H157394   6.488   2.700   4.171 -1.1383 -0.8156 -0.1637
11993TIP3    H257395   6.416   2.781   4.065 -1.5146 -0.0790  0.6477
11994TIP3   OH257396   3.175   1.666   2.137  0.3928 -0.4730 -0.7685
11994TIP3    H157397   3.175   1.761   2.148 -2.0921 -0.6434  2.2744
11994TIP3    H257398   3.207   1.632   2.221  1.6048 -2.3615 -1.9315
11995TIP3   OH257399   2.301   5.385  14.649 -0.2655 -1.0546  0.5178
11995TIP3    H157400   2.276   5.415  14.736  2.4501  1.6568  0.5234
11995TIP3    H257401   2.269   5.452  14.590 -1.4614 -2.5172 -0.5755
11996TIP3   OH257402   4.102   4.062  14.242  0.4333 -0.0782 -0.4365
11996TIP3    H157403   4.073   4.149  14.213 -0.0820 -0.2028 -0.3027
11996TIP3    H257404   4.113   4.071  14.337 -1.7644 -0.7325 -0.0671
11997TIP3   OH257405   2.476   5.412  11.224 -0.0441 -0.6309 -0.0934
11997TIP3    H157406   2.542   5.370  11.167 -1.2428 -1.8026 -0.6669
11997TIP3    H257407   2.433   5.476  11.167 -0.5187 -1.0494 -0.2141
11998TIP3   OH257408   1.057   3.401   5.063 -0.0662  0.5908  0.0556
11998TIP3    H157409   1.075   3.475   5.120  0.1065 -0.0378  0.8364
11998TIP3    H257410   1.141   3.357   5.052 -0.4326 -0.3897  0.9164
11999TIP3   OH257411   2.361   1.874  14.249 -0.2410  0.1445  0.3144
11999TIP3    H157412   2.397   1.790  14.279 -2.3299 -0.3928  1.5101
11999TIP3    H257413   2.421   1.940  14.283  0.0078 -0.7251  1.6205
12000TIP3   OH257414   2.489   1.294  12.207 -0.3399  0.3240  0.3303
12000TIP3    H157415   2.481   1.214  12.156  2.3223  0.8237 -1.0657
12000TIP3    H257416   2.457   1.363  12.149 -0.3831  0.5368  0.6050
12001TIP3   OH257417   2.677   1.055  10.962 -0.6562 -0.1137 -0.1393
12001TIP3    H157418   2.706   1.105  11.039  0.1656 -1.5325  0.5076
12001TIP3    H257419   2.692   0.964  10.986  1.4841 -0.5413 -2.7203
12002TIP3   OH257420   3.385   4.331   4.326  0.0832 -0.3497 -0.1751
12002TIP3    H157421   3.295   4.303   4.337 -1.3560  2.7695 -2.4979
12002TIP3    H257422   3.391   4.414   4.373  1.8405 -0.5842  0.1145
12003TIP3   OH257423   6.747   3.673   4.813 -1.5689  0.1738  0.3749
12003TIP3    H157424   6.811   3.661   4.883 -1.1067  2.5004  0.4324
12003TIP3    H257425   6.735   3.585   4.775 -1.5004 -1.0698  3.0342
12004TIP3   OH257426   0.878   1.843   1.213  0.2511  0.0060 -0.4057
12004TIP3    H157427   0.954   1.819   1.159  1.3135  1.4870  0.3619
12004TIP3    H257428   0.912   1.843   1.302 -1.1306 -1.0339  0.1427
12005TIP3   OH257429   2.991   1.274  15.698  0.1556 -0.6416 -0.0681
12005TIP3    H157430   3.042   1.307  15.623  3.3659  0.0986  2.2175
12005TIP3    H257431   3.013   1.181  15.703 -0.4703 -0.8051 -0.3448
12006TIP3   OH257432   1.430   2.465  13.324  0.2823 -0.1399 -0.2657
12006TIP3    H157433   1.505   2.514  13.290 -0.0311 -0.7320 -1.8706
12006TIP3    H257434   1.468   2.393  13.374  0.7736  0.0573 -0.3533
12007TIP3   OH257435   3.946   2.128   4.615  0.1439  0.6771 -0.0308
12007TIP3    H157436   3.992   2.081   4.545  0.3795  2.0953 -0.8567
12007TIP3    H257437   3.923   2.212   4.576  0.9117  1.7909  1.8035
12008TIP3   OH257438   4.552   2.432   5.485 -0.3491  0.1684  0.2366
12008TIP3    H157439   4.584   2.485   5.412 -0.6229 -0.0501 -0.0435
12008TIP3    H257440   4.606   2.459   5.559  0.6508 -0.3615 -0.2825
12009TIP3   OH257441   2.857   5.850  15.278 -0.0626  0.0603 -0.5758
12009TIP3    H157442   2.939   5.822  15.320  0.3335  2.1565  0.1876
12009TIP3    H257443   2.850   5.795  15.200  1.2862 -1.1889  0.1323
12010TIP3   OH257444   3.084   1.615   5.885 -0.1166  0.0164  0.2326
12010TIP3    H157445   3.084   1.619   5.981  1.2467 -0.4763  0.2723
12010TIP3    H257446   3.069   1.523   5.864 -1.3394  0.2633 -0.0683
12011TIP3   OH257447   6.027   3.293   4.723 -0.1331 -0.4202  0.0669
12011TIP3    H157448   6.046   3.353   4.651  1.3885 -0.6572  0.2375
12011TIP3    H257449   6.034   3.348   4.801 -0.7491 -0.3913  0.1054
12012TIP3   OH257450   0.559   2.850   5.107  0.3336  0.1555 -0.7610
12012TIP3    H157451   0.583   2.758   5.113 -0.0490  0.1122  0.3486
12012TIP3    H257452   0.639   2.897   5.131 -0.8516  0.0007  5.1986
12013TIP3   OH257453   5.836   1.978   1.161 -0.2141 -0.0393 -0.0110
12013TIP3    H157454   5.770   1.917   1.194 -0.1090 -0.0916  0.0989
12013TIP3    H257455   5.902   1.923   1.119 -2.0011  0.1171 -3.3981
12014TIP3   OH257456   0.061   2.435  12.526 -0.3286  0.0296  0.2060
12014TIP3    H157457   0.115   2.504  12.489 -1.5715 -0.1517 -2.1578
12014TIP3    H257458  -0.026   2.474  12.534 -0.5649 -0.6150  0.9297
12015TIP3   OH257459   6.778   4.961   4.760  0.3185 -0.0334  0.2872
12015TIP3    H157460   6.707   4.910   4.720  0.5073  0.8668 -1.2831
12015TIP3    H257461   6.733   5.021   4.819 -0.3167  0.7516 -0.9328
12016TIP3   OH257462   1.913   2.660   3.650  0.7885 -0.1179 -0.0738
12016TIP3    H157463   1.857   2.693   3.720  2.2402 -0.0396  1.0915
12016TIP3    H257464   1.886   2.710   3.573  0.9083  1.6979  1.0014
12017TIP3   OH257465   2.973   1.589  12.209 -0.4350  0.4504 -0.1210
12017TIP3    H157466   2.968   1.557  12.119 -0.0189 -0.6572  0.2276
12017TIP3    H257467   2.884   1.613  12.231 -0.1212  3.8134 -1.8628
12018TIP3   OH257468   3.716   2.517  15.822 -0.4953  0.0175 -0.3426
12018TIP3    H157469   3.641   2.560  15.864 -1.0036 -0.7271 -0.4543
12018TIP3    H257470   3.730   2.438  15.875  1.8922  1.3813  1.2818
12019TIP3   OH257471   6.587   6.489  15.544  0.8739 -0.5254  0.0360
12019TIP3    H157472   6.642   6.415  15.570  2.3435  0.3783 -0.3320
12019TIP3    H257473   6.650   6.558  15.523 -0.4271  0.4540 -0.7522
12020TIP3   OH257474   5.634   5.431   4.925 -0.4069  0.6951 -0.1870
12020TIP3    H157475   5.631   5.512   4.874  4.1163  2.1823  1.3823
12020TIP3    H257476   5.696   5.376   4.879 -3.2780 -2.0630 -1.1272
12021TIP3   OH257477   4.086   4.917  14.757 -0.1309 -0.7459  0.2046
12021TIP3    H157478   4.140   4.899  14.679 -0.0347  0.1724  0.0391
12021TIP3    H257479   4.129   4.992  14.798 -0.8737 -0.4596  0.4738
12022TIP3   OH257480   1.603   6.068   2.485  0.1856  0.5995  0.0274
12022TIP3    H157481   1.532   6.013   2.451  0.8603 -0.7727  0.7130
12022TIP3    H257482   1.611   6.041   2.577  2.5434 -0.3905 -0.3997
12023TIP3   OH257483   6.391   1.268  10.958 -0.0360  0.0865 -0.3023
12023TIP3    H157484   6.435   1.188  10.987  0.6869  1.6013  3.3852
12023TIP3    H257485   6.460   1.319  10.914  0.0534 -0.3949 -0.7291
12024TIP3   OH257486   4.819   4.902  12.331  0.1762 -0.3372  0.4108
12024TIP3    H157487   4.910   4.931  12.333 -0.1727  0.9166 -0.7288
12024TIP3    H257488   4.796   4.890  12.423  0.3262  3.2075  1.0499
12025TIP3   OH257489   2.878   5.724  16.515  0.5567 -0.2012 -0.6502
12025TIP3    H157490   2.825   5.656  16.557  0.3474 -0.0275 -0.6330
12025TIP3    H257491   2.896   5.690  16.428 -0.6993  0.3186 -1.1303
12026TIP3   OH257492   4.879   2.642  15.933 -0.6921 -0.4336  0.8988
12026TIP3    H157493   4.847   2.638  16.023  0.4127  0.2212  1.3351
12026TIP3    H257494   4.973   2.654  15.941 -0.5332 -0.6904 -0.3534
12027TIP3   OH257495   5.501   0.041   0.671  0.1971  0.1931 -0.1681
12027TIP3    H157496   5.427  -0.012   0.700 -2.0225  1.8551 -2.3180
12027TIP3    H257497   5.505   0.026   0.576  1.3365  1.6414 -0.3917
12028TIP3   OH257498   5.629   0.414  12.242 -0.6465  0.6191  0.2538
12028TIP3    H157499   5.709   0.465  12.251  0.1955 -0.5785 -0.2394
12028TIP3    H257500   5.603   0.395  12.333 -0.4752  1.1490  0.4184
12029TIP3   OH257501   5.661   3.171  14.588  0.7095  0.1583  0.3966
12029TIP3    H157502   5.630   3.116  14.659  1.4036 -2.9288 -1.5307
12029TIP3    H257503   5.582   3.197  14.541  0.4930 -3.0626 -1.2598
12030TIP3   OH257504   5.966   4.140  15.660  0.5052  0.0217 -0.2804
12030TIP3    H157505   5.963   4.210  15.595  1.1473  0.2269 -0.0903
12030TIP3    H257506   5.981   4.060  15.609 -1.6059 -0.2027 -0.6514
12031TIP3   OH257507   6.569   0.078   2.511 -0.1266  0.0585 -0.5825
12031TIP3    H157508   6.595   0.156   2.560  0.4773 -0.4875 -0.0087
12031TIP3    H257509   6.640   0.015   2.526 -0.3322 -0.4112 -1.4926
12032TIP3   OH257510   1.590   3.512  11.562  0.4374  0.4741 -0.1036
12032TIP3    H157511   1.571   3.428  11.604 -0.4272 -0.1254 -1.6207
12032TIP3    H257512   1.639   3.561  11.628 -1.7876  0.0232  2.0222
12033TIP3   OH257513   3.827   0.487   5.513  0.4375 -0.2755 -0.6782
12033TIP3    H157514   3.911   0.523   5.539 -0.6599  3.1492 -1.3553
12033TIP3    H257515   3.821   0.404   5.559  2.4336  1.2479  2.6782
12034TIP3   OH257516   4.001   4.150   1.052  0.4409  0.8359 -0.2702
12034TIP3    H157517   4.068   4.083   1.035  1.5455  1.6083  0.8869
12034TIP3    H257518   4.000   4.202   0.972  0.7565  0.4233 -0.5521
12035TIP3   OH257519   5.665   5.388  12.980  0.3876 -0.6205  0.3311
12035TIP3    H157520   5.706   5.311  12.941 -2.2175 -2.7726  1.4532
12035TIP3    H257521   5.572   5.364  12.987 -0.3342  2.1683  1.8739
12036TIP3   OH257522   2.350   3.085   5.878 -0.2347  0.3948 -0.1402
12036TIP3    H157523   2.391   3.145   5.939  1.1205  0.4760 -1.0955
12036TIP3    H257524   2.260   3.076   5.909 -0.1442  2.0371  0.6451
12037TIP3   OH257525   2.738   3.032   3.989  0.8086 -0.0186  0.0505
12037TIP3    H157526   2.800   2.963   4.012  0.3376  0.4606  3.0842
12037TIP3    H257527   2.786   3.113   4.004  0.3053  0.3514 -0.3196
12038TIP3   OH257528   0.334   3.372  12.638  0.4617  0.9727  0.5378
12038TIP3    H157529   0.333   3.429  12.715 -0.2693 -0.7058  1.8308
12038TIP3    H257530   0.427   3.357  12.620  0.6407  1.7334  0.8051
12039TIP3   OH257531   1.869   0.560   2.861  0.0323 -0.3281  0.0680
12039TIP3    H157532   1.904   0.525   2.779 -1.1846 -0.5702 -0.3746
12039TIP3    H257533   1.937   0.543   2.926  0.6086 -1.0190 -0.7020
12040TIP3   OH257534   6.115   3.877   1.063  0.2772  0.1116 -0.3522
12040TIP3    H157535   6.201   3.892   1.025  0.4719 -0.6440 -0.2227
12040TIP3    H257536   6.117   3.925   1.146  1.2887 -1.4708  0.5826
12041TIP3   OH257537   6.255   0.289  13.606 -0.0636  0.3489  0.1852
12041TIP3    H157538   6.308   0.210  13.600  0.0263  0.0218  3.2679
12041TIP3    H257539   6.318   0.361  13.603 -0.1802  0.4372 -3.0305
12042TIP3   OH257540   3.600   3.507  12.687 -0.0340 -0.1898 -0.3788
12042TIP3    H157541   3.644   3.569  12.745  0.5828  1.2231 -2.2528
12042TIP3    H257542   3.662   3.435  12.677  0.4936  0.2647 -0.4471
12043TIP3   OH257543   3.456   5.018   6.353 -0.5707 -0.5426 -0.2786
12043TIP3    H157544   3.522   5.082   6.326 -1.1531  0.9510  1.6324
12043TIP3    H257545   3.373   5.064   6.343 -1.1958 -1.7335 -0.7885
12044TIP3   OH257546   2.840   3.307  14.621 -0.1305 -0.2879 -0.5147
12044TIP3    H157547   2.878   3.394  14.611  1.2614 -0.8181 -0.0598
12044TIP3    H257548   2.838   3.271  14.532 -0.7053  0.1858 -0.7017
12045TIP3   OH257549   4.124   1.169  12.859  0.2838 -0.6263  0.1635
12045TIP3    H157550   4.132   1.138  12.768  1.5980  0.1565 -0.0152
12045TIP3    H257551   4.033   1.198  12.866 -0.6259 -3.2202 -0.0532
12046TIP3   OH257552   3.099   1.436   3.644  0.2004 -0.4493 -0.4703
12046TIP3    H157553   3.184   1.423   3.687 -1.1959 -1.1209  2.3225
12046TIP3    H257554   3.052   1.495   3.703 -1.2415  0.0711 -2.0662
12047TIP3   OH257555   3.153   2.595  12.275 -0.0840  0.1585  0.1669
12047TIP3    H157556   3.160   2.582  12.180 -0.4606 -0.3572  0.2036
12047TIP3    H257557   3.236   2.562  12.309 -0.4596 -0.8846  0.1231
12048TIP3   OH257558   0.479   0.354  16.039  0.2218 -0.3560 -0.2465
12048TIP3    H157559   0.445   0.273  16.002  0.4160 -0.8490  0.6240
12048TIP3    H257560   0.527   0.326  16.118 -0.0513  0.6393  0.2873
12049TIP3   OH257561   2.382   2.260  11.448  0.3603  0.6062  0.4829
12049TIP3    H157562   2.436   2.274  11.371  0.4332 -1.2472  0.1600
12049TIP3    H257563   2.435   2.292  11.521 -0.4674  4.2148 -0.3200
12050TIP3   OH257564   0.938   2.449  13.544 -0.2331 -0.3363  0.0139
12050TIP3    H157565   0.870   2.386  13.568 -2.0941  1.6495  0.2269
12050TIP3    H257566   1.019   2.412  13.581 -1.4278 -2.0208  1.0865
12051TIP3   OH257567   1.907   6.232   3.534  0.8469 -0.4962 -0.4723
12051TIP3    H157568   1.835   6.206   3.477  0.0454 -0.7837  0.6252
12051TIP3    H257569   1.923   6.155   3.589  1.0014  0.0499  0.2657
12052TIP3   OH257570   5.917   0.505  12.405 -0.1886 -0.4107  0.0236
12052TIP3    H157571   5.995   0.452  12.424 -1.8644 -3.3395 -0.7314
12052TIP3    H257572   5.928   0.533  12.314  0.8611  0.9722  0.5276
12053TIP3   OH257573   1.500   4.237   0.263 -0.3075  0.3840 -0.8169
12053TIP3    H157574   1.442   4.204   0.195 -1.7556  0.7410  0.2085
12053TIP3    H257575   1.585   4.197   0.244 -1.2032 -1.2437 -1.5444
12054TIP3   OH257576   3.279   1.165  15.896  0.3644 -0.1631 -0.1632
12054TIP3    H157577   3.332   1.144  15.973  0.2160 -0.3507 -0.1127
12054TIP3    H257578   3.192   1.132  15.916 -0.3481  2.0178  0.6437
12055TIP3   OH257579   0.361   0.260   4.412  0.1143  0.4691 -0.3548
12055TIP3    H157580   0.302   0.267   4.337 -1.2142  0.0325  0.6012
12055TIP3    H257581   0.411   0.180   4.394  1.0213  1.2781 -1.5656
12056TIP3   OH257582   3.597   1.778   2.629 -0.1660  0.1622  0.0099
12056TIP3    H157583   3.522   1.837   2.617 -0.4670 -0.2558 -0.2124
12056TIP3    H257584   3.619   1.785   2.721 -2.4575 -2.0030  0.8583
12057TIP3   OH257585   5.778   2.690   0.071 -0.1003  0.0552 -0.1649
12057TIP3    H157586   5.719   2.763   0.090 -0.4246  0.1515 -1.5006
12057TIP3    H257587   5.815   2.667   0.157 -0.1201  1.6649  0.3071
12058TIP3   OH257588   0.014   3.623   2.748 -0.2022 -0.7253 -0.1114
12058TIP3    H157589  -0.028   3.617   2.662  0.1804  0.5400 -0.4079
12058TIP3    H257590   0.086   3.561   2.745  0.9371  0.5822 -1.3991
12059TIP3   OH257591   1.857   1.719   1.928 -0.4945  0.3414  0.4691
12059TIP3    H157592   1.856   1.686   1.838 -0.6758  0.3726  0.4604
12059TIP3    H257593   1.788   1.670   1.973  1.4178 -1.7280  1.3269
12060TIP3   OH257594   4.507   4.834  15.551 -0.0926  0.1994  0.2888
12060TIP3    H157595   4.437   4.789  15.599  1.0794  0.3375  2.2322
12060TIP3    H257596   4.514   4.920  15.593  1.7150 -0.0926  0.6832
12061TIP3   OH257597   6.182   3.698  15.808 -0.1473 -0.3580 -0.0160
12061TIP3    H157598   6.232   3.653  15.876 -1.6645  0.5381  1.7932
12061TIP3    H257599   6.232   3.777  15.790 -0.7189  0.4371  1.6411
12062TIP3   OH257600   4.821   4.484   4.632 -0.3817  0.4092 -0.6781
12062TIP3    H157601   4.912   4.477   4.604 -0.3807  0.4349 -0.6816
12062TIP3    H257602   4.792   4.569   4.601  0.7482  2.1675  2.5648
12063TIP3   OH257603   5.412   2.182  15.345 -0.0007 -0.5701  0.1689
12063TIP3    H157604   5.425   2.273  15.373 -2.4035 -0.4150  1.0495
12063TIP3    H257605   5.445   2.179  15.256  0.8635  0.9638  0.4050
12064TIP3   OH257606   4.324   1.344   2.686 -0.8007 -0.1366 -0.0410
12064TIP3    H157607   4.390   1.295   2.734 -1.1110 -0.8940 -0.3725
12064TIP3    H257608   4.356   1.434   2.686 -0.3334 -0.2984  0.7629
12065TIP3   OH257609   3.353   4.968   6.650 -0.6266 -1.0246  0.2879
12065TIP3    H157610   3.312   5.033   6.708 -1.5108 -1.9014  0.6698
12065TIP3    H257611   3.428   5.014   6.612  0.1799 -0.5099  2.3664
12066TIP3   OH257612   5.721   2.879   2.273  0.1328 -0.4290  0.7022
12066TIP3    H157613   5.651   2.865   2.210 -1.5003  1.7502  1.8989
12066TIP3    H257614   5.740   2.973   2.268  0.8270 -0.4235  2.5225
12067TIP3   OH257615   3.753   5.900  16.831  0.2526  0.4065 -0.4254
12067TIP3    H157616   3.818   5.887  16.762  0.5180  2.0255 -0.5077
12067TIP3    H257617   3.798   5.952  16.897  0.2811 -1.8152  1.4383
12068TIP3   OH257618   0.520   5.306   4.126  0.3863 -0.4230 -0.2816
12068TIP3    H157619   0.604   5.320   4.084 -0.6708  1.8324 -1.8617
12068TIP3    H257620   0.484   5.227   4.084  1.8379 -1.6718  0.7356
12069TIP3   OH257621   2.147   6.087   2.556 -0.5810  0.4332 -0.0178
12069TIP3    H157622   2.056   6.057   2.552  0.0157 -1.3493 -1.8315
12069TIP3    H257623   2.152   6.157   2.491 -0.7926  1.1105  0.6650
12070TIP3   OH257624   2.842   0.230   1.884  0.2299 -0.6371 -0.4886
12070TIP3    H157625   2.855   0.218   1.790 -0.8935  0.9831 -0.8872
12070TIP3    H257626   2.913   0.288   1.910 -1.0714  1.2389 -0.9500
12071TIP3   OH257627   5.013   6.716   2.418  0.5091 -0.2911 -0.2452
12071TIP3    H157628   5.000   6.789   2.358 -0.3939  0.0190  0.3142
12071TIP3    H257629   5.082   6.746   2.477 -0.5918  0.5649  0.6535
12072TIP3   OH257630   1.337   3.810   3.468 -0.0549  0.0210  0.7834
12072TIP3    H157631   1.251   3.780   3.439  0.2903 -0.6286  0.3938
12072TIP3    H257632   1.336   3.800   3.563 -0.1049 -0.8346  0.7008
12073TIP3   OH257633   5.202   6.379  11.503 -0.1231 -0.1977 -0.0241
12073TIP3    H157634   5.239   6.379  11.591  0.4478  1.3629 -0.2357
12073TIP3    H257635   5.266   6.332  11.450 -0.9728 -2.1013  0.5462
12074TIP3   OH257636   3.688   5.763   1.232 -0.2496  0.2907  0.0009
12074TIP3    H157637   3.623   5.704   1.270  0.0601 -0.0110  0.0660
12074TIP3    H257638   3.753   5.705   1.192  0.1617  0.5764  0.2394
12075TIP3   OH257639   2.887   6.612   3.304 -0.5347 -0.1234  0.0378
12075TIP3    H157640   2.812   6.650   3.348 -0.7394  0.8198 -1.0588
12075TIP3    H257641   2.923   6.549   3.366 -1.1005  0.7778  1.3270
12076TIP3   OH257642   4.610   4.498   3.446  0.2308 -0.1336 -0.1399
12076TIP3    H157643   4.636   4.459   3.363 -0.0205 -1.4825  0.3871
12076TIP3    H257644   4.667   4.457   3.511 -1.2950 -1.0736  0.6760
12077TIP3   OH257645   4.587   1.312   3.486 -0.6936  0.2137 -0.0540
12077TIP3    H157646   4.505   1.302   3.437 -1.0211 -1.0799  0.7132
12077TIP3    H257647   4.655   1.314   3.418 -1.2178 -0.5631 -0.6225
12078TIP3   OH257648   2.668   2.766   3.091 -0.0314 -0.1558 -0.0819
12078TIP3    H157649   2.658   2.700   3.160  2.2446  0.4093  0.8980
12078TIP3    H257650   2.581   2.803   3.081 -0.4941 -0.3685  2.4176
12079TIP3   OH257651   4.370   3.560  15.237  0.1944  1.0968 -0.0961
12079TIP3    H157652   4.401   3.625  15.173 -0.5346  0.5652 -1.0089
12079TIP3    H257653   4.417   3.480  15.213  1.5298  1.3788  1.3849
12080TIP3   OH257654   0.539   5.145   2.101  0.2169  0.0079 -0.2036
12080TIP3    H157655   0.619   5.191   2.128  0.2106 -0.6511  0.9684
12080TIP3    H257656   0.469   5.207   2.117  0.2110 -0.3677  1.3491
12081TIP3   OH257657   5.486   4.604   1.561  0.0504  0.0638  0.1002
12081TIP3    H157658   5.561   4.637   1.512 -0.8973  0.4490 -1.1276
12081TIP3    H257659   5.493   4.648   1.646  1.4467 -0.2537  0.1830
12082TIP3   OH257660   1.297   5.834   4.254 -0.1554  0.1261  0.1754
12082TIP3    H157661   1.328   5.757   4.207  2.1291 -0.2107  2.0328
12082TIP3    H257662   1.278   5.899   4.186 -3.2108 -2.2792 -1.5580
12083TIP3   OH257663   1.534   0.677  13.337  0.5677  0.1704 -0.3685
12083TIP3    H157664   1.505   0.586  13.329  1.2373 -0.2073  1.2102
12083TIP3    H257665   1.479   0.725  13.275 -0.4018 -1.1747 -0.5911
12084TIP3   OH257666   4.152   2.504   5.009 -0.2970 -0.4005 -0.1133
12084TIP3    H157667   4.168   2.412   5.030  0.4130 -0.0397  0.9763
12084TIP3    H257668   4.168   2.551   5.091 -1.8960  0.5741 -0.3036
12085TIP3   OH257669   5.461   2.635   4.054  0.1622 -0.0161 -0.1665
12085TIP3    H157670   5.501   2.723   4.052  1.1608 -0.4729 -1.2454
12085TIP3    H257671   5.422   2.629   4.141 -0.6713  1.8220 -0.3627
12086TIP3   OH257672   0.784   1.851  11.012  0.0509 -0.0325 -0.1166
12086TIP3    H157673   0.870   1.874  10.978  0.1567 -0.9181 -0.4768
12086TIP3    H257674   0.753   1.781  10.955 -0.3942 -0.5456  0.7200
12087TIP3   OH257675   1.534   0.474   5.609  0.8051 -0.0216  0.4514
12087TIP3    H157676   1.441   0.458   5.598  0.2518  3.2023 -0.7142
12087TIP3    H257677   1.539   0.540   5.678  1.9240  1.8219 -1.2802
12088TIP3   OH257678   0.691   3.656   5.767 -0.0802  0.5469 -0.0124
12088TIP3    H157679   0.621   3.627   5.827 -1.3964  2.2385 -0.6514
12088TIP3    H257680   0.727   3.574   5.732 -3.2385 -0.4721 -1.3153
12089TIP3   OH257681   6.142   3.676  14.505  0.2354 -0.0274 -0.4271
12089TIP3    H157682   6.121   3.584  14.487  0.8680 -0.1424 -0.6046
12089TIP3    H257683   6.183   3.707  14.424 -0.0803  0.4486 -0.4081
12090TIP3   OH257684   0.969   4.528   2.550 -0.0868 -0.7822  0.3852
12090TIP3    H157685   1.054   4.485   2.543 -0.8501 -2.2666  0.0261
12090TIP3    H257686   0.951   4.530   2.644  0.9012  0.7415  0.5921
12091TIP3   OH257687   6.584   2.766  14.849 -0.7811  0.2818  0.6249
12091TIP3    H157688   6.548   2.732  14.931 -0.1726 -2.5263 -0.1490
12091TIP3    H257689   6.513   2.753  14.785 -0.3131 -0.1595  0.1839
12092TIP3   OH257690   0.397   5.114   3.172  0.3425  0.1031  1.1002
12092TIP3    H157691   0.435   5.047   3.229  1.7316 -0.9222 -0.9321
12092TIP3    H257692   0.465   5.133   3.107 -1.8373 -0.2747 -1.4755
12093TIP3   OH257693   5.878   4.078   5.692  0.0828  0.2017  0.0531
12093TIP3    H157694   5.903   4.017   5.622 -0.1444 -1.3337  1.2737
12093TIP3    H257695   5.951   4.077   5.753 -0.5630 -0.0034  0.8332
12094TIP3   OH257696   2.734   2.144   3.622  0.2692  0.3678  0.0970
12094TIP3    H157697   2.706   2.148   3.713  0.4594 -1.1166  0.2476
12094TIP3    H257698   2.797   2.072   3.619  3.2190  2.7429 -0.4702
12095TIP3   OH257699   6.024   0.764   1.296  0.6511 -0.0654  0.4144
12095TIP3    H157700   6.097   0.808   1.338  1.4830 -0.8328 -0.1836
12095TIP3    H257701   6.014   0.682   1.345  0.0426  0.1359  0.6348
12096TIP3   OH257702   6.056   1.957   4.777 -0.2764 -0.9929  0.3977
12096TIP3    H157703   6.026   1.935   4.865  1.0201  1.1789  1.4573
12096TIP3    H257704   6.005   2.034   4.752 -0.0376 -1.0866 -0.4181
12097TIP3   OH257705   6.035   3.475  16.004  0.1824  0.3544 -0.1307
12097TIP3    H157706   6.019   3.445  15.914 -0.8115 -2.3816  0.8613
12097TIP3    H257707   6.028   3.570  15.998 -2.2519  0.1827 -2.5503
12098TIP3   OH257708   2.153   1.245   3.241  0.9858 -0.1217  0.6621
12098TIP3    H157709   2.123   1.228   3.330  0.8574 -1.7428  0.3366
12098TIP3    H257710   2.229   1.188   3.230  0.3469 -0.7766 -0.6095
12099TIP3   OH257711   1.222   6.319   5.179 -0.3712  0.2503 -0.2743
12099TIP3    H157712   1.192   6.392   5.126 -2.8677 -1.2078 -1.0357
12099TIP3    H257713   1.244   6.251   5.116  1.2803  0.0683  0.4498
12100TIP3   OH257714   5.436   3.590  14.686 -0.2691  0.0981  0.0112
12100TIP3    H157715   5.408   3.600  14.777 -0.8535  2.5119 -0.3618
12100TIP3    H257716   5.358   3.558  14.640 -0.6750  1.1239 -0.0246
12101TIP3   OH257717   2.380   5.020   2.728  0.1371  0.5440  0.2047
12101TIP3    H157718   2.461   5.014   2.778  0.7616  0.5333 -0.7928
12101TIP3    H257719   2.382   4.945   2.669 -1.3700 -0.3629  1.2421
12102TIP3   OH257720   3.339   5.344   2.395  0.7277  0.6236  0.0613
12102TIP3    H157721   3.264   5.287   2.409  1.2739 -0.0110  0.4340
12102TIP3    H257722   3.331   5.412   2.462  0.9282  0.0818  0.6530
12103TIP3   OH257723   2.893   3.575  15.661 -0.8539  0.6063 -0.1216
12103TIP3    H157724   2.982   3.586  15.693 -0.9885 -0.8518  0.8630
12103TIP3    H257725   2.871   3.484  15.681 -3.3094  1.4831  1.6798
12104TIP3   OH257726   0.848   4.641  16.929  0.0907 -0.3400  0.2257
12104TIP3    H157727   0.886   4.729  16.927 -1.1606  0.2206 -1.4690
12104TIP3    H257728   0.905   4.590  16.872 -0.0061 -0.2518  0.0477
12105TIP3   OH257729   6.309   3.348   4.873  0.9995 -0.1189  0.1330
12105TIP3    H157730   6.237   3.333   4.934 -0.2593 -0.8709 -1.4524
12105TIP3    H257731   6.307   3.442   4.857 -1.3892 -0.4054 -1.8346
12106TIP3   OH257732   4.742   4.863   1.954  0.5035 -0.5953 -0.2915
12106TIP3    H157733   4.670   4.915   1.917  0.6856 -0.7045 -0.8101
12106TIP3    H257734   4.732   4.777   1.915  1.9921 -0.1189 -1.8395
12107TIP3   OH257735   4.606   3.920   2.865 -0.4418  0.0099 -0.3355
12107TIP3    H157736   4.556   3.839   2.856 -0.4630 -0.0928  0.5780
12107TIP3    H257737   4.622   3.949   2.775 -0.2221 -1.1368 -0.6872
12108TIP3   OH257738   2.206   6.727  14.517  0.2279 -0.0082 -0.0726
12108TIP3    H157739   2.194   6.809  14.470 -1.8694  0.4602  1.1455
12108TIP3    H257740   2.298   6.704  14.503  0.3779  1.5335 -2.0061
12109TIP3   OH257741   1.374   5.411   5.304 -0.3374  0.0748  0.0152
12109TIP3    H157742   1.285   5.425   5.272 -1.0182 -0.8506  1.3742
12109TIP3    H257743   1.362   5.384   5.396  1.2629 -1.1745 -0.1012
12110TIP3   OH257744   5.826   5.375   2.601 -0.6593  0.5703  0.1289
12110TIP3    H157745   5.882   5.450   2.619  1.0024 -0.9054  1.5503
12110TIP3    H257746   5.784   5.355   2.685  0.5537 -1.2629  0.3841
12111TIP3   OH257747   4.629   6.552  14.160  0.1319  0.6246 -0.3500
12111TIP3    H157748   4.696   6.502  14.207  0.6413  0.5359 -1.1384
12111TIP3    H257749   4.550   6.499  14.166 -0.3259  1.4269  1.8997
12112TIP3   OH257750   6.683   3.976  15.924  0.1927  0.1369 -0.5333
12112TIP3    H157751   6.693   3.911  15.993  0.9849 -0.3457 -1.0913
12112TIP3    H257752   6.742   4.047  15.950  0.4877 -0.0429 -0.7080
12113TIP3   OH257753   5.896   5.171  13.023  0.2990 -0.3570 -0.3116
12113TIP3    H157754   5.969   5.138  13.075  0.0938  0.4119  0.4780
12113TIP3    H257755   5.884   5.105  12.954  1.8278 -0.4329 -0.5498
12114TIP3   OH257756   0.668   0.168  16.739 -0.6574 -0.1371  0.5963
12114TIP3    H157757   0.625   0.248  16.708  0.3437 -0.1446 -0.8921
12114TIP3    H257758   0.761   0.189  16.740 -0.2430 -1.5980 -0.9952
12115TIP3   OH257759   4.360   2.102  11.637 -0.3802 -0.3437 -0.0569
12115TIP3    H157760   4.332   2.191  11.662 -1.8032 -0.8516  0.2876
12115TIP3    H257761   4.375   2.057  11.720  1.8305 -0.0326 -0.2288
12116TIP3   OH257762   4.359   4.876  14.084  0.3380  0.6071 -0.8266
12116TIP3    H157763   4.374   4.872  14.179 -1.2392  0.6336 -0.5408
12116TIP3    H257764   4.319   4.962  14.070 -1.8938 -0.4012 -1.0816
12117TIP3   OH257765   5.695   3.939   1.402 -0.4163 -0.6197  0.1591
12117TIP3    H157766   5.702   4.029   1.372 -0.1951 -0.0498  1.8250
12117TIP3    H257767   5.780   3.900   1.382  0.1779  0.1172  1.1051
12118TIP3   OH257768   3.446   0.109  11.748  0.0359 -0.3985 -0.3197
12118TIP3    H157769   3.394   0.153  11.814  2.7340  0.6035  1.3084
12118TIP3    H257770   3.411   0.020  11.745 -1.0748 -0.0541  1.4271
12119TIP3   OH257771   0.116   6.788   2.076 -0.3363  0.3727 -0.1005
12119TIP3    H157772   0.097   6.797   1.982 -0.0844  0.1518 -0.1751
12119TIP3    H257773   0.162   6.704   2.083  0.6725  0.9235  0.0551
12120TIP3   OH257774   3.007   2.082   4.637 -0.0218  0.3883 -0.2248
12120TIP3    H157775   3.005   1.997   4.681 -0.7790 -0.3415 -1.6138
12120TIP3    H257776   2.920   2.119   4.652  0.3370  0.9979  0.4622
12121TIP3   OH257777   2.620   5.801   5.858 -0.4748  0.0561 -0.1354
12121TIP3    H157778   2.604   5.750   5.937  0.1318  0.7701  0.4719
12121TIP3    H257779   2.693   5.858   5.881 -2.5981  2.9050  0.0569
12122TIP3   OH257780   4.722   3.500   1.244  0.1885 -0.2127  0.2645
12122TIP3    H157781   4.633   3.470   1.229 -0.9350  2.7212  0.5429
12122TIP3    H257782   4.730   3.505   1.340  1.2098 -1.8113  0.3117
12123TIP3   OH257783   4.911   2.787  10.657  0.4358 -0.3989  0.5248
12123TIP3    H157784   4.873   2.861  10.609 -0.5453  0.0573  1.9200
12123TIP3    H257785   4.835   2.742  10.696  1.0990 -1.4705  0.6382
12124TIP3   OH257786   6.361   0.311  12.715  0.3193  0.3588  0.1122
12124TIP3    H157787   6.283   0.260  12.738  0.7398 -2.1174 -3.2480
12124TIP3    H257788   6.434   0.259  12.748  0.6771 -0.0760 -1.3199
12125TIP3   OH257789   1.389   4.979  16.180  0.0351 -0.6815  0.4435
12125TIP3    H157790   1.318   4.921  16.153  1.6328 -2.0451 -1.1118
12125TIP3    H257791   1.390   5.047  16.113 -0.1189 -0.3621  0.7609
12126TIP3   OH257792   0.728   2.001   3.766  0.4590  0.4112 -0.4197
12126TIP3    H157793   0.717   2.032   3.856 -0.9814 -3.5171  0.9580
12126TIP3    H257794   0.817   1.967   3.762  0.4880  0.4912 -0.4668
12127TIP3   OH257795   2.792   4.160   5.384 -0.2311  0.2588  0.4772
12127TIP3    H157796   2.816   4.166   5.292 -0.1280  0.0155  0.4904
12127TIP3    H257797   2.765   4.069   5.397  0.6989  0.0331  0.9203
12128TIP3   OH257798   0.452   3.937  11.033  0.1419 -0.0374  0.0905
12128TIP3    H157799   0.438   3.977  10.947 -1.8569  0.1727  0.4619
12128TIP3    H257800   0.423   4.004  11.095  2.3180  0.1317  1.0039
12129TIP3   OH257801   2.939   5.616  17.198 -0.2591  0.0222 -0.3342
12129TIP3    H157802   2.910   5.658  17.117 -0.2640 -0.3712 -0.5409
12129TIP3    H257803   3.034   5.606  17.186 -0.2827 -0.1739 -0.3562
12130TIP3   OH257804   1.834   3.387  14.958  0.1117  0.5430  0.2244
12130TIP3    H157805   1.773   3.384  15.031  1.3715 -0.6315  1.2960
12130TIP3    H257806   1.851   3.295  14.937  0.1415  0.8550 -1.2482
12131TIP3   OH257807   2.586   3.474   0.077 -0.9258 -0.0033 -0.4191
12131TIP3    H157808   2.520   3.543   0.075 -0.3048  0.5871 -0.7433
12131TIP3    H257809   2.549   3.407   0.135 -1.2550  0.8865  0.4245
12132TIP3   OH257810   6.397   2.271   2.153  0.0498 -0.0894 -0.4179
12132TIP3    H157811   6.321   2.301   2.104 -1.0631 -0.4089  1.0627
12132TIP3    H257812   6.422   2.188   2.111 -0.3045  0.0983 -1.0070
12133TIP3   OH257813   0.593   1.142  12.367  0.1565 -0.1923 -0.1318
12133TIP3    H157814   0.613   1.059  12.324 -1.6639  0.0569 -1.5543
12133TIP3    H257815   0.522   1.121  12.428  1.0808 -0.0535  1.0280
12134TIP3   OH257816   4.657   4.712  15.091 -0.0478 -0.7429  0.4827
12134TIP3    H157817   4.632   4.652  15.020 -0.9269  0.5622 -0.3713
12134TIP3    H257818   4.610   4.680  15.168 -2.3292  0.0875 -0.4795
12135TIP3   OH257819   4.439   2.295   5.273 -0.6751  0.2352  0.4551
12135TIP3    H157820   4.378   2.366   5.251  0.1761  0.6386 -0.7386
12135TIP3    H257821   4.504   2.336   5.330 -1.0786  0.0073  1.0781
12136TIP3   OH257822   0.924   2.086  14.480 -0.2328  0.0601 -0.5757
12136TIP3    H157823   0.985   2.055  14.413 -0.3940 -0.3390 -0.5446
12136TIP3    H257824   0.839   2.090  14.435 -0.3016 -0.0038 -0.4538
12137TIP3   OH257825   6.170   6.658   6.131  0.6066  0.0633 -0.4252
12137TIP3    H157826   6.264   6.674   6.121  1.1493 -0.1236  2.9723
12137TIP3    H257827   6.151   6.587   6.070  2.2448  1.1621 -2.3701
12138TIP3   OH257828   5.853   0.018   4.934 -0.1913 -0.3795 -0.7245
12138TIP3    H157829   5.855  -0.017   4.845 -1.7290  0.9989 -1.3653
12138TIP3    H257830   5.768  -0.009   4.969  0.2252 -0.5577  0.2002
12139TIP3   OH257831   0.960   0.950  15.236 -0.0265  0.1383 -0.0710
12139TIP3    H157832   0.889   0.938  15.173 -1.0220  1.0578  0.8368
12139TIP3    H257833   0.956   0.873  15.292 -0.4630  0.2951  0.1174
12140TIP3   OH257834   5.850   5.548   4.568  0.0734  1.2193  0.3675
12140TIP3    H157835   5.868   5.521   4.658  0.5468  2.7343  0.7663
12140TIP3    H257836   5.857   5.643   4.570  1.4572  1.2107 -1.5742
12141TIP3   OH257837   3.330   5.711  16.796  0.0750 -0.2227 -0.0733
12141TIP3    H157838   3.375   5.757  16.867  0.5355  0.2180 -0.6409
12141TIP3    H257839   3.326   5.776  16.726 -1.7639 -0.1207  0.0775
12142TIP3   OH257840   0.605   3.633  13.765 -0.4012 -0.3657  0.0999
12142TIP3    H157841   0.556   3.577  13.826 -0.0703 -0.8055 -0.0324
12142TIP3    H257842   0.692   3.594  13.762 -0.5557 -0.6609 -1.0481
12143TIP3   OH257843   3.086   4.196  13.143 -0.3294  0.0836  0.0251
12143TIP3    H157844   3.149   4.143  13.192 -0.7076  0.7582  1.3008
12143TIP3    H257845   3.003   4.148  13.150 -0.7167  0.8833  1.3482
12144TIP3   OH257846   4.163   5.784   0.847  0.0994  0.2067 -0.0687
12144TIP3    H157847   4.155   5.877   0.867  0.0845  0.5631 -1.6386
12144TIP3    H257848   4.206   5.746   0.924  0.6020  1.5988  0.3526
12145TIP3   OH257849   1.336   6.563   2.216  0.3460  0.0905  0.1788
12145TIP3    H157850   1.424   6.597   2.229  0.1391  2.4803 -3.1930
12145TIP3    H257851   1.280   6.617   2.273  0.8979 -0.5971  1.3957
12146TIP3   OH257852   4.399   5.333  15.244 -0.6477 -0.1800  0.6876
12146TIP3    H157853   4.355   5.342  15.159  0.6758 -3.1074 -0.4573
12146TIP3    H257854   4.395   5.239  15.263  0.5969  0.1689  3.0556
12147TIP3   OH257855   5.572   2.906  10.744 -0.2563  0.6368  0.0022
12147TIP3    H157856   5.610   2.978  10.795 -1.1815  0.2001  1.3758
12147TIP3    H257857   5.478   2.926  10.742 -0.6142 -0.7680  0.8796
12148TIP3   OH257858   6.389   0.476   1.585 -0.1568 -0.1149  0.3026
12148TIP3    H157859   6.460   0.422   1.618 -0.2154  0.8103  2.0939
12148TIP3    H257860   6.422   0.513   1.503  1.9610  1.2429  1.6766
12149TIP3   OH257861   5.849   2.494  13.385 -0.5208 -0.4223 -0.0955
12149TIP3    H157862   5.848   2.589  13.371 -1.1065 -0.4068  0.0111
12149TIP3    H257863   5.781   2.479  13.451  0.2725 -0.8030  0.6545
12150TIP3   OH257864   0.284   0.451  14.662  0.2435  0.1781  0.3607
12150TIP3    H157865   0.288   0.547  14.667  1.4041  0.2041 -0.5898
12150TIP3    H257866   0.351   0.422  14.724 -0.1228 -0.0319  0.6640
12151TIP3   OH257867   0.807   0.755  12.543 -0.2500  0.0511  0.1622
12151TIP3    H157868   0.792   0.838  12.588  0.0652 -0.7730  1.8705
12151TIP3    H257869   0.890   0.767  12.498  0.9755 -0.0316  2.2669
12152TIP3   OH257870   5.439   3.312   3.634 -0.2676  0.6127  0.3386
12152TIP3    H157871   5.355   3.300   3.679 -0.5557  1.1104 -0.0507
12152TIP3    H257872   5.418   3.369   3.560  0.4154  0.7444  0.2404
12153TIP3   OH257873   5.077   0.249   3.585  0.6043 -0.6501 -0.1741
12153TIP3    H157874   5.130   0.293   3.652  1.8327 -1.8262 -0.3205
12153TIP3    H257875   4.990   0.287   3.595  1.3676  1.0984  0.3235
12154TIP3   OH257876   1.362   0.682   4.343  0.0842 -0.6488  0.1817
12154TIP3    H157877   1.407   0.747   4.289 -0.4636 -0.3788  0.0449
12154TIP3    H257878   1.417   0.604   4.337 -0.1928 -0.7677 -1.1475
12155TIP3   OH257879   2.344   1.683   2.190 -0.3284  0.3020 -0.7590
12155TIP3    H157880   2.411   1.664   2.125 -1.9884 -0.2542 -2.3899
12155TIP3    H257881   2.263   1.690   2.139 -2.0973 -2.2884  1.4168
12156TIP3   OH257882   4.831   0.368   4.570 -0.2173  0.1098 -0.4315
12156TIP3    H157883   4.761   0.423   4.535  0.3803  0.5989 -0.8768
12156TIP3    H257884   4.855   0.310   4.498  0.6547  0.7642 -0.6918
12157TIP3   OH257885   0.715   3.678   2.140  0.3285 -0.1395 -0.3050
12157TIP3    H157886   0.707   3.717   2.227  0.4274  1.1010 -0.8233
12157TIP3    H257887   0.696   3.750   2.080  1.3252 -0.6921 -1.3269
12158TIP3   OH257888   6.246   3.297   5.539  0.0979  0.1142  0.5742
12158TIP3    H157889   6.249   3.385   5.501 -0.0643 -0.5048 -0.9410
12158TIP3    H257890   6.278   3.240   5.469  1.0782 -0.9449  1.8490
12159TIP3   OH257891   1.788   4.375   3.163 -0.2748  0.4514  0.0845
12159TIP3    H157892   1.718   4.425   3.123  0.0221  0.6817 -0.1499
12159TIP3    H257893   1.827   4.325   3.091  0.0814  0.6541  0.1317
12160TIP3   OH257894   6.300   6.458  13.799 -0.0817 -0.5374  0.0402
12160TIP3    H157895   6.222   6.455  13.854  0.2823 -0.2824  0.5762
12160TIP3    H257896   6.267   6.467  13.710 -0.6622 -0.5266  0.2560
12161TIP3   OH257897   5.957   0.555   5.495  0.0187  0.3019  0.8625
12161TIP3    H157898   5.933   0.577   5.585  0.7673  2.4131  0.5976
12161TIP3    H257899   5.994   0.636   5.459  1.7651 -1.0727 -0.6655
12162TIP3   OH257900   3.593   3.931   3.659 -0.0443 -0.5399 -0.2719
12162TIP3    H157901   3.679   3.949   3.697 -0.0058  1.3423 -1.1049
12162TIP3    H257902   3.542   3.894   3.731  0.2386  2.2155  1.4892
12163TIP3   OH257903   1.595   3.908  12.769  0.1067  0.0363  0.1140
12163TIP3    H157904   1.560   3.976  12.711 -0.5513  0.4608  0.9822
12163TIP3    H257905   1.634   3.843  12.710 -1.6822 -0.1874 -0.8800
12164TIP3   OH257906   2.901   3.981  11.153  0.2040 -0.3492  0.0212
12164TIP3    H157907   2.964   4.050  11.135  1.3278 -0.5035  2.7768
12164TIP3    H257908   2.876   3.948  11.067  3.0750  0.4342 -1.2424
12165TIP3   OH257909   0.125   2.602   2.550  0.1198  0.2169  0.0491
12165TIP3    H157910   0.220   2.600   2.558  0.2534  1.8804 -0.7724
12165TIP3    H257911   0.095   2.650   2.627 -0.1837 -1.3106  0.9264
12166TIP3   OH257912   0.402   1.481   4.233  0.3702  0.1548 -0.0264
12166TIP3    H157913   0.451   1.503   4.154  1.4994  2.0467  1.1162
12166TIP3    H257914   0.468   1.478   4.303 -0.6674 -0.8838  0.9651
12167TIP3   OH257915   6.584   4.118   1.908  0.9224 -0.1071  0.1938
12167TIP3    H157916   6.608   4.146   1.997  1.7753 -1.4385  0.3958
12167TIP3    H257917   6.488   4.123   1.908  0.8815 -0.4990  1.3384
12168TIP3   OH257918   3.304   3.484  12.399 -0.0615 -0.1057 -0.0997
12168TIP3    H157919   3.375   3.514  12.342  0.3458  0.0451  0.4865
12168TIP3    H257920   3.235   3.457  12.338  0.1212  0.6511 -0.6571
12169TIP3   OH257921   1.878   5.161   3.059 -0.1656 -0.4978 -0.4667
12169TIP3    H157922   1.948   5.196   3.004 -1.2302  0.8921 -0.9878
12169TIP3    H257923   1.919   5.146   3.144  0.8150  0.0659 -0.8310
12170TIP3   OH257924   5.665   4.124  13.782 -0.0670 -0.8437 -0.6141
12170TIP3    H157925   5.700   4.089  13.700 -0.8114 -1.1366 -0.8115
12170TIP3    H257926   5.664   4.050  13.842  0.4657 -0.6323 -0.3417
12171TIP3   OH257927   4.946   3.605   1.565  0.5038 -0.2311 -0.3781
12171TIP3    H157928   4.950   3.518   1.605  1.7889 -0.5809 -1.2028
12171TIP3    H257929   5.032   3.644   1.582  0.9549 -0.2278 -2.3849
12172TIP3   OH257930   4.969   4.273  15.572  0.0167 -0.0010 -0.8457
12172TIP3    H157931   4.991   4.231  15.489  1.8438 -1.9967  0.5458
12172TIP3    H257932   4.893   4.223  15.605  0.5558 -0.5594 -0.4153
12173TIP3   OH257933   0.122   3.412   1.528  0.1549  0.1616 -0.8930
12173TIP3    H157934   0.088   3.423   1.440 -2.5860 -1.3248 -0.1227
12173TIP3    H257935   0.072   3.474   1.582  0.9423  0.2125 -0.1916
12174TIP3   OH257936   3.893   5.820  14.320  0.2735  0.2675  0.2379
12174TIP3    H157937   3.965   5.834  14.258  0.6283 -1.4155  0.2476
12174TIP3    H257938   3.816   5.852  14.273  0.7037  0.0561 -0.6357
12175TIP3   OH257939   3.255   6.109   2.672  0.0101  0.1805 -0.2738
12175TIP3    H157940   3.216   6.187   2.632  0.0652  0.0381 -0.6140
12175TIP3    H257941   3.288   6.058   2.597 -3.8501 -2.3271 -0.5775
12176TIP3   OH257942   3.851   1.241   4.387 -0.2030 -0.5977 -0.5837
12176TIP3    H157943   3.918   1.309   4.388  0.0445 -0.8323  0.4161
12176TIP3    H257944   3.899   1.160   4.368 -0.5372 -0.4814 -2.0698
12177TIP3   OH257945   6.101   5.142  16.753 -0.0964  0.8783  0.2630
12177TIP3    H157946   6.185   5.140  16.707 -0.3610 -0.1129 -0.2103
12177TIP3    H257947   6.120   5.104  16.839  0.1689  1.7242  0.5890
12178TIP3   OH257948   0.597   1.071  13.806  0.1433  0.3642  0.0621
12178TIP3    H157949   0.528   1.055  13.742 -0.0497  2.7665 -0.3973
12178TIP3    H257950   0.552   1.108  13.881  0.7009  0.0227  0.5709
12179TIP3   OH257951   3.478   5.232   3.622 -0.2727  0.0429  0.1087
12179TIP3    H157952   3.450   5.282   3.546  0.3836  0.3582  0.0675
12179TIP3    H257953   3.522   5.296   3.678 -0.2409 -0.3013  0.4848
12180TIP3   OH257954   0.526   6.688   1.611  0.3461 -0.5116  0.2845
12180TIP3    H157955   0.599   6.747   1.629  0.4128  0.0411 -1.6109
12180TIP3    H257956   0.535   6.666   1.518 -2.2619  0.1092 -0.2038
12181TIP3   OH257957   1.120   4.739   0.073 -0.1836 -0.1608 -0.1775
12181TIP3    H157958   1.121   4.686  -0.006 -1.4232  2.0408 -1.7743
12181TIP3    H257959   1.076   4.820   0.047  0.8633  1.3212  2.3417
12182TIP3   OH257960   1.923   5.935   3.023 -0.5262  0.5157 -0.5854
12182TIP3    H157961   1.936   5.970   3.111 -0.0982 -0.1416 -0.3862
12182TIP3    H257962   2.004   5.956   2.977 -0.1419 -0.4931 -0.3727
12183TIP3   OH257963   5.704   6.609  12.826 -0.5263  0.1740 -0.4971
12183TIP3    H157964   5.765   6.619  12.752 -0.3030  0.3835 -0.2887
12183TIP3    H257965   5.626   6.656  12.799 -1.3003 -1.5838 -1.5219
12184TIP3   OH257966   3.178   2.064   1.739 -0.2401  0.2117  0.1148
12184TIP3    H157967   3.213   2.111   1.815  1.0316 -0.7093  0.1554
12184TIP3    H257968   3.144   1.982   1.775 -0.4423  0.1543 -0.2003
12185TIP3   OH257969   3.513   6.011  17.190 -0.1302  0.2924 -0.7553
12185TIP3    H157970   3.550   5.985  17.275 -2.4315  0.1877  0.2778
12185TIP3    H257971   3.585   6.058  17.147  1.6738 -1.1640  0.4794
12186TIP3   OH257972   5.553   2.381   4.571 -0.1180 -0.3595  0.0352
12186TIP3    H157973   5.540   2.476   4.573 -0.0663 -0.3598  1.4420
12186TIP3    H257974   5.630   2.368   4.516  1.1315  0.5976  1.5017
12187TIP3   OH257975   2.825   5.875   0.818 -0.5789 -0.0732 -0.5114
12187TIP3    H157976   2.760   5.910   0.878  1.7610 -2.4140  3.8486
12187TIP3    H257977   2.902   5.929   0.832 -0.1651 -0.2174 -2.0760
12188TIP3   OH257978   5.467   6.089  14.222  0.3475 -0.3037  0.1389
12188TIP3    H157979   5.493   6.008  14.178  1.0566 -0.3026  0.5501
12188TIP3    H257980   5.540   6.111  14.279 -0.3764 -0.0611  0.9942
12189TIP3   OH257981   0.206   0.353  15.996  0.1793 -0.3303 -0.2168
12189TIP3    H157982   0.290   0.398  15.985  0.4971 -0.8364  0.0661
12189TIP3    H257983   0.197   0.341  16.090 -0.2883 -0.1486 -0.2347
12190TIP3   OH257984   0.209   4.703   0.474 -0.1077 -0.0570  0.5533
12190TIP3    H157985   0.199   4.615   0.437 -1.0483  1.1947 -2.5809
12190TIP3    H257986   0.290   4.700   0.524  0.5042 -2.4094 -0.4454
12191TIP3   OH257987   6.107   5.243   6.055  0.3266  0.3961  0.3896
12191TIP3    H157988   6.155   5.203   6.127  0.5707 -0.4124 -0.1995
12191TIP3    H257989   6.025   5.193   6.050  0.7375 -0.2296 -0.5055
12192TIP3   OH257990   0.600   5.487   5.068  0.6028  0.0348 -0.3194
12192TIP3    H157991   0.679   5.463   5.020  0.2453  0.2255 -1.0234
12192TIP3    H257992   0.602   5.583   5.070 -0.5255  0.1406 -1.9772
12193TIP3   OH257993   0.587   0.502   1.070 -0.5531  0.0754 -0.1196
12193TIP3    H157994   0.568   0.430   1.129 -0.6696  2.5400  3.1215
12193TIP3    H257995   0.502   0.537   1.045 -0.4802 -0.2671 -0.8844
12194TIP3   OH257996   2.818   5.871   2.516  0.5263  0.3110 -0.4178
12194TIP3    H157997   2.843   5.783   2.488  1.5196 -0.4182  2.4494
12194TIP3    H257998   2.724   5.875   2.503  0.2854 -1.6459  0.4934
12195TIP3   OH257999   5.787   6.351  15.560  0.1155 -0.2616 -0.0935
12195TIP3    H158000   5.751   6.312  15.639 -0.1420 -1.2472 -0.6808
12195TIP3    H258001   5.848   6.285  15.527  0.9110  0.5256 -0.2240
12196TIP3   OH258002   0.603   0.630   2.716 -0.1776 -0.2596 -0.3752
12196TIP3    H158003   0.641   0.574   2.647 -0.5534 -0.6097 -0.3027
12196TIP3    H258004   0.603   0.574   2.794  1.6900  0.6206  0.3312
12197TIP3   OH258005   0.438   5.743  16.010 -0.1032 -0.0647 -0.2022
12197TIP3    H158006   0.381   5.677  16.050  0.9092 -0.2901  0.9131
12197TIP3    H258007   0.524   5.702  16.006  0.5690  1.1951  0.5943
12198TIP3   OH258008   4.992   1.088   5.550  0.2160  0.2085 -0.2334
12198TIP3    H158009   5.007   1.058   5.461 -0.7798 -0.1099 -0.3061
12198TIP3    H258010   5.041   1.028   5.605  0.5963  0.2284 -0.5501
12199TIP3   OH258011   3.312   2.598  16.095 -0.0308 -0.3522  0.3967
12199TIP3    H158012   3.287   2.529  16.156  0.2379  0.2218  1.1717
12199TIP3    H258013   3.264   2.578  16.015 -0.4211 -1.0910  0.8089
12200TIP3   OH258014   4.688   4.346  12.371 -0.0679 -0.0696 -0.2072
12200TIP3    H158015   4.770   4.304  12.344  1.3031  0.5543  2.5829
12200TIP3    H258016   4.681   4.324  12.464 -3.0789 -0.0287 -0.3567
12201TIP3   OH258017   1.431   6.114   1.314  0.0173  0.4776  0.3248
12201TIP3    H158018   1.371   6.067   1.372 -0.0011  1.7682  1.4001
12201TIP3    H258019   1.476   6.046   1.265  0.3240 -0.7007  2.1532
12202TIP3   OH258020   4.205   0.568   3.046 -0.3348  0.1462  0.3444
12202TIP3    H158021   4.225   0.520   2.966  1.5111  1.9756 -0.3692
12202TIP3    H258022   4.111   0.588   3.040 -0.4883 -0.8451 -0.7172
12203TIP3   OH258023   4.343   0.061  12.635  0.1589  0.1451  0.0982
12203TIP3    H158024   4.271   0.060  12.698 -1.1020  0.5434 -1.2898
12203TIP3    H258025   4.359   0.153  12.618 -0.1961  0.0349 -0.9028
12204TIP3   OH258026   4.947   5.639  14.417 -0.2325  0.0655 -0.4893
12204TIP3    H158027   4.957   5.568  14.354  2.0229  0.7129 -0.9479
12204TIP3    H258028   4.879   5.608  14.477  0.2079 -2.1963 -1.0487
12205TIP3   OH258029   0.512   0.178  13.073  0.7227 -0.2330  0.0570
12205TIP3    H158030   0.528   0.172  12.978  0.4675 -0.3473  0.0207
12205TIP3    H258031   0.421   0.206  13.080  0.6107 -0.6373  0.2716
12206TIP3   OH258032   4.410   6.631   5.603  0.0529  0.4322  0.2511
12206TIP3    H158033   4.499   6.605   5.626  0.4846  1.3900 -0.2707
12206TIP3    H258034   4.364   6.548   5.587  1.0286 -0.0539 -0.1284
12207TIP3   OH258035   5.075   6.017   1.257  0.6652  0.1066  0.6339
12207TIP3    H158036   5.145   5.999   1.319  1.1469 -0.1520  0.0209
12207TIP3    H258037   5.072   5.940   1.200 -0.7234 -0.2991  1.2052
12208TIP3   OH258038   0.784   2.306   1.646  0.4989  0.0684  0.3954
12208TIP3    H158039   0.788   2.399   1.626  2.2569  0.0637  0.5751
12208TIP3    H258040   0.699   2.294   1.690  1.3169  2.0668  2.7162
12209TIP3   OH258041   1.174   6.771   1.666  0.2251  0.2929  0.8307
12209TIP3    H158042   1.081   6.790   1.657 -0.0007 -1.3892 -1.8388
12209TIP3    H258043   1.218   6.849   1.633 -0.3857 -0.0682 -0.9583
12210TIP3   OH258044   2.734   2.059  14.547  0.0557  0.2803 -0.5277
12210TIP3    H158045   2.765   2.149  14.540  1.5878 -0.0189  1.5215
12210TIP3    H258046   2.720   2.045  14.641 -1.2243 -1.2942 -0.9020
12211TIP3   OH258047   2.269   1.742  13.586  0.1388  0.0730  0.1591
12211TIP3    H158048   2.260   1.739  13.681 -0.2907 -0.9582  0.0925
12211TIP3    H258049   2.216   1.670  13.554 -0.9212  1.3019 -0.9649
12212TIP3   OH258050   3.253   5.399   0.241  0.4505 -0.0180  0.1756
12212TIP3    H158051   3.326   5.454   0.270  0.3213  0.0892  0.2973
12212TIP3    H258052   3.178   5.458   0.236  0.8546  0.3772 -2.1587
12213TIP3   OH258053   0.067   4.177  15.181 -0.1998 -0.4260 -1.0047
12213TIP3    H158054   0.151   4.180  15.134 -1.0047 -1.4425 -2.5836
12213TIP3    H258055   0.002   4.198  15.114 -1.1961  0.8180  0.3054
12214TIP3   OH258056   2.111   2.727  12.336  0.3517  0.0926  0.3000
12214TIP3    H158057   2.088   2.683  12.255 -1.4484 -1.1437  1.4136
12214TIP3    H258058   2.104   2.659  12.404 -2.0510  1.8748  2.0200
12215TIP3   OH258059   5.096   5.554  14.749  0.4630 -0.6344 -0.3116
12215TIP3    H158060   5.128   5.591  14.666  1.9531 -1.0923  0.0421
12215TIP3    H258061   5.006   5.527  14.729  0.0597  1.1515 -1.1889
12216TIP3   OH258062   1.676   5.927   1.630 -0.1011 -0.3591  0.3145
12216TIP3    H158063   1.654   5.875   1.552  2.2611 -0.2498 -0.4809
12216TIP3    H258064   1.605   5.991   1.635 -0.6316 -0.7472 -1.3904
12217TIP3   OH258065   4.773   5.298  15.414  0.5802  0.2093  0.1462
12217TIP3    H158066   4.747   5.343  15.333  0.0455 -2.1995 -1.1061
12217TIP3    H258067   4.750   5.206  15.399  1.7545 -0.5464  2.5147
12218TIP3   OH258068   4.255   2.990  16.664  0.0518  0.0614 -0.2019
12218TIP3    H158069   4.178   2.944  16.698 -0.3863  0.5752 -0.4781
12218TIP3    H258070   4.265   3.065  16.722  0.9635 -0.5435  0.4509
12219TIP3   OH258071   5.984   6.541   1.633 -0.1604  0.0561  0.2546
12219TIP3    H158072   6.032   6.491   1.567  1.5647 -1.3507  2.4305
12219TIP3    H258073   5.921   6.593   1.583 -2.4160 -4.4990 -2.2516
12220TIP3   OH258074   4.242   0.366   5.020 -0.5539  0.1163 -0.4605
12220TIP3    H158075   4.320   0.420   5.036 -0.4026 -0.1202 -0.3941
12220TIP3    H258076   4.210   0.345   5.108  0.1825 -1.0499 -0.4559
12221TIP3   OH258077   4.672   1.175  14.023 -0.8558 -0.5878 -0.4883
12221TIP3    H158078   4.677   1.144  14.113  0.7443  1.0248  0.0625
12221TIP3    H258079   4.613   1.250  14.027 -0.4185 -0.2272 -0.6647
12222TIP3   OH258080   2.488   4.562  16.984  0.1931 -0.2068 -0.0413
12222TIP3    H158081   2.459   4.653  16.977  0.0461 -0.3161 -1.0084
12222TIP3    H258082   2.537   4.546  16.903  1.9156 -0.4127  0.9848
12223TIP3   OH258083   5.612   1.965   5.359  0.3451 -0.4618 -0.0673
12223TIP3    H158084   5.677   1.978   5.428  0.4247 -1.4162  0.0559
12223TIP3    H258085   5.658   1.989   5.278  0.6222 -0.4455  0.0943
12224TIP3   OH258086   4.909   2.855  14.239 -0.0433 -0.2357  0.3062
12224TIP3    H158087   4.972   2.923  14.214 -0.4031  0.2696  0.7518
12224TIP3    H258088   4.963   2.789  14.284  0.3615 -0.4225 -0.4394
12225TIP3   OH258089   4.711   1.112  15.349 -0.4161 -0.0638  0.1000
12225TIP3    H158090   4.744   1.126  15.260  1.4756 -1.9945  0.4044
12225TIP3    H258091   4.622   1.077  15.336 -0.7178  1.0332 -0.9471
12226TIP3   OH258092   3.769   3.477   0.606 -0.0614  0.0838  0.4624
12226TIP3    H158093   3.726   3.442   0.684  1.2279 -1.4741  0.5097
12226TIP3    H258094   3.696   3.495   0.546 -0.9717  0.0519  1.5144
12227TIP3   OH258095   0.277   2.575  13.656  0.1586 -0.6964  0.0057
12227TIP3    H158096   0.208   2.541  13.600 -0.9697 -0.0035  0.9289
12227TIP3    H258097   0.286   2.510  13.725 -0.3142 -0.2993  0.4517
12228TIP3   OH258098   3.183   0.789   2.458  0.6302  0.1565  0.3840
12228TIP3    H158099   3.164   0.745   2.541  1.2830 -0.4742  0.2129
12228TIP3    H258100   3.103   0.837   2.437  0.9866  1.6871  2.1985
12229TIP3   OH258101   0.598   5.725  13.348  0.5390  0.0354 -0.5008
12229TIP3    H158102   0.628   5.791  13.285 -0.1106 -0.0107 -0.8709
12229TIP3    H258103   0.528   5.770  13.396  0.1740 -0.3398 -0.6761
12230TIP3   OH258104   1.579   6.686  14.297 -0.0858  0.2943  0.0029
12230TIP3    H158105   1.520   6.612  14.312 -1.2402  0.5676 -2.5718
12230TIP3    H258106   1.521   6.763  14.296  1.0366  1.2632  2.2399
12231TIP3   OH258107   1.040   2.742  12.346 -0.2132 -0.0171  0.6070
12231TIP3    H158108   1.042   2.658  12.392  1.2517 -1.0152 -1.1477
12231TIP3    H258109   0.969   2.732  12.282  0.5159 -0.2725 -0.1778
12232TIP3   OH258110   0.773   4.284  15.700 -0.4425  0.6305 -0.1758
12232TIP3    H158111   0.846   4.326  15.655  1.9042 -0.8627  1.9221
12232TIP3    H258112   0.743   4.215  15.640  1.2060  0.0238 -0.3531
12233TIP3   OH258113   4.221   6.145  11.788  0.4985  0.6751 -0.0524
12233TIP3    H158114   4.128   6.137  11.770  0.4480 -2.0226  0.9561
12233TIP3    H258115   4.247   6.059  11.821  3.2509  1.4873  0.1839
12234TIP3   OH258116   2.094   5.500  16.151 -0.1859  0.0987 -0.1341
12234TIP3    H158117   2.086   5.411  16.187 -0.5210 -0.3424 -1.2441
12234TIP3    H258118   2.126   5.553  16.224  2.3630 -1.3896 -0.0410
12235TIP3   OH258119   6.642   3.189   2.857  0.2934  0.9230 -0.1710
12235TIP3    H158120   6.698   3.199   2.779  2.2787  0.7287  1.1454
12235TIP3    H258121   6.642   3.095   2.873 -0.6145  0.9001 -0.2530
12236TIP3   OH258122   5.710   3.592   0.424 -0.9576 -0.3283  0.0233
12236TIP3    H158123   5.640   3.649   0.394 -0.2365  1.6364  1.7781
12236TIP3    H258124   5.781   3.606   0.361 -1.4742 -0.8719 -0.6918
12237TIP3   OH258125   0.230   0.977  16.811  0.4289 -0.3168 -0.0248
12237TIP3    H158126   0.297   1.045  16.801  0.1450 -0.1856 -1.1489
12237TIP3    H258127   0.225   0.962  16.905  2.0608 -0.3489  0.0903
12238TIP3   OH258128   6.290   6.590  14.430 -0.3491  0.2628  0.2701
12238TIP3    H158129   6.205   6.551  14.412 -0.1228  0.0180 -0.2848
12238TIP3    H258130   6.272   6.660  14.493 -0.5841 -1.7043  2.5458
12239TIP3   OH258131   3.419   3.978  11.505  0.0010 -0.4139  0.2182
12239TIP3    H158132   3.399   4.000  11.414  1.1438 -1.7441 -0.3987
12239TIP3    H258133   3.514   3.980  11.510 -0.0580 -0.2598  1.4171
12240TIP3   OH258134   2.135   2.427   5.694  0.0766 -0.6483  0.4277
12240TIP3    H158135   2.166   2.446   5.605  1.1330 -0.7448  0.7580
12240TIP3    H258136   2.215   2.417   5.745 -0.5208 -0.4958  1.4182
12241TIP3   OH258137   5.740   5.486   5.351  0.0313 -0.0297  0.3030
12241TIP3    H158138   5.834   5.500   5.365 -0.1704  0.0125  1.7036
12241TIP3    H258139   5.697   5.546   5.412 -0.8773 -1.7473  1.4243
12242TIP3   OH258140   4.158   0.505   6.391 -0.3259 -0.1490  0.3465
12242TIP3    H158141   4.218   0.570   6.354 -0.4569  0.1766  0.6927
12242TIP3    H258142   4.179   0.424   6.345  0.7117 -0.1568  0.8104
12243TIP3   OH258143   3.224   2.543  15.209  0.2158  0.2180 -0.0084
12243TIP3    H158144   3.261   2.581  15.129  0.7507 -1.5567 -0.6325
12243TIP3    H258145   3.209   2.619  15.265  1.6387  1.3340 -1.0389
12244TIP3   OH258146   4.311   0.636   1.446  0.0665 -0.0532  0.1269
12244TIP3    H158147   4.321   0.626   1.352 -0.3762  1.5327 -0.1135
12244TIP3    H258148   4.216   0.633   1.461 -0.0387  1.9576  0.1851
12245TIP3   OH258149   2.206   0.787   0.358  0.1106  0.0836  0.0317
12245TIP3    H158150   2.272   0.737   0.405 -0.5512 -0.4778  0.3805
12245TIP3    H258151   2.123   0.746   0.381 -0.1749 -0.9866 -2.5564
12246TIP3   OH258152   2.992   5.436  16.904 -0.1363  0.0066 -0.0653
12246TIP3    H158153   3.051   5.485  16.846 -0.0622  0.7950  0.6555
12246TIP3    H258154   2.977   5.495  16.978 -0.8519 -0.6783  0.3461
12247TIP3   OH258155   4.124   2.613  11.593  0.5277 -0.3121 -0.3238
12247TIP3    H158156   4.065   2.546  11.558 -1.0531 -0.2357  1.9829
12247TIP3    H258157   4.079   2.696  11.577  1.0787 -0.0346 -0.4912
12248TIP3   OH258158   5.726   6.522  10.239  1.0153 -0.1729  0.4165
12248TIP3    H158159   5.819   6.521  10.216  1.6132 -0.8733  2.6834
12248TIP3    H258160   5.718   6.464  10.314 -1.8025 -2.5825 -1.4983
12249TIP3   OH258161   2.251   5.638   1.746  0.4674 -0.2086 -0.0895
12249TIP3    H158162   2.267   5.544   1.757 -1.7260 -0.4769  1.6444
12249TIP3    H258163   2.247   5.672   1.836  0.3266  1.3547 -0.6644
12250TIP3   OH258164   3.575   5.175  12.957 -0.0407  0.1514 -0.0072
12250TIP3    H158165   3.565   5.243  12.890 -0.3486 -0.6895 -0.8422
12250TIP3    H258166   3.621   5.103  12.912 -2.0802 -1.2682  0.0500
12251TIP3   OH258167   4.477   3.643   4.804  0.0453 -0.0906  0.1103
12251TIP3    H158168   4.421   3.720   4.793 -1.4749 -0.9883  1.2260
12251TIP3    H258169   4.416   3.570   4.810  1.4393 -1.3516 -0.4507
12252TIP3   OH258170   3.726   2.141  16.771  0.2620 -0.1170 -0.2954
12252TIP3    H158171   3.779   2.214  16.740  2.1868 -1.2751  0.0818
12252TIP3    H258172   3.710   2.088  16.692  0.3348 -0.1583 -0.2828
12253TIP3   OH258173   2.740   3.711   1.377 -0.0410 -0.4652 -0.0753
12253TIP3    H158174   2.794   3.790   1.383  1.3823 -1.3543 -0.5819
12253TIP3    H258175   2.737   3.691   1.284 -1.3657 -0.3834 -0.0654
12254TIP3   OH258176   0.684   2.036  14.060 -0.0186 -0.1208 -0.1847
12254TIP3    H158177   0.751   2.012  14.124  1.7571  2.3718 -0.9444
12254TIP3    H258178   0.619   2.084  14.110  0.5364  0.4075  0.0451
12255TIP3   OH258179   4.781   4.356   0.444  0.3873  0.1763  0.1432
12255TIP3    H158180   4.802   4.433   0.390  1.2884  0.8449  1.3857
12255TIP3    H258181   4.716   4.388   0.507 -0.6152 -0.5817 -0.4695
12256TIP3   OH258182   6.135   5.335  12.316  0.7521  0.1996 -0.3488
12256TIP3    H158183   6.184   5.379  12.245  0.2859  1.6716  0.2025
12256TIP3    H258184   6.154   5.388  12.393 -2.3452  1.3427 -0.2639
12257TIP3   OH258185   1.246   1.720   1.888  0.0800 -0.4521  0.0846
12257TIP3    H158186   1.165   1.689   1.929  0.7034 -1.0091  0.9308
12257TIP3    H258187   1.253   1.811   1.916 -0.2335 -0.4167  0.0481
12258TIP3   OH258188   1.736   3.377  17.217  0.0144  0.7177  0.4547
12258TIP3    H158189   1.716   3.393  17.309 -0.9486 -1.1146  0.6124
12258TIP3    H258190   1.728   3.282  17.207 -2.4620  1.0536 -2.0651
12259TIP3   OH258191   5.557   3.888  14.305  0.4627 -0.9465  0.3356
12259TIP3    H158192   5.497   3.816  14.324  1.5454 -1.7502  0.8811
12259TIP3    H258193   5.543   3.908  14.213  0.3231 -2.0492  0.1047
12260TIP3   OH258194   2.641   4.581  12.679 -0.1711 -0.2112 -0.4504
12260TIP3    H158195   2.695   4.614  12.607  1.5419  1.7735  1.5963
12260TIP3    H258196   2.557   4.626  12.669  0.5028  1.0827 -0.4906
12261TIP3   OH258197   5.708   3.872  12.376 -0.5502 -0.3746 -0.0307
12261TIP3    H158198   5.734   3.795  12.426 -1.5225  0.7906  2.3998
12261TIP3    H258199   5.660   3.837  12.301  0.3080 -2.1540  0.1985
12262TIP3   OH258200   4.229   5.657   2.441 -0.6086  0.6552 -0.2889
12262TIP3    H158201   4.255   5.570   2.411 -1.3554  0.5089 -0.5456
12262TIP3    H258202   4.273   5.717   2.381  1.8416  0.5936  1.3206
12263TIP3   OH258203   3.212   2.876  15.212 -0.2111 -0.1885  0.4544
12263TIP3    H158204   3.251   2.928  15.282  0.0713 -1.7247  1.4731
12263TIP3    H258205   3.168   2.941  15.156 -0.8390  1.0291  2.2702
12264TIP3   OH258206   4.824   1.369   3.313  0.0312 -0.5717 -0.2655
12264TIP3    H158207   4.807   1.457   3.280  1.0381 -0.2783 -0.0452
12264TIP3    H258208   4.838   1.316   3.235 -0.9322 -0.6196 -0.4106
12265TIP3   OH258209   2.248   6.640   0.304 -0.3682  0.1828 -0.0720
12265TIP3    H158210   2.291   6.592   0.233 -1.6375  0.4076 -1.0273
12265TIP3    H258211   2.303   6.624   0.381  0.5285 -0.8340 -0.8965
12266TIP3   OH258212   5.822   6.431   5.275  0.4581 -0.4771 -0.4340
12266TIP3    H158213   5.885   6.359   5.268  0.1260 -0.7666 -0.4762
12266TIP3    H258214   5.871   6.509   5.249  1.9090 -0.0757  2.9173
12267TIP3   OH258215   0.972   4.648  12.004 -0.2225 -0.0670  0.6600
12267TIP3    H158216   0.986   4.591  11.928 -1.9969  1.1469 -0.6574
12267TIP3    H258217   1.056   4.647  12.050  0.5715 -1.7042 -0.7042
12268TIP3   OH258218   1.193   5.297  13.573  0.8077 -0.0908  0.3101
12268TIP3    H158219   1.242   5.225  13.534 -0.6026 -0.7432 -0.3063
12268TIP3    H258220   1.252   5.372  13.567  2.6362 -1.3083  1.6893
12269TIP3   OH258221   6.415   0.407   2.228 -0.3915 -0.3999  0.2953
12269TIP3    H158222   6.388   0.462   2.154 -1.1359 -0.6016  0.4103
12269TIP3    H258223   6.366   0.326   2.216 -0.1446 -0.6145  0.7451
12270TIP3   OH258224   6.725   2.792  10.466 -0.0179 -0.5600  0.4108
12270TIP3    H158225   6.817   2.819  10.473  0.0021 -0.6329  0.4259
12270TIP3    H258226   6.676   2.874  10.468  0.0005 -0.5631  1.1664
12271TIP3   OH258227   0.659   3.194   5.591  0.3751  0.2734 -0.0589
12271TIP3    H158228   0.581   3.152   5.554  0.2834  1.1588 -0.9040
12271TIP3    H258229   0.726   3.126   5.590 -1.0136 -1.3737  3.1328
12272TIP3   OH258230   3.408   2.989  17.003  0.3535 -0.0401  0.8123
12272TIP3    H158231   3.459   2.938  17.067  1.4385  0.2716  0.2235
12272TIP3    H258232   3.461   2.987  16.923  0.4467  2.0173  0.7762
12273TIP3   OH258233   2.258   3.778  16.015  0.0702  0.2596 -0.2714
12273TIP3    H158234   2.319   3.794  15.943  0.9544  0.7695  0.5670
12273TIP3    H258235   2.308   3.800  16.094  0.0620 -2.8917  0.7261
12274TIP3   OH258236   6.279   0.035   0.193  0.1668 -0.4747 -0.5785
12274TIP3    H158237   6.203   0.050   0.250 -0.1370 -1.0284 -0.8246
12274TIP3    H258238   6.354   0.067   0.243 -0.1674 -0.4095 -0.1152
12275TIP3   OH258239   0.756   4.482   0.848 -0.4704  0.3232 -0.6237
12275TIP3    H158240   0.739   4.536   0.771 -0.1978 -0.8616 -1.5246
12275TIP3    H258241   0.748   4.392   0.818  0.3084 -0.1798  0.5734
12276TIP3   OH258242   2.865   0.056  13.630 -0.2371 -0.2023  0.3515
12276TIP3    H158243   2.932   0.124  13.623  0.0126 -0.4178  0.6498
12276TIP3    H258244   2.782   0.105  13.637 -0.0205  0.0757  1.0301
12277TIP3   OH258245   2.217   4.183  12.580  0.1019  0.6553  0.3338
12277TIP3    H158246   2.139   4.216  12.536  0.4366 -0.1583 -0.9210
12277TIP3    H258247   2.185   4.116  12.639 -0.1933  0.6018  0.1141
12278TIP3   OH258248   0.423   4.841  12.845 -0.0897 -0.2573 -0.5008
12278TIP3    H158249   0.485   4.799  12.785  2.2721  0.4129  1.3103
12278TIP3    H258250   0.411   4.929  12.809  1.4553  0.2031  0.0481
12279TIP3   OH258251   5.464   0.004  13.633 -0.1061  0.0519  0.0796
12279TIP3    H158252   5.453  -0.088  13.654  1.3987  0.1899  1.7614
12279TIP3    H258253   5.558   0.014  13.615 -0.6164  0.8122 -2.7303
12280TIP3   OH258254   3.910   0.742  16.183 -0.6401 -0.1819  0.1901
12280TIP3    H158255   3.885   0.688  16.258 -0.6658 -1.7419 -0.9026
12280TIP3    H258256   3.862   0.706  16.109  0.8502  0.0612 -0.9643
12281TIP3   OH258257   3.309   3.317  14.628  0.9389  0.3484 -0.1172
12281TIP3    H158258   3.252   3.255  14.581  0.8345  0.7601 -0.5411
12281TIP3    H258259   3.268   3.402  14.613  1.1465  0.5356  0.3710
12282TIP3   OH258260   0.337   6.006   5.036 -0.0345 -0.3157  0.5455
12282TIP3    H158261   0.260   6.035   5.085 -0.5166 -1.3172  0.4021
12282TIP3    H258262   0.401   6.077   5.048 -0.7463  0.2401  1.1856
12283TIP3   OH258263   0.957   1.834   3.816  0.0156 -0.2707 -0.2661
12283TIP3    H158264   1.040   1.865   3.855  0.1776 -0.8657 -0.1322
12283TIP3    H258265   0.932   1.759   3.870 -0.8291  0.1561 -0.0502
12284TIP3   OH258266   0.552   0.142  12.449  0.3589 -0.3516 -0.2804
12284TIP3    H158267   0.607   0.212  12.485  2.3931 -1.7753 -0.4240
12284TIP3    H258268   0.546   0.162  12.355  0.0834  0.1514 -0.1606
12285TIP3   OH258269   4.476   4.529  12.456 -0.0051 -0.0132 -0.1293
12285TIP3    H158270   4.388   4.522  12.419  0.2582 -1.2800 -0.5683
12285TIP3    H258271   4.523   4.453  12.421  1.8677  1.6481 -1.4951
12286TIP3   OH258272   2.020   0.425   2.640  0.5487  0.7449 -0.5099
12286TIP3    H158273   2.069   0.397   2.563  0.3372 -0.4891 -0.2212
12286TIP3    H258274   1.992   0.343   2.681  0.1743  1.3967  0.5650
12287TIP3   OH258275   1.402   5.226   2.946 -0.6643 -0.2944 -0.0840
12287TIP3    H158276   1.496   5.215   2.933 -0.6380  0.6867 -0.7851
12287TIP3    H258277   1.388   5.201   3.038  0.2501 -0.5817 -0.0121
12288TIP3   OH258278   0.473   4.433  15.557  0.4860  0.7933  0.1247
12288TIP3    H158279   0.477   4.340  15.536  0.6549  1.1291 -1.5067
12288TIP3    H258280   0.411   4.439  15.630  1.4568 -0.7012  1.1244
12289TIP3   OH258281   0.913   3.724   2.382  0.0025 -0.3841  0.1449
12289TIP3    H158282   0.852   3.712   2.455 -0.5328  1.4712  0.0535
12289TIP3    H258283   0.986   3.665   2.401 -0.0245  0.2107  2.3128
12290TIP3   OH258284   3.517   2.754  11.244  0.2846  0.2228  0.4951
12290TIP3    H158285   3.515   2.845  11.213 -0.0316  0.4260  1.1090
12290TIP3    H258286   3.456   2.752  11.317  0.9112 -0.2946  1.0132
12291TIP3   OH258287   3.792   1.230   2.851  0.0022  0.9757  0.8688
12291TIP3    H158288   3.819   1.321   2.865  0.8018  1.0462 -0.9204
12291TIP3    H258289   3.719   1.236   2.790  1.3188  0.3493 -0.8302
12292TIP3   OH258290   3.590   4.950  10.461 -0.0379  0.0183 -0.5935
12292TIP3    H158291   3.663   4.888  10.455 -0.7290 -0.7267 -1.6714
12292TIP3    H258292   3.612   5.019  10.398  0.1279  0.2242 -0.3122
12293TIP3   OH258293   2.835   2.839   2.308 -0.3691 -0.3046 -0.1335
12293TIP3    H158294   2.786   2.777   2.254 -0.1423 -0.7159  0.1174
12293TIP3    H258295   2.851   2.914   2.251 -0.2608 -0.6675 -0.5930
12294TIP3   OH258296   3.201   4.136  15.987  0.3327 -0.3086 -0.3753
12294TIP3    H158297   3.139   4.108  15.920  0.8728  1.5007 -1.6972
12294TIP3    H258298   3.161   4.108  16.070 -2.2095  0.6722 -1.1763
12295TIP3   OH258299   1.829   1.929   1.195 -0.5281 -0.2332 -0.1717
12295TIP3    H158300   1.867   1.901   1.112 -0.1682  0.1808 -0.1480
12295TIP3    H258301   1.819   2.023   1.186 -0.2046 -0.1468  0.3729
12296TIP3   OH258302   0.277   1.562  15.992  0.0118 -0.3957 -0.2809
12296TIP3    H158303   0.300   1.606  15.910 -0.1675 -1.3019 -0.8316
12296TIP3    H258304   0.196   1.604  16.020  0.4269  0.3739 -0.2137
12297TIP3   OH258305   0.710   1.425   5.368  0.4885  0.2278 -0.0630
12297TIP3    H158306   0.725   1.468   5.283 -0.7269 -1.3917 -1.1701
12297TIP3    H258307   0.794   1.385   5.390  0.1860 -1.5606 -1.8801
12298TIP3   OH258308   1.966   5.897  15.326  0.1096 -0.3965  0.3034
12298TIP3    H158309   1.999   5.985  15.307 -0.4318 -0.6133 -1.9765
12298TIP3    H258310   2.040   5.851  15.366  1.0695  0.4993 -0.4008
12299TIP3   OH258311   0.526   0.501  12.934 -0.2262 -0.0531 -0.1144
12299TIP3    H158312   0.528   0.415  12.891 -1.0312  0.4796 -1.2487
12299TIP3    H258313   0.484   0.559  12.871 -0.0858  1.0945  0.8106
12300TIP3   OH258314   6.113   5.390  13.640 -0.0301 -0.3270 -0.2684
12300TIP3    H158315   6.192   5.424  13.598 -0.0363 -0.0856 -0.0844
12300TIP3    H258316   6.122   5.295  13.635  0.6442 -0.3108  0.4314
12301TIP3   OH258317   6.581   0.274   5.376 -0.3221  0.6059  0.1064
12301TIP3    H158318   6.578   0.208   5.307  0.7783  1.1839 -0.5312
12301TIP3    H258319   6.523   0.241   5.444  0.6631 -1.3269  0.0688
12302TIP3   OH258320   0.986   5.702   5.801  0.0620 -0.5360 -0.3568
12302TIP3    H158321   0.929   5.635   5.762 -1.0621 -0.9630  1.8337
12302TIP3    H258322   0.950   5.785   5.770  1.0212 -0.8603 -2.5155
12303TIP3   OH258323   3.609   3.964  13.443  0.5198  0.0643 -0.2088
12303TIP3    H158324   3.657   4.044  13.464 -2.1219  1.3035  1.6435
12303TIP3    H258325   3.659   3.894  13.484  1.5051  1.0776  0.3759
12304TIP3   OH258326   5.698   2.945  16.369  0.1317  0.5125 -0.3631
12304TIP3    H158327   5.737   2.865  16.332 -0.1658 -0.8727  2.0839
12304TIP3    H258328   5.757   2.968  16.441 -1.3358  0.8200  0.7683
12305TIP3   OH258329   1.248   3.632  12.602 -0.7120 -0.3885  0.3340
12305TIP3    H158330   1.298   3.617  12.683 -0.7618  0.7647  0.6007
12305TIP3    H258331   1.203   3.715  12.617  0.8789  0.9420 -1.6386
12306TIP3   OH258332   5.483   1.476   4.825  0.1854  0.1710 -0.1163
12306TIP3    H158333   5.552   1.426   4.869  0.8838  1.6268  0.5346
12306TIP3    H258334   5.526   1.517   4.751  1.0647  3.8661  2.1652
12307TIP3   OH258335   4.152   0.652   5.389  0.2397 -0.3591 -0.5823
12307TIP3    H158336   4.234   0.690   5.358 -0.0709  0.6846 -0.1530
12307TIP3    H258337   4.125   0.593   5.319 -0.1865  1.5585 -2.1200
12308TIP3   OH258338   3.934   0.247  12.433  0.2003  0.0454 -1.1231
12308TIP3    H158339   3.955   0.166  12.481  0.4875  0.1683 -1.0399
12308TIP3    H258340   4.019   0.278  12.401  0.2228  0.8293 -0.3335
12309TIP3   OH258341   5.469   1.140  10.589 -0.1286 -0.7618  0.1044
12309TIP3    H158342   5.487   1.231  10.614  0.5954 -0.7269 -0.5087
12309TIP3    H258343   5.399   1.113  10.647 -0.8674  0.4312 -0.1885
12310TIP3   OH258344   1.672   3.604   4.072  0.7169  0.2462  0.1510
12310TIP3    H158345   1.660   3.684   4.022  0.6839  0.8632  1.1113
12310TIP3    H258346   1.764   3.581   4.061  0.3152 -0.6956 -1.6993
12311TIP3   OH258347   1.246   5.347   3.772 -0.1545  0.1699 -0.8826
12311TIP3    H158348   1.185   5.323   3.842  0.4296  1.4270  0.1112
12311TIP3    H258349   1.276   5.264   3.736 -1.4841 -0.4841 -0.5360
12312TIP3   OH258350   3.041   4.555   5.762  0.0011  0.0665 -0.1445
12312TIP3    H158351   3.049   4.503   5.683  1.0187 -1.0593  0.6783
12312TIP3    H258352   3.109   4.522   5.821 -2.6425 -1.3100  2.4210
12313TIP3   OH258353   1.708   0.298   2.671  0.1969 -0.2996 -0.1163
12313TIP3    H158354   1.641   0.233   2.651 -0.8983  0.4624  0.9438
12313TIP3    H258355   1.739   0.274   2.758 -2.3504  2.2031  1.6679
12314TIP3   OH258356   5.067   1.001  13.745 -0.1164 -0.4653  0.3992
12314TIP3    H158357   4.999   0.990  13.811 -0.6191  0.1072 -0.0086
12314TIP3    H258358   5.098   0.912  13.727 -0.0307 -0.6320  1.3339
12315TIP3   OH258359   4.758   0.225  12.618 -0.1356  0.0988 -0.3465
12315TIP3    H158360   4.774   0.312  12.655 -0.9130  0.9845 -1.9869
12315TIP3    H258361   4.771   0.236  12.524 -0.8624 -1.4192 -0.6574
12316TIP3   OH258362   0.767   4.139  13.036 -0.5046  0.0390  0.3810
12316TIP3    H158363   0.759   4.052  12.996 -0.6284 -0.1657  0.8446
12316TIP3    H258364   0.773   4.199  12.962 -0.1224 -0.3909  0.0562
12317TIP3   OH258365   3.607   1.071  14.753 -0.7241 -0.1487  0.9376
12317TIP3    H158366   3.655   1.009  14.808  2.5441  1.1243 -0.1983
12317TIP3    H258367   3.599   1.028  14.668 -0.4586  0.1054  0.7802
12318TIP3   OH258368   1.194   4.543   6.774 -0.4024  0.4246  0.1955
12318TIP3    H158369   1.164   4.506   6.691  0.8431  0.4348 -0.2741
12318TIP3    H258370   1.190   4.638   6.761 -0.4125  0.4293  0.2310
12319TIP3   OH258371   0.431   5.496  13.758 -0.0257 -0.6687  0.0623
12319TIP3    H158372   0.394   5.408  13.744 -0.1675 -0.7933  1.1326
12319TIP3    H258373   0.456   5.497  13.851 -3.2928  1.6107  1.1062
12320TIP3   OH258374   2.680   5.702  11.952 -0.5583  0.9473  0.0416
12320TIP3    H158375   2.740   5.676  12.021 -1.0705 -0.2065  0.0835
12320TIP3    H258376   2.713   5.659  11.873 -2.2865 -1.2602  0.4109
12321TIP3   OH258377   2.249   4.404   0.680  0.0392 -0.2403 -0.1048
12321TIP3    H158378   2.237   4.448   0.764  2.9850  0.4245  0.0838
12321TIP3    H258379   2.210   4.463   0.616 -0.2026  0.3579  0.5797
12322TIP3   OH258380   1.898   3.673  13.656  0.0036 -0.4070  0.3320
12322TIP3    H158381   1.855   3.744  13.609 -0.4529 -1.2072 -0.4731
12322TIP3    H258382   1.835   3.601  13.654  2.2417 -2.5412 -3.1628
12323TIP3   OH258383   3.577   5.005   3.159  0.0338  0.3769  0.2012
12323TIP3    H158384   3.640   5.005   3.231 -0.9858 -1.8720  1.1932
12323TIP3    H258385   3.562   4.913   3.140 -2.2708  0.8358 -0.5731
12324TIP3   OH258386   0.664   3.644  12.248  0.3043 -0.1497  0.5160
12324TIP3    H158387   0.598   3.616  12.311 -1.3536 -0.1801 -1.1458
12324TIP3    H258388   0.737   3.583  12.260 -1.4277 -2.4542 -0.0073
12325TIP3   OH258389   1.704   3.095  11.889 -0.2915  0.5018  0.2080
12325TIP3    H158390   1.770   3.044  11.843  0.9876  1.2239  1.1924
12325TIP3    H258391   1.677   3.040  11.962  1.9665  1.6135  1.9840
12326TIP3   OH258392   6.155   1.724  13.438 -0.1870 -0.1021 -0.0532
12326TIP3    H158393   6.065   1.749  13.456  0.7865  3.7801  0.4591
12326TIP3    H258394   6.179   1.665  13.510 -1.6168  0.8444  1.2541
12327TIP3   OH258395   3.017   5.808  13.912 -0.0671 -0.0509 -0.1914
12327TIP3    H158396   3.067   5.864  13.852  2.7913  0.2868  2.2628
12327TIP3    H258397   2.929   5.847  13.914  0.6022  1.6854 -1.8489
12328TIP3   OH258398   5.768   6.350  10.457 -0.4408 -0.2995 -0.0988
12328TIP3    H158399   5.689   6.331  10.508 -0.4240 -1.6900 -0.5483
12328TIP3    H258400   5.831   6.283  10.485  0.5084  0.6265  0.0647
12329TIP3   OH258401   0.827   4.749   0.220 -0.1584 -0.3321 -0.4146
12329TIP3    H158402   0.831   4.669   0.273 -1.0108 -0.3423 -0.3508
12329TIP3    H258403   0.917   4.783   0.221  0.0204 -0.7986  0.3143
12330TIP3   OH258404   6.615   0.083  11.895  0.3746 -0.0213  0.4238
12330TIP3    H158405   6.591   0.175  11.882  0.3262 -0.1593 -0.4760
12330TIP3    H258406   6.695   0.071  11.844 -0.1055 -0.7076 -0.1846
12331TIP3   OH258407   6.788   5.813   4.276  0.3403  0.0646 -0.2544
12331TIP3    H158408   6.859   5.795   4.338 -1.3651 -0.5616  1.6197
12331TIP3    H258409   6.753   5.727   4.254 -0.0227  0.3858 -0.9472
12332TIP3   OH258410   3.708   5.401   5.484  0.1684  0.0936 -0.2496
12332TIP3    H158411   3.760   5.359   5.553 -0.8076  0.1497  0.5293
12332TIP3    H258412   3.752   5.485   5.469  0.4613  0.0244  0.2069
12333TIP3   OH258413   2.829   0.681   3.954 -0.6699 -0.4112 -0.1496
12333TIP3    H158414   2.845   0.642   3.868 -0.0528  1.7409 -1.0811
12333TIP3    H258415   2.885   0.631   4.014  1.6217  0.2556 -1.6146
12334TIP3   OH258416   0.194   5.187  10.949 -0.5962  0.1728 -0.7204
12334TIP3    H158417   0.134   5.262  10.957  0.0302  0.4868  4.0687
12334TIP3    H258418   0.279   5.227  10.931 -0.4560  0.5968  0.7476
12335TIP3   OH258419   3.709   1.198   2.488  0.1220  0.1981 -0.2277
12335TIP3    H158420   3.774   1.267   2.481 -0.9797  1.1893 -0.9302
12335TIP3    H258421   3.680   1.183   2.398  1.2354 -2.0989 -0.2870
12336TIP3   OH258422   3.699   1.142   3.866  0.6125 -0.4626 -0.1016
12336TIP3    H158423   3.767   1.090   3.907 -0.5199 -0.3805  2.0729
12336TIP3    H258424   3.701   1.117   3.774  2.8916 -1.1634  0.0827
12337TIP3   OH258425   3.041   6.780   0.134  0.1598 -0.4329  0.0115
12337TIP3    H158426   3.079   6.712   0.079  2.7836  1.9978 -1.4896
12337TIP3    H258427   2.966   6.813   0.083  2.1021  1.2686 -1.9819
12338TIP3   OH258428   3.971   1.887  13.399 -0.1182 -0.2402  0.0646
12338TIP3    H158429   3.892   1.849  13.436  0.4257 -0.8164  0.6596
12338TIP3    H258430   4.003   1.947  13.466 -0.4627  0.5956 -0.4927
12339TIP3   OH258431   1.738   4.026  16.581  0.3873 -0.4428 -0.2117
12339TIP3    H158432   1.674   4.097  16.577  0.0758 -0.7298 -0.4319
12339TIP3    H258433   1.697   3.960  16.637  1.0431 -0.0937  0.7105
12340TIP3   OH258434   1.809   1.562  15.581  0.1153 -0.3749  0.4252
12340TIP3    H158435   1.886   1.509  15.598  0.4386  0.3002  1.1112
12340TIP3    H258436   1.776   1.530  15.497  0.6730 -1.2075  0.5151
12341TIP3   OH258437   3.529   5.618  14.165  0.4470 -0.1257 -0.5504
12341TIP3    H158438   3.457   5.563  14.196 -2.3880  3.3649 -0.2689
12341TIP3    H258439   3.507   5.636  14.074  0.4455  1.6751 -0.2160
12342TIP3   OH258440   2.382   4.641   2.837 -0.3750  0.5890  0.2478
12342TIP3    H158441   2.405   4.673   2.924 -1.2684  0.3523  0.5774
12342TIP3    H258442   2.292   4.611   2.845  0.6812 -3.0029  0.2184
12343TIP3   OH258443   0.545   6.134   6.394 -0.1113  0.4226 -0.4378
12343TIP3    H158444   0.562   6.218   6.437 -0.6921  0.5515 -0.4498
12343TIP3    H258445   0.607   6.131   6.321  0.8431  0.2320  0.3630
12344TIP3   OH258446   3.988   6.210   2.157 -0.3763 -0.3380 -0.0942
12344TIP3    H158447   3.912   6.197   2.100  0.1566 -1.0704 -0.6648
12344TIP3    H258448   4.054   6.251   2.101 -0.7133  1.3876  0.7000
12345TIP3   OH258449   0.729   1.226   4.457  0.1662  0.2596  0.1923
12345TIP3    H158450   0.804   1.271   4.497  0.9735  0.3148 -1.2791
12345TIP3    H258451   0.750   1.133   4.464  0.4975  0.2791 -0.3713
12346TIP3   OH258452   0.668   3.899   0.641 -0.9142 -0.1218 -0.2175
12346TIP3    H158453   0.709   3.832   0.696  2.3168 -0.4985 -2.7614
12346TIP3    H258454   0.705   3.982   0.674  0.4246 -0.2807 -1.2385
12347TIP3   OH258455   3.011   1.009  14.026 -0.2066  0.1512 -0.2119
12347TIP3    H158456   3.063   1.046  13.955 -0.9398  0.9740 -0.3420
12347TIP3    H258457   2.966   1.085  14.064 -1.5572 -0.5718 -0.3154
12348TIP3   OH258458   3.504   5.632   4.541 -0.0826  0.5088 -0.3920
12348TIP3    H158459   3.582   5.577   4.532 -0.1206  0.2067  0.8924
12348TIP3    H258460   3.474   5.616   4.631 -1.7513  0.4555 -0.9306
12349TIP3   OH258461   0.973   2.559   3.645  0.0673 -0.1964  0.6162
12349TIP3    H158462   0.929   2.632   3.601 -1.3254 -1.2006  0.2493
12349TIP3    H258463   1.041   2.531   3.584 -0.1358  0.0877  0.2557
12350TIP3   OH258464   1.891   2.233  14.992  0.5790 -0.3098  0.4621
12350TIP3    H158465   1.873   2.325  14.971 -1.3381 -0.6422  0.4008
12350TIP3    H258466   1.855   2.185  14.917  1.8420 -1.1172  0.3476
12351TIP3   OH258467   5.634   0.825   2.687 -0.1981 -0.9165 -0.1265
12351TIP3    H158468   5.613   0.792   2.600  1.8883  1.9083 -1.9074
12351TIP3    H258469   5.716   0.782   2.710 -0.2845 -1.0024  0.0165
12352TIP3   OH258470   1.870   2.205   0.741 -0.5958 -0.2831 -0.2445
12352TIP3    H158471   1.890   2.299   0.740  0.6383 -0.4981  1.3380
12352TIP3    H258472   1.777   2.201   0.719 -0.7312  1.3262 -0.1351
12353TIP3   OH258473   2.562   1.842  14.544  0.1906 -0.3365 -0.3735
12353TIP3    H158474   2.598   1.921  14.503  0.5706 -0.5060 -0.3673
12353TIP3    H258475   2.535   1.787  14.470  0.6397 -0.5312 -0.3993
12354TIP3   OH258476   6.178   2.463   6.095 -0.3365  0.4741  0.3357
12354TIP3    H158477   6.164   2.518   6.172 -2.4817  1.0693 -0.3831
12354TIP3    H258478   6.231   2.517   6.036 -1.3016  1.2822  0.1794
12355TIP3   OH258479   1.447   4.673   0.531  0.7368 -0.1179  0.0882
12355TIP3    H158480   1.456   4.765   0.558  2.4217 -0.8491  2.3164
12355TIP3    H258481   1.531   4.652   0.491 -0.2602 -0.2688 -2.0605
12356TIP3   OH258482   5.587   2.903   2.955 -0.0735  0.1751  0.1637
12356TIP3    H158483   5.517   2.917   3.019 -1.2759  2.2258 -1.4463
12356TIP3    H258484   5.542   2.901   2.870  1.6485 -0.4023 -0.7802
12357TIP3   OH258485   2.291   4.248  14.516  0.1454  0.1725  0.0005
12357TIP3    H158486   2.333   4.200  14.444 -1.1586  0.2704 -0.8554
12357TIP3    H258487   2.293   4.186  14.590  1.8615  0.2206  0.0402
12358TIP3   OH258488   2.786   3.383  13.713 -0.4152 -0.1636 -0.0964
12358TIP3    H158489   2.750   3.308  13.760 -0.3164  1.2907  2.4708
12358TIP3    H258490   2.742   3.459  13.751  2.6597  1.4146  0.6802
12359TIP3   OH258491   0.559   1.835   4.909  0.0601 -0.9019 -0.8991
12359TIP3    H158492   0.540   1.802   4.821  1.9903 -1.3624 -1.1902
12359TIP3    H258493   0.556   1.930   4.900 -2.4296 -0.8915 -0.7778
12360TIP3   OH258494   1.088   4.855   5.302  0.3101  0.5826 -0.4727
12360TIP3    H158495   1.067   4.762   5.310 -0.5941  0.8114 -0.0495
12360TIP3    H258496   1.168   4.857   5.249  2.1609 -0.5895  2.0467
12361TIP3   OH258497   4.143   1.043  15.745  0.3093  0.3865 -0.2721
12361TIP3    H158498   4.231   1.077  15.731 -0.4451  1.5792 -2.8130
12361TIP3    H258499   4.108   1.093  15.819  0.8004  1.9841 -1.0825
12362TIP3   OH258500   0.975   0.298   5.611  0.0605  0.0777 -0.0187
12362TIP3    H158501   1.009   0.301   5.522 -2.3426  0.6834 -0.9766
12362TIP3    H258502   0.994   0.385   5.647 -0.2027  0.3074 -0.4348
12363TIP3   OH258503   4.651   2.496  13.909  0.5084 -0.1188  0.7313
12363TIP3    H158504   4.718   2.541  13.960  0.5419  0.3770  0.2675
12363TIP3    H258505   4.674   2.515  13.818  0.5263 -1.0942  0.5209
12364TIP3   OH258506   4.299   2.459  10.953  0.1936  0.3966 -0.4227
12364TIP3    H158507   4.272   2.547  10.980  0.6753 -0.2049  2.2869
12364TIP3    H258508   4.370   2.474  10.890  1.5541  2.0283  1.3831
12365TIP3   OH258509   4.762   3.984   0.949  0.3090  0.2952  0.2285
12365TIP3    H158510   4.782   3.908   1.004  2.2644  1.4518  1.2435
12365TIP3    H258511   4.840   3.994   0.893  0.0374  1.4457  0.0232
12366TIP3   OH258512   2.902   2.499  13.894 -0.1976  0.2885  0.0069
12366TIP3    H158513   2.966   2.565  13.867  0.9972 -1.1888 -0.9460
12366TIP3    H258514   2.954   2.432  13.937 -1.1462 -0.8341 -0.5461
12367TIP3   OH258515   4.394   2.480   0.407  0.0237 -0.1371  0.3331
12367TIP3    H158516   4.447   2.413   0.364  0.0453  0.5613 -0.7593
12367TIP3    H258517   4.305   2.463   0.377 -0.3690 -1.1350  1.9447
12368TIP3   OH258518   4.738   5.929  15.946  0.3475 -0.6287 -0.5238
12368TIP3    H158519   4.685   5.856  15.978 -0.1266 -0.4175 -0.8228
12368TIP3    H258520   4.785   5.893  15.870 -0.4583 -0.4168 -1.1311
12369TIP3   OH258521   4.705   0.448  13.316  0.2401  1.2020 -0.2887
12369TIP3    H158522   4.722   0.539  13.340  0.2801  1.4811 -1.3338
12369TIP3    H258523   4.643   0.453  13.243 -0.8195  0.3406  0.5203
12370TIP3   OH258524   4.033   2.499  14.287 -0.8602  0.1790 -0.0500
12370TIP3    H158525   4.062   2.590  14.283  0.9985 -0.4244 -2.0864
12370TIP3    H258526   4.100   2.454  14.339 -0.2147 -0.4968 -1.4086
12371TIP3   OH258527   6.057   4.161  14.910  0.1150 -0.0399 -0.1235
12371TIP3    H158528   6.030   4.110  14.986  0.5619 -0.2162 -0.0809
12371TIP3    H258529   5.976   4.177  14.861  0.0025 -1.0044 -0.2710
12372TIP3   OH258530   4.047   3.194  11.441 -0.0548  0.1575  0.0913
12372TIP3    H158531   3.985   3.224  11.508 -0.0644 -0.7393  0.4973
12372TIP3    H258532   4.006   3.218  11.358 -1.5651 -1.5196  0.3000
12373TIP3   OH258533   0.070   1.881   0.122  0.4051 -0.1724  0.1351
12373TIP3    H158534   0.042   1.797   0.087  1.0464  0.1057 -1.0954
12373TIP3    H258535  -0.000   1.942   0.100  0.1709 -0.2740  0.5844
12374TIP3   OH258536   2.578   6.264   3.250 -0.2108  0.2475 -0.0271
12374TIP3    H158537   2.597   6.170   3.258  0.3130  0.4909  1.9162
12374TIP3    H258538   2.565   6.277   3.156  0.9278 -1.5377 -0.4916
12375TIP3   OH258539   1.076   1.731  15.349 -0.3301  0.3263 -0.0093
12375TIP3    H158540   1.115   1.788  15.416 -2.2493  0.2971  1.2196
12375TIP3    H258541   1.144   1.723  15.282  0.9191  2.0306  0.9561
12376TIP3   OH258542   0.373   3.600  16.323  0.2541  0.0637  0.0481
12376TIP3    H158543   0.387   3.507  16.305 -1.3490  0.2626 -2.7747
12376TIP3    H258544   0.435   3.645  16.265 -1.4957  0.7265 -1.3958
12377TIP3   OH258545   2.231   3.788   1.389  0.1223 -0.0503 -0.4663
12377TIP3    H158546   2.180   3.827   1.460 -0.2516  0.7990 -1.1960
12377TIP3    H258547   2.295   3.733   1.434 -0.7650 -0.3273  0.4939
12378TIP3   OH258548   2.482   2.117  11.187  0.0712  0.0733 -0.5220
12378TIP3    H158549   2.468   2.206  11.156  1.8340 -0.0031 -1.7040
12378TIP3    H258550   2.470   2.062  11.110 -1.6209 -0.8080  0.3315
12379TIP3   OH258551   2.442   6.761   5.318 -0.0397 -0.2982 -0.1941
12379TIP3    H158552   2.375   6.825   5.340 -0.3812  0.3508 -2.7989
12379TIP3    H258553   2.404   6.677   5.341  0.6115  0.3148  3.7748
12380TIP3   OH258554   1.189   6.625   3.850  0.2995  0.0810  0.3729
12380TIP3    H158555   1.240   6.573   3.787  0.1326  0.1149  0.2093
12380TIP3    H258556   1.165   6.704   3.801 -0.5059 -0.2511  0.2246
12381TIP3   OH258557   5.196   6.274   1.852 -0.5316  0.8593  0.0742
12381TIP3    H158558   5.212   6.358   1.809  0.9695  1.0516  0.9071
12381TIP3    H258559   5.158   6.219   1.784  1.2618  1.3047 -1.3750
12382TIP3   OH258560   5.820   4.338   4.432  0.3057 -0.4104  0.2856
12382TIP3    H158561   5.757   4.300   4.494  0.0729 -1.2874 -0.4510
12382TIP3    H258562   5.887   4.271   4.422 -0.5376 -1.0454 -1.6734
12383TIP3   OH258563   1.524   1.168   6.427 -0.6939  0.8345 -0.6997
12383TIP3    H158564   1.608   1.208   6.405  0.2286 -0.6479 -0.0217
12383TIP3    H258565   1.523   1.086   6.378  0.0216 -1.0353  2.1787
12384TIP3   OH258566   2.651   2.852   5.120 -0.1708 -0.2387  0.2584
12384TIP3    H158567   2.743   2.827   5.122 -0.1753 -0.4188 -1.0840
12384TIP3    H258568   2.645   2.926   5.181  0.5756 -1.0924  1.4085
12385TIP3   OH258569   5.819   3.064   1.190  0.2671  0.0194  0.4654
12385TIP3    H158570   5.754   3.134   1.191 -1.5200 -1.5251 -0.4807
12385TIP3    H258571   5.902   3.108   1.172 -0.8335  1.8525 -0.3803
12386TIP3   OH258572   0.558   2.157   2.256 -0.8818  0.0032  0.3891
12386TIP3    H158573   0.508   2.086   2.295 -0.6498  0.2438  1.1465
12386TIP3    H258574   0.530   2.235   2.304 -0.5718  0.3005  0.0890
12387TIP3   OH258575   4.087   5.391  14.768 -0.1773 -0.0701  0.1488
12387TIP3    H158576   4.040   5.461  14.812  0.9410  0.4621  0.5555
12387TIP3    H258577   4.038   5.374  14.688 -0.0504  1.7256 -0.3340
12388TIP3   OH258578   1.762   2.725  11.456 -0.0350 -0.3232 -0.5421
12388TIP3    H158579   1.748   2.654  11.519  1.3758 -0.0113  0.1665
12388TIP3    H258580   1.842   2.700  11.410 -1.0935 -0.5815 -2.2912
12389TIP3   OH258581   3.637   4.159  11.328  0.5130  0.1286  0.4407
12389TIP3    H158582   3.647   4.222  11.399 -0.7888  1.5177 -0.5527
12389TIP3    H258583   3.726   4.146  11.295  0.9795  0.3333  1.5604
12390TIP3   OH258584   6.070   5.536   3.972 -0.2870  0.5572 -0.5353
12390TIP3    H158585   6.059   5.550   4.066 -0.5684 -1.0672 -0.2965
12390TIP3    H258586   6.028   5.452   3.955  1.8634 -0.3536 -1.6835
12391TIP3   OH258587   6.021   5.468  16.543 -0.2775  0.0317  0.3265
12391TIP3    H158588   6.067   5.465  16.459  1.0792 -0.7484  1.0516
12391TIP3    H258589   5.935   5.431  16.525 -0.5507  1.2782 -1.0251
12392TIP3   OH258590   1.186   3.624  11.356  0.1200  0.3127 -0.0140
12392TIP3    H158591   1.121   3.590  11.418 -0.8516  3.2670  0.7431
12392TIP3    H258592   1.248   3.672  11.411  1.7846 -0.6717 -0.9599
12393TIP3   OH258593   6.007   1.801   1.036 -0.3634  0.3988  0.1718
12393TIP3    H158594   5.934   1.741   1.018  0.1670  0.2305 -1.6289
12393TIP3    H258595   6.073   1.746   1.079 -1.2463  0.5508  1.8078
12394TIP3   OH258596   6.047   3.702  13.208 -0.6940  0.1879  0.4968
12394TIP3    H158597   6.023   3.609  13.213 -1.4466  0.3418 -0.0274
12394TIP3    H258598   6.119   3.712  13.270  0.5834 -1.1101 -0.7004
12395TIP3   OH258599   1.836   4.521  13.382 -0.4183 -0.3749 -0.4491
12395TIP3    H158600   1.774   4.557  13.319 -0.6507 -1.1753 -0.6766
12395TIP3    H258601   1.823   4.574  13.461 -1.1951 -0.3621 -0.5830
12396TIP3   OH258602   6.324   1.516  15.418 -0.2604  0.0979  0.0350
12396TIP3    H158603   6.292   1.467  15.342 -1.3516  0.2924  0.3661
12396TIP3    H258604   6.276   1.599  15.415  0.9704  0.8462 -0.0540
12397TIP3   OH258605   3.700   1.917  12.775  0.0568  0.2729  0.5268
12397TIP3    H158606   3.643   1.876  12.710 -0.4499  1.1935  0.3671
12397TIP3    H258607   3.789   1.903  12.741 -0.1361 -0.2410  0.2217
12398TIP3   OH258608   4.708   6.746  12.555 -0.0243 -0.1759 -0.3460
12398TIP3    H158609   4.638   6.707  12.607  1.7152 -3.3720 -0.1659
12398TIP3    H258610   4.722   6.831  12.595 -2.5767 -0.1324  0.7021
12399TIP3   OH258611   1.970   6.593  11.424 -0.3643  0.0688 -0.2832
12399TIP3    H158612   2.021   6.527  11.377 -0.6185 -0.8925  0.7270
12399TIP3    H258613   1.894   6.545  11.456 -1.0845  1.1091 -0.3996
12400TIP3   OH258614   0.165   1.402  16.697  0.3536  0.2463  0.3037
12400TIP3    H158615   0.083   1.450  16.699 -0.1519 -0.4081 -2.1446
12400TIP3    H258616   0.216   1.443  16.627  0.0278 -2.4692 -1.6710
12401TIP3   OH258617   6.478   1.821  16.206  0.2891 -0.2650 -0.1255
12401TIP3    H158618   6.491   1.776  16.290  0.3161  2.2480  1.3406
12401TIP3    H258619   6.411   1.769  16.161  0.6058 -1.9533  1.2404
12402TIP3   OH258620   3.967   4.216  15.408  0.2374  0.2146  0.2265
12402TIP3    H158621   4.010   4.131  15.395 -0.1010 -0.2352  1.8193
12402TIP3    H258622   3.888   4.195  15.458 -0.0278  1.4354  0.3501
12403TIP3   OH258623   2.879   6.645  16.577  0.0725 -0.1387 -0.3823
12403TIP3    H158624   2.786   6.626  16.588 -0.0586  0.1500 -0.9603
12403TIP3    H258625   2.919   6.560  16.559 -0.1558 -0.1903 -0.6389
12404TIP3   OH258626   6.539   6.210  11.822  0.1959  0.4112 -0.6274
12404TIP3    H158627   6.466   6.149  11.830  2.5830 -2.4100  1.6017
12404TIP3    H258628   6.549   6.249  11.909  1.8962  0.0102 -0.6016
12405TIP3   OH258629   4.925   4.332   1.806 -0.5460  0.0187 -0.3134
12405TIP3    H158630   4.906   4.338   1.713  0.6942 -0.9034 -0.6557
12405TIP3    H258631   4.996   4.268   1.812 -1.3323 -0.7710  1.3605
12406TIP3   OH258632   3.671   1.593   3.568 -0.2363 -0.2064 -0.2111
12406TIP3    H158633   3.689   1.641   3.487 -0.6186 -2.1692 -1.5150
12406TIP3    H258634   3.641   1.661   3.629 -0.8785  1.2082 -2.0011
12407TIP3   OH258635   2.485   4.960   4.669  0.0874 -0.7704 -0.3857
12407TIP3    H158636   2.446   4.906   4.600  0.7228 -1.9822  0.1891
12407TIP3    H258637   2.570   4.987   4.633 -0.9925  1.5099 -1.4593
12408TIP3   OH258638   6.760   4.865  15.894  0.1025  0.3626  0.2616
12408TIP3    H158639   6.769   4.935  15.959 -3.1989  1.4239 -0.2477
12408TIP3    H258640   6.744   4.786  15.946 -0.4565  0.8121  0.7750
12409TIP3   OH258641   3.624   5.597  16.249  0.8648 -0.5481  0.0451
12409TIP3    H158642   3.621   5.660  16.322  0.7840 -0.6199  0.1046
12409TIP3    H258643   3.689   5.532  16.276  0.2256 -1.0391  0.4322
12410TIP3   OH258644   2.086   6.510   0.504 -0.0716  1.0720 -0.2244
12410TIP3    H158645   2.148   6.538   0.437  2.1850  0.4416  1.4716
12410TIP3    H258646   2.106   6.417   0.518 -2.2589  0.5079 -0.4339
12411TIP3   OH258647   6.282   2.438  14.023  0.8892 -0.0073 -0.4193
12411TIP3    H158648   6.352   2.418  13.962 -0.9933 -2.8167 -1.8872
12411TIP3    H258649   6.295   2.376  14.095 -0.8434 -1.6804 -1.4533
12412TIP3   OH258650   2.675   2.555  14.375  0.0170 -0.0433  0.3110
12412TIP3    H158651   2.594   2.602  14.355  0.9465  1.7855  0.6127
12412TIP3    H258652   2.685   2.564  14.470  0.9852  0.4819  0.1693
12413TIP3   OH258653   6.427   5.326  12.601  0.2229 -0.0186 -0.3674
12413TIP3    H158654   6.366   5.358  12.668 -0.2297 -1.8677  0.1546
12413TIP3    H258655   6.466   5.406  12.565 -1.0611  1.1258  0.6400
12414TIP3   OH258656   3.084   1.668   3.487 -0.1867  0.0744 -0.2781
12414TIP3    H158657   3.156   1.722   3.518  0.4878  0.6117 -2.5513
12414TIP3    H258658   3.092   1.586   3.535  0.2919  1.0888  1.4292
12415TIP3   OH258659   6.237   5.481   0.792  0.3445  0.6472  0.6530
12415TIP3    H158660   6.169   5.444   0.735  1.0979  1.5251 -0.8854
12415TIP3    H258661   6.303   5.513   0.731  1.1464  1.7288  2.0506
12416TIP3   OH258662   1.894   3.676  12.983 -0.0524  0.2883  0.6962
12416TIP3    H158663   1.829   3.659  13.051  0.9862 -1.2770  1.3390
12416TIP3    H258664   1.844   3.671  12.901 -0.7691 -0.8041  1.1825
12417TIP3   OH258665   3.435   1.163  13.110 -0.3317 -0.1935  0.2431
12417TIP3    H158666   3.518   1.209  13.105 -1.1618  1.2576 -0.7797
12417TIP3    H258667   3.409   1.148  13.019 -0.7953 -1.4145  0.5435
12418TIP3   OH258668   4.897   4.790  12.829 -0.3203  0.0585 -0.5024
12418TIP3    H158669   4.809   4.753  12.838 -0.0605 -0.2637  0.9667
12418TIP3    H258670   4.954   4.728  12.874  0.4091  1.1735  0.1733
12419TIP3   OH258671   6.646   6.375  17.168 -0.1878 -0.5415 -0.2214
12419TIP3    H158672   6.590   6.451  17.180  0.6011  0.1167 -0.5978
12419TIP3    H258673   6.621   6.315  17.238  0.7421  1.0059  1.5356
12420TIP3   OH258674   3.399   2.370   0.123  0.1241  0.4338  0.3449
12420TIP3    H158675   3.449   2.289   0.125 -2.1211 -1.1914 -1.8775
12420TIP3    H258676   3.353   2.372   0.207 -0.5240 -1.1747  0.0751
12421TIP3   OH258677   0.445   5.067   1.562 -0.4929  0.2893  0.4360
12421TIP3    H158678   0.376   5.131   1.547  0.5104  1.3623  0.3195
12421TIP3    H258679   0.460   5.067   1.656 -0.3690  0.3573  0.4168
12422TIP3   OH258680   6.622   1.529  14.030  0.0717 -0.9994  0.4767
12422TIP3    H158681   6.547   1.502  14.084  1.2901 -1.5767  1.9554
12422TIP3    H258682   6.644   1.616  14.063  0.4074 -1.0761  0.4512
12423TIP3   OH258683   6.328   4.751   7.234  0.2481 -0.5215  0.3759
12423TIP3    H158684   6.236   4.774   7.219 -0.0730 -1.6633  0.4753
12423TIP3    H258685   6.373   4.779   7.155  0.1444  1.6235  1.0081
12424TIP3   OH258686   5.721   4.843  15.947  0.2389 -0.7036 -0.6321
12424TIP3    H158687   5.783   4.905  15.909 -1.3212  1.5711  0.3595
12424TIP3    H258688   5.642   4.851  15.893 -0.5540 -0.5284  0.5156
12425TIP3   OH258689   0.780   3.025   4.875  0.1411  0.5022 -0.5554
12425TIP3    H158690   0.756   3.063   4.959  0.8286  0.2583 -0.2425
12425TIP3    H258691   0.699   3.028   4.824 -0.5841 -0.3604  0.4901
12426TIP3   OH258692   0.408   3.940   4.204 -0.2138  0.1137 -0.7676
12426TIP3    H158693   0.319   3.917   4.228 -0.2347  1.4232  0.6257
12426TIP3    H258694   0.399   4.013   4.142 -0.1285  0.2039 -0.6765
12427TIP3   OH258695   1.018   2.780   4.161  0.3850  0.1071 -0.1369
12427TIP3    H158696   1.000   2.867   4.197  2.4371  1.1618 -1.4760
12427TIP3    H258697   1.003   2.789   4.067 -1.8751 -1.7615 -0.0601
12428TIP3   OH258698   4.968   4.947   1.832 -0.0670 -0.0378  0.0741
12428TIP3    H158699   4.937   4.988   1.752  1.3241  1.5425  0.2929
12428TIP3    H258700   4.891   4.903   1.868 -1.6017  2.1968 -0.3188
12429TIP3   OH258701   1.907   1.009  14.708 -0.8935  0.0408  0.3368
12429TIP3    H158702   1.921   1.053  14.792 -1.6912  0.2586  0.3638
12429TIP3    H258703   1.936   0.919  14.723  1.3699  0.6862  0.0963
12430TIP3   OH258704   0.481   6.621   4.910  0.3056 -0.0462  0.5626
12430TIP3    H158705   0.438   6.706   4.901  0.0022 -0.2707 -0.1085
12430TIP3    H258706   0.463   6.575   4.828  1.0748 -0.4855  0.6277
12431TIP3   OH258707   3.026   4.047  17.224  0.2674 -0.3206  0.2257
12431TIP3    H158708   3.044   3.961  17.262  0.3602  0.1856  1.3446
12431TIP3    H258709   3.050   4.109  17.292  2.1253  0.7040 -1.2846
12432TIP3   OH258710   5.863   1.383   6.428 -0.4485  0.1955 -0.3192
12432TIP3    H158711   5.933   1.325   6.458 -1.3222 -0.4108  0.6000
12432TIP3    H258712   5.783   1.332   6.440 -1.2615  1.6287  0.6526
12433TIP3   OH258713   6.710   5.968   1.173 -0.4483  0.5753  0.3427
12433TIP3    H158714   6.729   6.061   1.156 -0.4446  0.1766 -2.3385
12433TIP3    H258715   6.615   5.963   1.175 -0.4546  0.6102  0.1888
12434TIP3   OH258716   4.558   6.499   3.987 -0.0160 -0.3532 -0.5471
12434TIP3    H158717   4.511   6.577   3.957  0.9474 -0.0158 -1.2594
12434TIP3    H258718   4.641   6.502   3.939 -0.1047 -2.0081 -0.8496
12435TIP3   OH258719   4.010   0.211   4.081 -0.0635 -0.1587 -0.1963
12435TIP3    H158720   3.916   0.219   4.062  0.2038  0.0769 -1.5846
12435TIP3    H258721   4.048   0.291   4.044  0.7792 -0.6721 -0.4600
12436TIP3   OH258722   3.706   3.532  16.741  1.3706 -0.2707 -0.3039
12436TIP3    H158723   3.673   3.501  16.657  1.3403  2.6041 -1.4479
12436TIP3    H258724   3.794   3.563  16.723  0.9350  1.5000  0.4126
12437TIP3   OH258725   5.105   3.502   5.432  0.2344 -0.1213  0.4662
12437TIP3    H158726   5.154   3.462   5.359 -0.5637  1.4514 -1.0002
12437TIP3    H258727   5.046   3.433   5.462  2.2277 -1.5704  1.2762
12438TIP3   OH258728   4.964   6.584  15.764  0.2652 -0.2085  0.0354
12438TIP3    H158729   4.945   6.512  15.703  0.5750 -1.6848  1.5983
12438TIP3    H258730   4.929   6.662  15.721 -1.5653 -1.5209 -1.0244
12439TIP3   OH258731   2.133   0.042   5.649  0.4150 -0.1727 -0.4722
12439TIP3    H158732   2.173  -0.044   5.641  0.0972 -0.2583 -1.1172
12439TIP3    H258733   2.103   0.046   5.740 -2.0620 -1.8227 -1.1383
12440TIP3   OH258734   5.336   6.058  10.747  0.5497 -0.3830  0.0817
12440TIP3    H158735   5.282   6.098  10.678  1.1295  1.0231  0.3957
12440TIP3    H258736   5.418   6.034  10.702  1.4113  1.6421  0.4576
12441TIP3   OH258737   6.567   3.345   1.654  0.5084  0.2338 -0.0039
12441TIP3    H158738   6.551   3.265   1.703  2.1598  0.5478  1.1419
12441TIP3    H258739   6.616   3.317   1.577 -2.6744 -0.3513 -1.9907
12442TIP3   OH258740   1.788   6.028  13.107 -0.3862 -0.1619  0.2598
12442TIP3    H158741   1.733   6.053  13.181  1.3895  2.4621  0.8209
12442TIP3    H258742   1.878   6.037  13.139  0.4662 -2.8373 -1.0796
12443TIP3   OH258743   2.863   0.775   0.253 -0.0006 -0.7970 -0.0685
12443TIP3    H158744   2.810   0.851   0.277  0.4734 -0.1709 -0.9542
12443TIP3    H258745   2.890   0.738   0.337 -1.8947 -1.2054  0.4200
12444TIP3   OH258746   4.679   0.087   3.561 -0.3865  0.6463  0.5861
12444TIP3    H158747   4.758   0.041   3.533 -0.6237  0.1766  0.6924
12444TIP3    H258748   4.695   0.178   3.534  0.8225  0.8732  1.9160
12445TIP3   OH258749   1.625   0.118   6.476  0.0099  0.1667 -0.5119
12445TIP3    H158750   1.549   0.134   6.532 -1.4906  1.4433 -2.7652
12445TIP3    H258751   1.678   0.198   6.484  1.0769 -0.6356  0.8904
12446TIP3   OH258752   2.529   1.641   3.810  0.6207 -0.2423  0.2495
12446TIP3    H158753   2.460   1.658   3.747 -0.0800  0.9215  1.2739
12446TIP3    H258754   2.572   1.561   3.779 -0.0677 -0.0168 -1.3452
12447TIP3   OH258755   3.053   6.289  11.141  0.4209  0.2416  0.4425
12447TIP3    H158756   3.000   6.360  11.178 -0.4174  0.4705 -1.1501
12447TIP3    H258757   2.993   6.216  11.131  0.6789  0.1252 -0.2970
12448TIP3   OH258758   4.250   5.783  16.218 -0.2109 -0.3363 -0.1753
12448TIP3    H158759   4.265   5.759  16.309 -2.2907 -2.0229 -0.1945
12448TIP3    H258760   4.269   5.704  16.168  0.4714  0.4325 -1.1815
12449TIP3   OH258761   3.050   3.356  17.067 -0.3795  0.2502  0.6686
12449TIP3    H158762   3.043   3.409  16.987  1.4395  0.6387  0.7347
12449TIP3    H258763   2.994   3.401  17.130 -0.9703  0.5556 -0.0558
12450TIP3   OH258764   3.713   3.630  15.337 -0.6983  0.0844  0.4888
12450TIP3    H158765   3.711   3.725  15.325 -3.4874  0.1061  0.5232
12450TIP3    H258766   3.800   3.612  15.373 -0.3279  2.6731  1.0587
12451TIP3   OH258767   5.546   1.096   3.131  0.2946 -0.5551 -0.4611
12451TIP3    H158768   5.467   1.083   3.183  0.2824  1.2339  0.0601
12451TIP3    H258769   5.614   1.112   3.197  0.5667  0.3637 -0.9558
12452TIP3   OH258770   0.552   4.872   5.364 -0.6651  0.3189  0.4343
12452TIP3    H158771   0.489   4.931   5.405 -1.0330  0.4503 -0.2922
12452TIP3    H258772   0.555   4.902   5.273  0.9677  0.7606  0.6060
12453TIP3   OH258773   2.097   0.891  12.848 -0.2544  0.8162 -0.5826
12453TIP3    H158774   2.168   0.932  12.897 -0.0974  0.6860 -0.7008
12453TIP3    H258775   2.098   0.934  12.763 -0.1896  0.6754 -0.6527
12454TIP3   OH258776   6.477   3.065  12.425  0.0450  0.3101 -0.0199
12454TIP3    H158777   6.551   3.100  12.474  0.3814 -0.4276  0.0050
12454TIP3    H258778   6.476   2.972  12.446  0.2394 -0.0388 -1.4446
12455TIP3   OH258779   3.770   2.009   5.055  0.2803  0.0647 -0.1433
12455TIP3    H158780   3.735   2.098   5.068 -0.7126 -0.1520 -1.1619
12455TIP3    H258781   3.776   2.000   4.960  2.4613 -0.2016 -0.0241
12456TIP3   OH258782   2.064   4.970   0.463 -0.6411 -0.2748  0.0369
12456TIP3    H158783   2.002   5.012   0.404 -1.4089 -0.5870  0.5961
12456TIP3    H258784   2.126   4.925   0.406 -0.5351  0.5835 -0.5409
12457TIP3   OH258785   1.767   5.953  12.697 -0.4020  0.4351  0.2182
12457TIP3    H158786   1.734   6.015  12.761 -0.1106 -0.4682  1.2683
12457TIP3    H258787   1.697   5.887  12.688  0.1120 -0.1883  0.6651
12458TIP3   OH258788   3.185   6.670   0.366  0.4116 -0.0325  0.2925
12458TIP3    H158789   3.178   6.593   0.309 -2.8438  0.4559 -0.1617
12458TIP3    H258790   3.120   6.731   0.333  0.3978  1.4833  2.8041
12459TIP3   OH258791   4.689   0.206   4.742 -0.3386 -0.6010 -0.8177
12459TIP3    H158792   4.628   0.160   4.685 -2.3831  2.3236 -1.2067
12459TIP3    H258793   4.751   0.249   4.682 -1.2098  0.7692 -0.7663
12460TIP3   OH258794   1.811   5.450  14.933  0.4843  0.1246  0.4254
12460TIP3    H158795   1.840   5.468  15.023 -1.8480  0.6778  1.1372
12460TIP3    H258796   1.831   5.531  14.886  1.7531 -0.1790  0.3873
12461TIP3   OH258797   1.108   1.424  11.764 -0.5097 -0.0749 -0.3716
12461TIP3    H158798   1.073   1.509  11.791 -0.7551 -0.2664 -0.0827
12461TIP3    H258799   1.046   1.392  11.699  0.9876  1.1744 -2.5282
12462TIP3   OH258800   0.894   0.719  14.729 -0.3843  0.1306 -0.2440
12462TIP3    H158801   0.963   0.784  14.745  0.2223 -0.0927 -1.7777
12462TIP3    H258802   0.938   0.635  14.738 -1.2559 -0.1317  2.1290
12463TIP3   OH258803   0.407   3.152   2.603  0.4592  0.3866  0.2451
12463TIP3    H158804   0.415   3.150   2.508 -0.2432 -2.4235  0.1556
12463TIP3    H258805   0.476   3.094   2.635 -2.2109 -2.6236  1.0493
12464TIP3   OH258806   1.131   1.533   5.229 -0.7376  0.0174  0.1010
12464TIP3    H158807   1.208   1.479   5.217 -0.5471  0.2064  0.4405
12464TIP3    H258808   1.078   1.518   5.150 -1.5128 -1.9765  0.9360
12465TIP3   OH258809   0.811   0.701  11.779  0.1057  0.5489  0.2285
12465TIP3    H158810   0.766   0.652  11.848 -0.0164  0.8081  0.3344
12465TIP3    H258811   0.823   0.637  11.708  1.8061 -0.2200  1.1440
12466TIP3   OH258812   5.783   3.669   5.864  0.2552  0.0973 -0.4495
12466TIP3    H158813   5.873   3.689   5.892 -1.7015  3.2273  5.0969
12466TIP3    H258814   5.752   3.603   5.926 -1.7310  0.1249 -1.3394
12467TIP3   OH258815   2.506   5.596  16.451 -0.9030  0.6252 -0.1356
12467TIP3    H158816   2.521   5.523  16.511 -3.4741  0.0666 -0.0824
12467TIP3    H258817   2.529   5.674  16.502 -1.5846  0.0691  1.0589
12468TIP3   OH258818   5.223   6.106   4.661 -0.0972  0.1676  0.1027
12468TIP3    H158819   5.140   6.059   4.647  0.9338 -1.4568 -0.7584
12468TIP3    H258820   5.277   6.045   4.712  1.3012  0.3541 -1.1000
12469TIP3   OH258821   6.667   0.474  16.069 -0.1714 -0.5287  0.3313
12469TIP3    H158822   6.642   0.567  16.065  0.2954 -0.2129  2.9955
12469TIP3    H258823   6.758   0.475  16.097  0.0771 -1.8130 -0.3802
12470TIP3   OH258824   6.149   4.323   5.263  0.0558  0.0759 -0.1823
12470TIP3    H158825   6.116   4.379   5.193  1.0468 -0.7207 -1.3371
12470TIP3    H258826   6.222   4.275   5.223  1.6531  0.6844  1.8055
12471TIP3   OH258827   4.933   6.076   1.955 -0.1140  0.5137 -0.2898
12471TIP3    H158828   4.989   6.027   1.895 -0.9171  1.4359 -1.8420
12471TIP3    H258829   4.844   6.048   1.935 -0.4100  0.9063  0.4114
12472TIP3   OH258830   0.710   6.212  13.497 -0.6591 -0.6036 -0.0227
12472TIP3    H158831   0.729   6.118  13.490  3.0579  0.0839 -1.7410
12472TIP3    H258832   0.736   6.235  13.587 -1.4649 -1.1522  0.3648
12473TIP3   OH258833   3.768   0.275  12.681 -0.0196  0.5719 -0.8508
12473TIP3    H158834   3.737   0.237  12.599 -0.9938  1.3986 -0.8881
12473TIP3    H258835   3.837   0.216  12.710 -1.7788 -1.5263 -0.6505
12474TIP3   OH258836   4.326   2.463  13.210 -0.1616 -0.2778 -0.8681
12474TIP3    H158837   4.360   2.552  13.197 -0.4965 -0.0199 -0.0608
12474TIP3    H258838   4.392   2.406  13.170  1.5825  0.1651  1.2158
12475TIP3   OH258839   3.305   6.019   1.172  0.3767 -0.1415  0.1147
12475TIP3    H158840   3.360   6.087   1.134 -0.8655  0.1957 -1.1854
12475TIP3    H258841   3.307   5.948   1.108 -2.0852  0.5986 -0.9008
12476TIP3   OH258842   5.833   1.498   0.519 -0.2231 -0.0892 -0.5305
12476TIP3    H158843   5.923   1.473   0.498  0.7516 -0.3394  3.2468
12476TIP3    H258844   5.805   1.435   0.586 -1.8706  2.1116  1.0017
12477TIP3   OH258845   0.701   1.077  15.364  0.3854  0.2098 -0.3494
12477TIP3    H158846   0.782   1.106  15.321 -0.0208 -0.3862 -1.5691
12477TIP3    H258847   0.633   1.133  15.325  0.2720  1.2143  1.2053
12478TIP3   OH258848   0.267   1.747  12.396 -0.4222 -0.1947 -0.0704
12478TIP3    H158849   0.231   1.803  12.327 -0.6333  0.6649  0.7161
12478TIP3    H258850   0.192   1.696  12.426 -0.2195 -0.9536 -0.8220
12479TIP3   OH258851   3.287   5.419   2.925 -0.0528  0.1481  0.5272
12479TIP3    H158852   3.298   5.494   2.984 -0.5192 -0.1484  1.0008
12479TIP3    H258853   3.286   5.343   2.983  1.6357 -0.3594 -0.0291
12480TIP3   OH258854   1.758   1.356  10.987 -0.0864 -0.6411 -0.0206
12480TIP3    H158855   1.795   1.402  10.912 -0.4077  1.1409  0.8529
12480TIP3    H258856   1.666   1.344  10.965 -0.7234  1.8799  0.9027
12481TIP3   OH258857   0.564   1.474  11.110  0.6019  0.3635 -0.1688
12481TIP3    H158858   0.615   1.397  11.136 -0.7500  0.0357  1.7525
12481TIP3    H258859   0.541   1.516  11.193 -0.9757  1.3170 -1.0400
12482TIP3   OH258860   6.685   4.450  14.313  0.0678 -0.0400 -0.2764
12482TIP3    H158861   6.674   4.361  14.346  0.8060 -0.4984 -1.2066
12482TIP3    H258862   6.735   4.439  14.232 -1.5794  1.0496 -1.4953
12483TIP3   OH258863   6.135   1.379  17.131  0.1213 -0.3191 -0.1039
12483TIP3    H158864   6.072   1.437  17.088 -0.3381  0.0068  0.9771
12483TIP3    H258865   6.144   1.304  17.071 -2.4600 -1.1042  0.3760
12484TIP3   OH258866   2.448   5.581  12.208 -0.3148  0.3826 -0.4186
12484TIP3    H158867   2.501   5.660  12.198  1.2039 -0.1886  2.2108
12484TIP3    H258868   2.493   5.515  12.156 -0.7811  0.8609 -1.4573
12485TIP3   OH258869   3.710   6.645  15.982  1.1057 -0.1714  0.1263
12485TIP3    H158870   3.745   6.594  15.909  0.0384 -1.2134  0.3148
12485TIP3    H258871   3.782   6.649  16.046  2.2659  1.2762 -1.1818
12486TIP3   OH258872   3.660   0.862  11.358  0.6879  0.0965  0.1666
12486TIP3    H158873   3.729   0.796  11.357  0.9317  0.2252  2.7457
12486TIP3    H258874   3.610   0.844  11.437 -0.4031  1.8601 -0.0662
12487TIP3   OH258875   2.658   4.590  12.970  0.1442 -0.1545 -0.3401
12487TIP3    H158876   2.723   4.523  12.991  0.9495  0.8724  0.5680
12487TIP3    H258877   2.673   4.611  12.878 -0.3476 -1.4354 -0.7366
12488TIP3   OH258878   2.354   4.991  12.621  0.0167 -0.7797 -0.5385
12488TIP3    H158879   2.324   4.972  12.710  1.5498 -1.7536 -0.1859
12488TIP3    H258880   2.303   4.931  12.566  0.2138 -1.3439 -0.1237
12489TIP3   OH258881   3.303   3.320   4.105  0.0804  0.1404  0.0568
12489TIP3    H158882   3.367   3.329   4.176  0.0791  0.7923 -0.0184
12489TIP3    H258883   3.218   3.337   4.148  0.2346  2.5704 -0.4580
12490TIP3   OH258884   2.311   2.603   3.700 -0.0519 -0.1603  1.0869
12490TIP3    H158885   2.393   2.652   3.700 -0.0506 -0.1475  1.9769
12490TIP3    H258886   2.322   2.538   3.769  0.2926 -2.0374 -0.6269
12491TIP3   OH258887   2.113   0.467   0.319 -0.2097 -0.1578  0.4768
12491TIP3    H158888   2.043   0.420   0.364 -0.9214  0.6264  0.2095
12491TIP3    H258889   2.185   0.468   0.382 -1.0732  0.6147  1.4875
12492TIP3   OH258890   2.089   2.296  11.450 -0.3931 -0.3631  0.7348
12492TIP3    H158891   2.179   2.269  11.435 -1.0948 -2.0970 -0.7376
12492TIP3    H258892   2.087   2.389  11.425  1.2448  0.1142  2.1807
12493TIP3   OH258893   5.749   0.451   4.682 -0.2612  0.1435  0.6899
12493TIP3    H158894   5.702   0.403   4.614 -0.2190 -0.8122  1.3189
12493TIP3    H258895   5.695   0.442   4.760  0.1536  0.4401  1.0155
12494TIP3   OH258896   3.125   0.174   6.037  0.2382 -0.6276 -0.0047
12494TIP3    H158897   3.081   0.151   6.119 -1.8403 -1.0611 -1.1869
12494TIP3    H258898   3.199   0.113   6.031 -0.3913 -1.5018  0.8839
12495TIP3   OH258899   5.629   2.867  15.186  0.7078  0.0493  0.0081
12495TIP3    H158900   5.678   2.873  15.103 -0.7761  2.4122 -0.8038
12495TIP3    H258901   5.673   2.929  15.244 -0.3407  1.0781 -0.2450
12496TIP3   OH258902   1.292   4.812   4.308  0.1717 -0.1277 -0.7841
12496TIP3    H158903   1.334   4.730   4.335  0.5209 -0.2216 -1.5857
12496TIP3    H258904   1.198   4.793   4.308  0.2325 -0.4315 -0.6689
12497TIP3   OH258905   5.359   3.204   4.631 -0.5554  0.4109  0.5682
12497TIP3    H158906   5.320   3.268   4.691 -1.2170  0.7415 -0.1941
12497TIP3    H258907   5.286   3.147   4.607 -0.1142 -0.2175  0.7101
12498TIP3   OH258908   5.497   5.837   5.165 -0.2882  0.4395  0.6104
12498TIP3    H158909   5.498   5.774   5.238  1.8507 -0.5606 -0.1903
12498TIP3    H258910   5.522   5.920   5.205  1.3605 -0.2027  1.0122
12499TIP3   OH258911   2.828   3.414   1.891  0.0966  0.0163  0.3576
12499TIP3    H158912   2.800   3.363   1.966  0.7944 -1.7139 -0.4939
12499TIP3    H258913   2.789   3.501   1.904  0.9818  0.0734  3.1684
12500TIP3   OH258914   2.121   1.702   5.892 -0.4383 -0.0183  0.5434
12500TIP3    H158915   2.118   1.685   5.797 -0.3044 -0.7224  0.6567
12500TIP3    H258916   2.058   1.772   5.906  1.1563  1.7223 -0.3885
12501TIP3   OH258917   1.795   2.171   1.396 -0.6795  0.0201 -0.1144
12501TIP3    H158918   1.839   2.180   1.311 -0.8710 -1.4233 -0.3806
12501TIP3    H258919   1.828   2.089   1.432 -1.9463 -0.2804  0.4088
12502TIP3   OH258920   0.298   2.602   6.664 -0.9816  0.2911  0.2339
12502TIP3    H158921   0.328   2.689   6.688 -0.8034  0.5235 -0.8084
12502TIP3    H258922   0.251   2.614   6.581 -1.8850 -0.4390  0.6117
12503TIP3   OH258923   3.680   0.448   1.309  0.1557  0.3653  0.8184
12503TIP3    H158924   3.750   0.432   1.372  1.8237  0.4620 -0.9204
12503TIP3    H258925   3.707   0.401   1.230 -2.3333 -0.5531  0.4122
12504TIP3   OH258926   5.953   4.743  11.494 -0.1860  0.4316  0.4269
12504TIP3    H158927   5.984   4.658  11.464  1.0092  1.0967 -0.3109
12504TIP3    H258928   5.865   4.751  11.456  0.6159  0.5177 -1.5047
12505TIP3   OH258929   0.587   3.498  13.058  0.4817  0.2233  0.6900
12505TIP3    H158930   0.580   3.447  13.138 -0.1388  0.8220  1.0214
12505TIP3    H258931   0.680   3.492  13.034  0.3791 -1.2943  0.5499
12506TIP3   OH258932   2.202   5.540   4.623  0.5388  0.0146 -0.7516
12506TIP3    H158933   2.181   5.583   4.540  0.5487  2.2347  0.3282
12506TIP3    H258934   2.293   5.563   4.641  0.1722  0.6281  0.4597
12507TIP3   OH258935   1.135   2.527   0.169 -0.1670 -0.4185  0.8580
12507TIP3    H158936   1.115   2.440   0.202  1.2360 -1.5190 -1.0052
12507TIP3    H258937   1.094   2.530   0.082  1.3009  0.0612  0.1422
12508TIP3   OH258938   1.430   5.979   5.656 -0.4724 -0.0997 -0.5744
12508TIP3    H158939   1.515   5.981   5.611  1.7232  0.0189  3.1223
12508TIP3    H258940   1.448   5.931   5.737 -3.5150  1.4128  1.1616
12509TIP3   OH258941   4.234   2.166   5.787  0.2120  0.3279  0.0145
12509TIP3    H158942   4.316   2.215   5.786 -1.6716  3.7879 -0.9018
12509TIP3    H258943   4.190   2.195   5.867 -1.4094  0.9872 -1.0772
12510TIP3   OH258944   0.268   0.237  16.697  0.2430  0.2669 -0.4073
12510TIP3    H158945   0.262   0.240  16.793  0.6882 -0.5178 -0.3456
12510TIP3    H258946   0.181   0.207  16.670  0.3026 -0.1025 -0.2061
12511TIP3   OH258947   3.381   1.653  13.440  0.2286  0.2267  0.1749
12511TIP3    H158948   3.452   1.634  13.379 -1.2861  0.5090 -1.7890
12511TIP3    H258949   3.336   1.729  13.402 -0.6843  0.5311  1.7502
12512TIP3   OH258950   1.235   4.069   6.168  0.4667  0.0994  0.0704
12512TIP3    H158951   1.219   4.041   6.078  2.1010  0.4082 -0.3403
12512TIP3    H258952   1.165   4.132   6.186 -1.3600 -1.7765 -0.0795
12513TIP3   OH258953   5.088   3.964  13.806 -0.3528 -0.0771  0.8249
12513TIP3    H158954   5.127   3.894  13.859  0.1593 -0.3219  0.1317
12513TIP3    H258955   4.995   3.942  13.802  0.1002 -1.9094 -1.1390
12514TIP3   OH258956   3.158   2.096  15.371  0.2718 -0.1896 -0.6977
12514TIP3    H158957   3.084   2.101  15.432  0.2149 -0.7434 -0.7149
12514TIP3    H258958   3.202   2.180  15.379  0.6297 -0.4831  0.5691
12515TIP3   OH258959   5.159   3.100  11.303 -0.3294 -0.9332  0.1243
12515TIP3    H158960   5.152   3.195  11.315  1.3284 -0.7205 -0.3860
12515TIP3    H258961   5.108   3.081  11.225 -0.6544 -0.4600  0.2217
12516TIP3   OH258962   1.388   3.198  17.141 -0.5326 -0.9424 -0.3088
12516TIP3    H158963   1.387   3.280  17.190  2.5336 -0.3349 -1.0729
12516TIP3    H258964   1.307   3.200  17.090 -1.3607  0.7643  0.9531
12517TIP3   OH258965   0.988   0.915   3.174  0.2937  0.1439  0.6177
12517TIP3    H158966   1.071   0.944   3.135 -0.1011  0.2904 -0.1515
12517TIP3    H258967   0.921   0.961   3.122 -0.2412  1.0603  2.0698
12518TIP3   OH258968   5.338   4.786  13.238 -0.2644  0.0557  0.3403
12518TIP3    H158969   5.266   4.739  13.280  0.3599 -2.1448 -0.9246
12518TIP3    H258970   5.295   4.855  13.188 -1.4596 -0.7608  0.1862
12519TIP3   OH258971   6.251   1.201  12.099  0.0879  0.2775 -0.1352
12519TIP3    H158972   6.346   1.203  12.098  0.1146  1.7249  1.0244
12519TIP3    H258973   6.227   1.127  12.043  1.8590  0.2978 -0.9644
12520TIP3   OH258974   5.240   4.707  14.786  0.6469 -0.2218  0.1238
12520TIP3    H158975   5.230   4.621  14.744 -2.2156  0.7923 -1.5373
12520TIP3    H258976   5.215   4.769  14.718  1.3231  1.8851  1.7158
12521TIP3   OH258977   0.078   6.686   5.174 -0.2671 -0.1718 -0.2639
12521TIP3    H158978   0.017   6.719   5.108 -0.2188  0.3174 -0.0680
12521TIP3    H258979   0.086   6.758   5.237  0.1985 -0.3862 -0.0767
12522TIP3   OH258980   3.772   3.819  17.210 -0.6645  0.0635 -0.2790
12522TIP3    H158981   3.688   3.791  17.246 -0.6753  0.4810  0.0292
12522TIP3    H258982   3.792   3.755  17.141 -1.5778  0.3806 -0.8479
12523TIP3   OH258983   5.517   6.076  16.537  0.1389 -0.5890 -0.7120
12523TIP3    H158984   5.481   6.050  16.622  1.4329  0.0592  0.0670
12523TIP3    H258985   5.547   5.993  16.498 -0.4595 -0.8888 -0.5509
12524TIP3   OH258986   3.243   3.035   0.074  0.3446  0.1688 -0.3357
12524TIP3    H158987   3.175   3.003   0.133 -0.2652 -2.5503 -2.3401
12524TIP3    H258988   3.195   3.072  -0.001  1.0731  0.1013 -0.8498
12525TIP3   OH258989   0.120   6.665   1.742  0.2585 -0.1755 -0.0602
12525TIP3    H158990   0.046   6.607   1.761 -0.7386  1.0092 -0.1565
12525TIP3    H258991   0.192   6.606   1.720 -0.9791 -1.3779 -1.1201
12526TIP3   OH258992   0.454   1.728   4.658 -0.1714 -0.1653  0.7591
12526TIP3    H158993   0.545   1.699   4.657 -0.2042 -0.2435 -0.1293
12526TIP3    H258994   0.409   1.661   4.710  0.3172  0.0114  1.4200
12527TIP3   OH258995   2.749   5.143   1.944  0.3922  0.4026  0.4701
12527TIP3    H158996   2.804   5.222   1.946 -0.2844  0.8688  1.8665
12527TIP3    H258997   2.775   5.093   2.022  0.2431 -0.3647  0.0371
12528TIP3   OH258998   1.946   2.163  14.595  0.9450  0.1749  0.1963
12528TIP3    H158999   1.890   2.085  14.599  0.2164  0.7318  1.8841
12528TIP3    H259000   2.034   2.129  14.580  0.3804 -0.8261 -0.9839
12529TIP3   OH259001   2.955   6.131  13.985 -0.4103  0.1298 -0.1800
12529TIP3    H159002   2.909   6.047  13.977  1.5287 -0.8951 -1.3469
12529TIP3    H259003   2.923   6.182  13.910 -0.8861  0.0746 -0.0181
12530TIP3   OH259004   2.563   3.529   3.532 -0.4606  0.7374 -0.6991
12530TIP3    H159005   2.628   3.463   3.556 -1.1646  0.4567  0.5257
12530TIP3    H259006   2.598   3.570   3.453  1.4769  0.9929  0.2562
12531TIP3   OH259007   5.751   0.263   3.247 -0.7094  0.0161 -0.1330
12531TIP3    H159008   5.822   0.327   3.233 -0.2559 -0.5618 -0.4930
12531TIP3    H259009   5.734   0.267   3.341  0.3245 -0.3751  0.0828
12532TIP3   OH259010   3.133   0.216  14.877 -0.0014 -1.1347  0.5221
12532TIP3    H159011   3.108   0.189  14.789  0.0352 -1.4900  0.6171
12532TIP3    H259012   3.167   0.136  14.918  0.3653 -0.8792  0.7201
12533TIP3   OH259013   2.138   3.776  13.721 -0.0874  0.0291  0.1114
12533TIP3    H159014   2.154   3.736  13.806  0.4494 -0.1397 -0.0649
12533TIP3    H259015   2.048   3.752  13.700  0.2457 -1.1495 -0.0255
12534TIP3   OH259016   6.244   0.524   1.250  0.8299  0.0053  0.1906
12534TIP3    H159017   6.226   0.534   1.156 -2.6370 -0.7010  0.6309
12534TIP3    H259018   6.300   0.447   1.255 -0.0686 -0.7945 -1.2662
12535TIP3   OH259019   3.091   5.468  11.061 -0.1077  0.0698  0.3884
12535TIP3    H159020   3.186   5.472  11.069  0.2767  1.9771 -3.1063
12535TIP3    H259021   3.068   5.543  11.006 -3.5871 -0.7436  0.4664
12536TIP3   OH259022   3.020   6.038  14.947 -0.9091  0.1495  0.1289
12536TIP3    H159023   3.092   5.980  14.974 -1.2747 -1.1738 -1.5303
12536TIP3    H259024   3.061   6.123  14.935  0.0479 -0.2009  0.7803
12537TIP3   OH259025   6.236   0.227  10.801  0.2264  0.4430  0.6939
12537TIP3    H159026   6.147   0.192  10.810 -0.3600  2.0255  1.4629
12537TIP3    H259027   6.223   0.318  10.773  1.7060 -0.0744 -2.0335
12538TIP3   OH259028   6.035   5.696   5.152 -0.0493 -0.4992 -0.4510
12538TIP3    H159029   5.961   5.645   5.119  1.0229 -2.2808 -0.1868
12538TIP3    H259030   6.102   5.632   5.172  0.6088  0.8204  1.9527
12539TIP3   OH259031   5.088   2.734  17.111 -0.2232 -0.2141 -0.0746
12539TIP3    H159032   5.017   2.774  17.160  2.1225  1.3898  2.2514
12539TIP3    H259033   5.143   2.807  17.083 -0.3327 -1.2458 -3.4432
12540TIP3   OH259034   0.038   2.110  15.548  0.0264 -0.0196  0.3805
12540TIP3    H159035  -0.004   2.137  15.629 -3.4753  0.2980 -1.3221
12540TIP3    H259036   0.078   2.190  15.514 -1.4925  0.7180  0.2228
12541TIP3   OH259037   1.345   1.609   3.007 -0.9113  0.2892  0.5636
12541TIP3    H159038   1.293   1.687   2.990  1.3103  1.3641 -1.8847
12541TIP3    H259039   1.424   1.641   3.051 -0.3393 -0.6730  0.2734
12542TIP3   OH259040   6.600   2.185   4.865 -0.0271 -0.9119 -0.5912
12542TIP3    H159041   6.606   2.091   4.882 -1.9504 -0.9167  0.3263
12542TIP3    H259042   6.534   2.193   4.796  0.0017 -0.2113 -0.5439
12543TIP3   OH259043   6.524   0.333   4.598  0.5404 -0.0570  0.2008
12543TIP3    H159044   6.562   0.421   4.591  0.1643  0.3036  2.0686
12543TIP3    H259045   6.430   0.347   4.581  0.9492 -0.8334 -3.7029
12544TIP3   OH259046   5.759   5.663   1.671  0.1813 -0.2759 -0.0130
12544TIP3    H159047   5.821   5.666   1.599 -0.0855  0.7609 -0.2241
12544TIP3    H259048   5.813   5.653   1.750  0.6431  0.8113 -0.1743
12545TIP3   OH259049   2.816   2.938   5.814 -0.4326  0.1167  0.4438
12545TIP3    H159050   2.721   2.943   5.817 -0.5005 -1.3841  1.6207
12545TIP3    H259051   2.845   3.029   5.824 -1.7198  0.4199  1.6544
12546TIP3   OH259052   0.660   2.113  15.645 -0.2592  0.8317  0.1999
12546TIP3    H159053   0.667   2.207  15.664  0.4666  1.1799 -1.4947
12546TIP3    H259054   0.700   2.070  15.720 -0.1332  1.9180  0.7770
12547TIP3   OH259055   5.546   6.321   4.823  0.0187  0.3924 -0.3667
12547TIP3    H159056   5.497   6.403   4.816 -1.5721 -0.2438  2.0204
12547TIP3    H259057   5.505   6.275   4.897  1.7851 -1.9232 -0.7197
12548TIP3   OH259058   0.657   2.066  10.139 -0.2678 -0.4561  0.3323
12548TIP3    H159059   0.600   2.139  10.117 -0.5433 -0.5290  0.7799
12548TIP3    H259060   0.640   2.001  10.071 -0.5317 -0.3763  0.3209
12549TIP3   OH259061   6.443   3.065  13.249 -0.3597 -0.4246  0.7545
12549TIP3    H159062   6.405   3.135  13.196 -0.5325 -1.0855 -0.0093
12549TIP3    H259063   6.484   3.111  13.323  2.1631  0.7769 -1.2142
12550TIP3   OH259064   1.675   2.946   1.848  0.2509 -0.0517  0.1628
12550TIP3    H159065   1.668   2.917   1.939  0.5757 -1.0074 -0.1059
12550TIP3    H259066   1.726   2.878   1.805  2.1130  1.4848 -0.2528
12551TIP3   OH259067   3.239   1.256   4.775  0.4238  0.1343  0.2573
12551TIP3    H159068   3.298   1.305   4.717  1.4202  1.8437  2.5828
12551TIP3    H259069   3.191   1.198   4.716  1.7845  1.3414 -2.1932
12552TIP3   OH259070   1.435   5.702   2.514  0.0370 -0.1486 -0.0824
12552TIP3    H159071   1.383   5.727   2.590 -0.1833  1.3719 -0.6935
12552TIP3    H259072   1.439   5.606   2.518 -0.0942 -0.1113  1.7282
12553TIP3   OH259073   2.617   0.131   0.771  0.0429  0.1237 -0.1625
12553TIP3    H159074   2.542   0.146   0.714 -0.0724  1.5730  0.3158
12553TIP3    H259075   2.592   0.058   0.827 -1.0630  0.6486  0.0564
12554TIP3   OH259076   2.946   0.957   1.811 -0.0504  0.4015  0.1338
12554TIP3    H159077   2.945   0.983   1.904  0.4626  0.1986  0.1983
12554TIP3    H259078   2.868   0.901   1.802  0.3193 -0.2138  0.6325
12555TIP3   OH259079   5.389   0.935   4.516 -0.2711 -0.2389 -0.2553
12555TIP3    H159080   5.363   0.998   4.583 -0.5648 -0.5345 -0.0945
12555TIP3    H259081   5.396   0.851   4.561  1.6710 -0.0670 -0.1273
12556TIP3   OH259082   4.007   0.058  11.073  0.3973 -0.5228  0.8181
12556TIP3    H159083   3.960  -0.002  11.015  0.1776 -0.1431  0.5973
12556TIP3    H259084   4.094   0.019  11.084  0.3341 -0.7578  0.4814
12557TIP3   OH259085   1.858   0.523   2.198 -0.1248  0.7143 -0.1028
12557TIP3    H159086   1.771   0.551   2.170 -0.3812 -1.0756 -1.2798
12557TIP3    H259087   1.842   0.460   2.268  0.2892  1.0620  0.3163
12558TIP3   OH259088   3.519   5.867   1.699  0.3124  0.1766 -0.0296
12558TIP3    H159089   3.571   5.882   1.778  2.3599 -2.7518 -0.6839
12558TIP3    H259090   3.514   5.954   1.658  1.0479  1.3493  2.1681
12559TIP3   OH259091   2.201   6.117   3.641  0.9781  0.3087 -0.2499
12559TIP3    H159092   2.293   6.099   3.623  0.7300 -0.3020 -1.0395
12559TIP3    H259093   2.200   6.198   3.691  1.9740  0.0165  0.2563
12560TIP3   OH259094   0.988   4.370  16.564  0.2362 -0.0140 -0.2989
12560TIP3    H159095   0.968   4.395  16.473  0.4636 -1.6057 -0.8261
12560TIP3    H259096   1.075   4.407  16.580 -0.3620  1.4188 -0.2492
12561TIP3   OH259097   2.723   6.510  14.312 -0.2221 -0.2594  0.2791
12561TIP3    H159098   2.666   6.494  14.387 -3.7503  0.2794 -2.0420
12561TIP3    H259099   2.683   6.585  14.267  2.8379  0.6700 -1.1723
12562TIP3   OH259100   5.638   3.107  12.999  0.1192  0.2521  0.5127
12562TIP3    H159101   5.708   3.135  12.941 -0.6237 -2.3648 -1.8463
12562TIP3    H259102   5.682   3.053  13.065  0.5381  0.1265  0.1346
12563TIP3   OH259103   2.030   0.213   0.921 -0.0329 -0.6187  1.0188
12563TIP3    H159104   2.093   0.141   0.918  0.9861  0.2362  1.2398
12563TIP3    H259105   2.026   0.237   1.013  0.4196  0.2540  0.8276
12564TIP3   OH259106   5.876   6.168  13.770 -0.8560  1.0859 -0.4406
12564TIP3    H159107   5.857   6.169  13.676 -1.0068  0.8152 -0.4142
12564TIP3    H259108   5.799   6.208  13.811 -0.7692  1.2487 -0.4370
12565TIP3   OH259109   2.045   6.072   4.643 -0.6031  0.3345 -0.0235
12565TIP3    H159110   2.027   5.994   4.589  0.3960 -0.3034  0.5406
12565TIP3    H259111   2.046   6.144   4.580  0.2894 -0.3625 -0.8501
12566TIP3   OH259112   2.341   2.739   5.461 -0.5999 -0.2205  0.2291
12566TIP3    H159113   2.315   2.806   5.398 -0.1917 -0.4416 -0.1740
12566TIP3    H259114   2.431   2.761   5.485 -1.2540  0.8101  1.9709
12567TIP3   OH259115   6.477   5.904   0.245 -0.7534  0.2750 -0.3083
12567TIP3    H159116   6.437   5.830   0.291 -2.2632  1.7688  0.9007
12567TIP3    H259117   6.547   5.865   0.193 -2.2873 -2.1529 -0.6850
12568TIP3   OH259118   2.359   4.190  12.284 -0.5343  1.0608  0.0811
12568TIP3    H159119   2.319   4.154  12.363  1.3479 -0.3638  0.4552
12568TIP3    H259120   2.420   4.257  12.315  1.7425 -0.9109  0.1082
12569TIP3   OH259121   1.012   3.922   1.820  0.0921  0.5221 -0.3796
12569TIP3    H159122   1.007   3.882   1.906 -0.8105 -0.2130 -0.7610
12569TIP3    H259123   0.990   4.014   1.835 -0.9176  0.2171  0.0531
12570TIP3   OH259124   3.086   6.477   5.755 -0.5456 -0.5585 -0.2823
12570TIP3    H159125   3.067   6.431   5.836 -0.3512  0.8533  0.5979
12570TIP3    H259126   3.156   6.538   5.778 -0.4764 -0.1437 -1.5167
12571TIP3   OH259127   3.053   6.517  15.884 -0.3672 -0.5059 -0.0353
12571TIP3    H159128   2.972   6.498  15.932 -0.3179  2.0987  1.2435
12571TIP3    H259129   3.122   6.475  15.936 -0.6319 -0.3294  0.4701
12572TIP3   OH259130   2.895   2.619   0.179 -0.0715 -0.0302 -0.2902
12572TIP3    H159131   2.954   2.641   0.252 -0.0504  0.8717 -0.5642
12572TIP3    H259132   2.918   2.681   0.110  0.6559 -1.5734 -1.4866
12573TIP3   OH259133   6.065   6.440   2.833  0.1570  0.2803 -0.0490
12573TIP3    H159134   6.046   6.401   2.748 -0.9304  1.1489 -0.2194
12573TIP3    H259135   6.030   6.529   2.828  2.8943  1.4879  0.1980
12574TIP3   OH259136   4.149   2.470   3.673 -0.7504  0.2238 -0.2528
12574TIP3    H159137   4.097   2.398   3.709 -1.9195  1.3237  0.3187
12574TIP3    H259138   4.143   2.540   3.738  0.3154  0.8826 -0.8218
12575TIP3   OH259139   3.635   3.385  10.762  0.3993 -0.4085 -0.1953
12575TIP3    H159140   3.580   3.459  10.788  1.5494  1.2100 -2.0168
12575TIP3    H259141   3.575   3.311  10.754 -1.5654  1.2343 -1.9943
12576TIP3   OH259142   0.673   6.403  11.131 -0.2373  0.5375 -0.1573
12576TIP3    H159143   0.661   6.312  11.160  0.0816 -0.0211 -1.6852
12576TIP3    H259144   0.727   6.396  11.053 -0.1791  2.0632 -0.2758
12577TIP3   OH259145   3.063   6.683   5.979 -0.1515  0.4814 -0.1425
12577TIP3    H159146   3.148   6.723   5.995 -0.1376 -0.3085  2.1113
12577TIP3    H259147   3.070   6.595   6.016 -0.1710 -1.8335 -4.9063
12578TIP3   OH259148   5.114   6.325   3.874  0.2926 -0.0417 -0.5549
12578TIP3    H159149   5.139   6.316   3.782 -1.0945  2.0937 -1.2097
12578TIP3    H259150   5.132   6.240   3.912 -0.2423 -1.3811 -3.0892
12579TIP3   OH259151   0.580   4.216   3.616 -0.3908  0.3060 -0.3628
12579TIP3    H159152   0.669   4.249   3.607  1.0267 -3.0434 -0.0142
12579TIP3    H259153   0.538   4.277   3.677  1.8430  1.6052 -0.0098
12580TIP3   OH259154   1.823   3.608   3.659 -0.1647 -0.2005 -0.0786
12580TIP3    H159155   1.768   3.607   3.581  2.0489  1.0538 -1.7664
12580TIP3    H259156   1.907   3.572   3.630  1.6871  3.0151  0.8402
12581TIP3   OH259157   1.708   4.819   6.269  0.3098  0.7904 -0.4662
12581TIP3    H159158   1.719   4.732   6.232  0.9534  0.9841 -0.7349
12581TIP3    H259159   1.792   4.863   6.255  0.2796  1.1635  0.4322
12582TIP3   OH259160   4.246   5.260   5.409  0.3531  0.2844 -0.5320
12582TIP3    H159161   4.251   5.268   5.314  0.2162 -0.1399 -0.5767
12582TIP3    H259162   4.317   5.316   5.442 -0.7388  1.8762 -0.8119
12583TIP3   OH259163   4.235   3.541   6.026 -0.1369  0.1764  0.4358
12583TIP3    H159164   4.326   3.528   6.054 -0.2331 -0.2598  0.5624
12583TIP3    H259165   4.206   3.617   6.075  1.1642  2.4418 -2.0351
12584TIP3   OH259166   4.930   6.765  16.312  0.2720  0.6550  0.3671
12584TIP3    H159167   4.865   6.715  16.361  0.7405 -0.3872 -0.0633
12584TIP3    H259168   4.892   6.776  16.225  0.2380  0.9283  0.4139
12585TIP3   OH259169   3.172   0.223  16.661  0.0682 -0.2886  0.4512
12585TIP3    H159170   3.153   0.317  16.660 -2.5095 -0.7461 -0.3504
12585TIP3    H259171   3.135   0.192  16.744  0.3207 -0.7070  0.4092
12586TIP3   OH259172   3.588   1.624  15.561 -0.1159 -0.3893  0.0208
12586TIP3    H159173   3.662   1.624  15.500  1.3621 -0.9164  1.7075
12586TIP3    H259174   3.593   1.538  15.603 -2.2304 -0.7564 -0.4148
12587TIP3   OH259175   2.262   4.268  12.045  0.1851 -0.0840  0.0855
12587TIP3    H159176   2.289   4.262  12.137 -2.3530  0.5369  0.9475
12587TIP3    H259177   2.200   4.341  12.043 -1.0814 -1.1447 -1.8090
12588TIP3   OH259178   5.265   5.459  15.729 -0.0505  0.3315  0.3074
12588TIP3    H159179   5.178   5.442  15.692  0.1533 -1.3278  0.5279
12588TIP3    H259180   5.291   5.376  15.768  0.1513  1.7273  3.4441
12589TIP3   OH259181   6.509   6.522  16.536  0.3828 -0.0227  0.3137
12589TIP3    H159182   6.479   6.603  16.576  1.8024  1.1642 -0.9151
12589TIP3    H259183   6.464   6.518  16.451 -0.1216 -0.8346  0.6071
12590TIP3   OH259184   3.330   6.511   4.432 -0.9272 -0.1845  0.3045
12590TIP3    H159185   3.257   6.496   4.492  1.3569 -3.7141  2.6119
12590TIP3    H259186   3.403   6.536   4.489  0.1326  1.7783 -1.7386
12591TIP3   OH259187   4.137   2.412   0.343  0.7081  0.5599  0.0638
12591TIP3    H159188   4.181   2.330   0.321  0.7396  0.6073 -0.0518
12591TIP3    H259189   4.044   2.394   0.330  0.6988  0.4833  0.2311
12592TIP3   OH259190   1.848   5.366   5.285  0.1130  0.5437 -0.4566
12592TIP3    H159191   1.792   5.430   5.329 -0.3353 -0.2862  0.2121
12592TIP3    H259192   1.913   5.340   5.350 -3.0526 -3.9016  1.5204
12593TIP3   OH259193   3.806   1.568  16.427 -0.2969  0.6020 -0.2478
12593TIP3    H159194   3.851   1.646  16.395  1.3055  0.1729  0.7968
12593TIP3    H259195   3.852   1.546  16.508 -0.6648 -1.4314 -0.5330
12594TIP3   OH259196   1.384   3.267  11.451  0.3128 -0.0550 -0.5381
12594TIP3    H159197   1.460   3.214  11.427  0.2692 -0.9983  1.2523
12594TIP3    H259198   1.378   3.333  11.381  1.5876 -1.1451 -1.7415
12595TIP3   OH259199   4.946   1.431  16.439  0.1375 -0.2972  0.1520
12595TIP3    H159200   5.003   1.384  16.499  1.7364  0.2358 -0.9018
12595TIP3    H259201   4.966   1.523  16.454 -0.6582 -0.0794 -0.0458
12596TIP3   OH259202   1.749   6.558  11.932  0.5818  0.5233  0.2292
12596TIP3    H159203   1.743   6.650  11.905 -0.2843  0.1426 -1.0019
12596TIP3    H259204   1.664   6.521  11.905  0.6010 -0.4432  1.4555
12597TIP3   OH259205   4.452   5.746  10.766 -0.1997  0.2086  0.7627
12597TIP3    H159206   4.423   5.723  10.677  1.5861  2.1510 -0.4194
12597TIP3    H259207   4.375   5.783  10.808 -0.2825  2.6456 -1.3038
12598TIP3   OH259208   5.829   1.072  11.325 -0.3528  0.2153  0.0999
12598TIP3    H159209   5.747   1.089  11.369 -1.8715  1.3122 -2.8921
12598TIP3    H259210   5.895   1.120  11.376 -1.9723  1.4805  1.0824
12599TIP3   OH259211   5.074   2.017   4.686 -0.4793  0.2696 -0.0793
12599TIP3    H159212   5.169   2.010   4.677 -0.5686 -0.4291 -0.5581
12599TIP3    H259213   5.058   2.110   4.700  0.3375  0.2956  0.7616
12600TIP3   OH259214   3.645   0.991  16.001  0.2579  0.4557 -0.8500
12600TIP3    H159215   3.729   1.002  16.046 -0.1939  0.9204 -0.1139
12600TIP3    H259216   3.645   0.899  15.974 -0.2116 -0.3786  1.6800
12601TIP3   OH259217   2.066   2.595   4.104 -0.3046 -0.0413 -0.4007
12601TIP3    H159218   2.103   2.656   4.041  1.9361  1.8743  2.4980
12601TIP3    H259219   1.973   2.619   4.110 -0.2043  0.7592 -1.7647
12602TIP3   OH259220   0.472   5.002   2.868 -0.9244 -0.5448 -0.3803
12602TIP3    H159221   0.494   4.948   2.792 -1.7086 -1.3410 -0.0625
12602TIP3    H259222   0.525   5.081   2.858 -3.4036  0.9230 -3.5543
12603TIP3   OH259223   5.721   0.308  14.243  0.0490 -0.4553 -0.1005
12603TIP3    H159224   5.789   0.268  14.189  0.2097  0.1303 -0.3470
12603TIP3    H259225   5.641   0.303  14.189  0.2849  0.4474 -0.5538
12604TIP3   OH259226   2.682   5.136   4.326  0.1088  0.5046  0.6601
12604TIP3    H159227   2.764   5.103   4.363  0.5704 -0.3373 -1.0262
12604TIP3    H259228   2.626   5.150   4.402  1.6006  0.5150  1.8028
12605TIP3   OH259229   6.459   4.136  15.935  0.2326 -0.3886 -0.0401
12605TIP3    H159230   6.545   4.093  15.938 -0.4441 -1.8197 -0.2091
12605TIP3    H259231   6.475   4.218  15.889  1.3630 -1.0286 -0.8510
12606TIP3   OH259232   5.591   6.330   0.810 -0.7666  0.0817  0.1516
12606TIP3    H159233   5.518   6.355   0.753  0.7577  1.2772 -1.4207
12606TIP3    H259234   5.668   6.340   0.754  0.4303 -4.2959  0.6796
12607TIP3   OH259235   4.507   4.495  15.694  0.0099 -0.0880  0.2122
12607TIP3    H159236   4.530   4.563  15.756 -0.8763  0.2316  0.2036
12607TIP3    H259237   4.584   4.486  15.638  0.0829  0.9997  0.1272
12608TIP3   OH259238   6.255   6.059   4.406 -0.1487 -0.1404 -0.3772
12608TIP3    H159239   6.237   6.110   4.485 -1.4002  0.4361 -1.0083
12608TIP3    H259240   6.314   6.114   4.355 -1.1727  0.5371 -0.8708
12609TIP3   OH259241   0.998   5.827  16.580 -0.4744 -0.2386 -0.2925
12609TIP3    H159242   0.990   5.923  16.580 -0.3830 -0.2270  0.2021
12609TIP3    H259243   0.918   5.796  16.540  0.1472  0.0909 -1.8493
12610TIP3   OH259244   5.015   1.847  15.972 -0.6864 -0.4835  0.3926
12610TIP3    H159245   5.003   1.755  15.994 -1.9215 -0.3139  0.4958
12610TIP3    H259246   5.010   1.850  15.877  0.6681 -0.6838  0.2991
12611TIP3   OH259247   5.051   6.755   3.559 -0.0752 -0.2744 -0.2750
12611TIP3    H159248   5.068   6.849   3.565 -0.2671 -0.1850 -1.0147
12611TIP3    H259249   5.013   6.731   3.643  0.3334  0.2364  0.0558
12612TIP3   OH259250   2.849   5.937   4.182 -0.7610  0.2663  0.2479
12612TIP3    H159251   2.800   5.936   4.264 -2.5687 -0.6802 -0.7770
12612TIP3    H259252   2.794   5.988   4.122 -0.2570 -0.3832 -0.8101
12613TIP3   OH259253   3.639   6.308  11.915  0.5678 -0.1615 -0.5869
12613TIP3    H159254   3.549   6.326  11.940 -0.2196 -1.0636 -2.5199
12613TIP3    H259255   3.672   6.249  11.982  0.6978  2.2576  1.6387
12614TIP3   OH259256   6.568   3.572   4.378  0.2431  0.1520 -0.3997
12614TIP3    H159257   6.491   3.624   4.356  0.7323  2.0356  1.9809
12614TIP3    H259258   6.637   3.605   4.320 -0.1947 -0.0324 -1.0377
12615TIP3   OH259259   4.984   0.439  16.732  0.6302  0.7220  0.6498
12615TIP3    H159260   5.049   0.372  16.754 -1.5826 -2.4685 -1.5008
12615TIP3    H259261   5.035   0.512  16.697  3.1435 -0.3682  1.7999
12616TIP3   OH259262   3.465   3.802  14.595  0.4843  0.7107 -0.0444
12616TIP3    H159263   3.375   3.792  14.627  0.7090 -0.9649  0.1337
12616TIP3    H259264   3.517   3.812  14.674  0.7063 -0.6785  0.0171
12617TIP3   OH259265   0.419   3.644  11.724  0.2591  0.1908  0.6105
12617TIP3    H159266   0.424   3.548  11.721  1.3963  0.2149  1.3094
12617TIP3    H259267   0.494   3.674  11.674  1.9008  0.6683  3.1887
12618TIP3   OH259268   6.288   2.258   3.906  0.1503 -0.2615 -0.0349
12618TIP3    H159269   6.292   2.318   3.832 -0.9817 -0.8260 -0.5879
12618TIP3    H259270   6.203   2.215   3.898  1.6838 -3.4854 -0.8919
12619TIP3   OH259271   6.414   4.528  10.598 -0.8686  0.2203 -0.0469
12619TIP3    H159272   6.502   4.491  10.598 -1.3718 -1.0244 -0.1558
12619TIP3    H259273   6.376   4.499  10.681 -1.2886  0.4869 -0.1438
12620TIP3   OH259274   6.558   2.293  16.142 -0.4338 -0.0005 -0.4075
12620TIP3    H159275   6.539   2.221  16.082  0.4403  0.8287 -1.7387
12620TIP3    H259276   6.631   2.339  16.101  1.3212 -0.3578  2.1466
12621TIP3   OH259277   6.444   5.857   2.179  0.2173 -0.2169  0.0341
12621TIP3    H159278   6.468   5.846   2.271  0.7312 -0.6548 -0.1498
12621TIP3    H259279   6.356   5.821   2.173 -0.1624  0.5864  0.5264
12622TIP3   OH259280   2.763   0.895  13.043 -0.2202  0.2284 -0.0117
12622TIP3    H159281   2.826   0.862  13.107 -0.9010 -0.6581  0.2192
12622TIP3    H259282   2.802   0.976  13.011  0.2332  0.5937  1.3834
12623TIP3   OH259283   2.717   1.627  14.427 -0.2100 -0.0726 -0.1796
12623TIP3    H159284   2.663   1.548  14.430 -0.5784  0.1749 -0.2520
12623TIP3    H259285   2.699   1.673  14.509  1.4250 -0.9801  0.7387
12624TIP3   OH259286   5.826   6.253   3.897  1.2360 -0.3320 -0.6681
12624TIP3    H159287   5.734   6.279   3.884 -0.2455 -2.8421  3.0929
12624TIP3    H259288   5.871   6.335   3.920 -0.7253  0.5366  0.3130
12625TIP3   OH259289   3.650   0.405   4.548 -0.1769 -0.2922 -1.4490
12625TIP3    H159290   3.554   0.407   4.544 -0.1924 -0.6674 -1.3115
12625TIP3    H259291   3.676   0.496   4.558 -0.4950 -0.1283 -2.0978
12626TIP3   OH259292   6.314   1.742  10.278 -0.3876 -0.1632  0.2048
12626TIP3    H159293   6.347   1.831  10.288  1.2787 -0.3166 -2.7978
12626TIP3    H259294   6.388   1.686  10.301 -0.9528 -0.7517  0.6257
12627TIP3   OH259295   4.564   1.659  13.471 -0.0468  0.0253  0.2201
12627TIP3    H159296   4.656   1.687  13.480  0.4283 -1.9573  2.7407
12627TIP3    H259297   4.531   1.660  13.561 -1.8385 -1.3944 -0.3906
12628TIP3   OH259298   1.205   1.770   4.401 -0.3223  0.4397  0.5167
12628TIP3    H159299   1.122   1.754   4.446 -0.4297 -0.0158  0.1693
12628TIP3    H259300   1.268   1.787   4.471 -0.9481  1.9831  0.7356
12629TIP3   OH259301   5.762   4.226   2.105  0.0100  0.1430  0.1622
12629TIP3    H159302   5.734   4.191   2.021  0.6934 -3.0576  1.1069
12629TIP3    H259303   5.680   4.245   2.152 -0.4456 -0.7881 -0.2277
12630TIP3   OH259304   5.050   0.379  17.198 -0.3603  0.3572 -0.3922
12630TIP3    H159305   5.123   0.346  17.251 -0.6445  2.1223  1.1913
12630TIP3    H259306   5.020   0.302  17.150  1.4126 -0.8094  0.2477
12631TIP3   OH259307   2.766   2.655   5.785 -0.4418  0.0558 -0.1000
12631TIP3    H159308   2.814   2.590   5.835 -0.8359 -0.9749 -1.0153
12631TIP3    H259309   2.817   2.736   5.793 -0.1173 -0.2803  1.3183
12632TIP3   OH259310   3.008   6.252  14.668  0.0446 -0.5712  0.1637
12632TIP3    H159311   3.084   6.248  14.727 -1.0069  0.0852  1.6355
12632TIP3    H259312   3.011   6.170  14.620  0.8650 -1.2238  1.2757
12633TIP3   OH259313   6.657   4.746   4.610  0.4415  0.6488  0.9692
12633TIP3    H159314   6.716   4.728   4.537 -0.3547  1.4326  0.1115
12633TIP3    H259315   6.637   4.660   4.646  0.7586  0.2431  0.2008
12634TIP3   OH259316   5.525   1.188  13.409  0.1978  0.3817  1.0285
12634TIP3    H159317   5.475   1.252  13.460 -0.1763  0.1480  0.9616
12634TIP3    H259318   5.460   1.146  13.354  0.4458 -0.0446  1.0576
12635TIP3   OH259319   3.450   0.559   4.861 -0.1960  0.0887 -0.8556
12635TIP3    H159320   3.433   0.465   4.857  0.3262  0.0418 -2.6956
12635TIP3    H259321   3.508   0.570   4.936 -0.7845 -0.9678 -0.2313
12636TIP3   OH259322   3.666   0.285  15.306 -0.2583  0.2520  0.2871
12636TIP3    H159323   3.744   0.248  15.347 -0.6295 -0.2518  0.5569
12636TIP3    H259324   3.699   0.334  15.232  0.2959 -0.2092  0.2167
12637TIP3   OH259325   5.092   0.616  16.248 -0.3389  0.1823 -0.2526
12637TIP3    H159326   5.081   0.549  16.315  1.1883  0.8532  0.7335
12637TIP3    H259327   5.036   0.688  16.277 -0.1838  0.2162 -0.0295
12638TIP3   OH259328   6.374   1.865  15.272 -0.0755  0.6081  0.0737
12638TIP3    H159329   6.414   1.797  15.219  0.4869  0.8150  0.2291
12638TIP3    H259330   6.403   1.847  15.361  1.1685  1.8127 -0.0629
12639TIP3   OH259331   1.603   3.354  10.360 -0.8222 -0.3611 -0.0002
12639TIP3    H159332   1.599   3.276  10.414  3.7645  0.3129  1.8046
12639TIP3    H259333   1.606   3.426  10.423 -2.1467  1.1055 -1.5197
12640TIP3   OH259334   4.544   2.321  14.112  0.3961  0.5524  0.1926
12640TIP3    H159335   4.607   2.376  14.066  0.3271 -0.3390 -1.0127
12640TIP3    H259336   4.472   2.379  14.136 -0.2363  0.7882 -2.1069
12641TIP3   OH259337   2.215   3.571  16.525  0.8532  0.2815 -0.0180
12641TIP3    H159338   2.186   3.642  16.582 -0.3038  0.5444 -0.9033
12641TIP3    H259339   2.212   3.493  16.581  0.0127  0.5776  0.3688
12642TIP3   OH259340   2.542   1.508  14.883 -0.1201  0.1375  0.0231
12642TIP3    H159341   2.507   1.595  14.867  0.1290  0.1918 -0.2530
12642TIP3    H259342   2.476   1.464  14.936  0.0504  0.7169  0.7272
12643TIP3   OH259343   4.090   1.873  14.811  0.4163 -0.1247 -0.0226
12643TIP3    H159344   4.087   1.803  14.746  0.2312 -2.4969  2.3573
12643TIP3    H259345   4.177   1.867  14.849 -0.5962 -1.2264  2.3226
12644TIP3   OH259346   4.054   5.231  16.119  0.1268 -0.4153  0.4394
12644TIP3    H159347   4.140   5.272  16.123  0.7498 -1.5587 -0.4300
12644TIP3    H259348   4.033   5.226  16.026 -0.9609 -0.0098  0.6433
12645TIP3   OH259349   3.713   2.871   3.378  0.5977 -0.4032 -0.4899
12645TIP3    H159350   3.733   2.803   3.443  0.2752 -1.9701 -1.9579
12645TIP3    H259351   3.625   2.850   3.348 -0.1603  1.6280  0.1069
12646TIP3   OH259352   2.788   2.091  14.839 -0.0839 -0.7917 -0.7088
12646TIP3    H159353   2.864   2.143  14.816  0.1738 -0.2513  1.2253
12646TIP3    H259354   2.823   2.017  14.889 -0.7070 -1.3078 -1.0082
12647TIP3   OH259355   5.947   4.812   3.462 -0.2961 -0.0064 -0.0923
12647TIP3    H159356   6.028   4.814   3.513 -0.4887 -1.5781  0.3162
12647TIP3    H259357   5.879   4.836   3.525 -0.2040  0.9559 -0.3478
12648TIP3   OH259358   1.588   2.803  16.199 -0.7749  0.3905 -0.3062
12648TIP3    H159359   1.659   2.765  16.147 -0.9703  0.5075 -0.6620
12648TIP3    H259360   1.618   2.892  16.220 -0.5507  0.2295  0.0715
12649TIP3   OH259361   1.989   4.731  12.717  0.1241  0.2597 -0.7531
12649TIP3    H159362   1.995   4.639  12.744  0.2830  0.2252 -0.9053
12649TIP3    H259363   1.940   4.729  12.635 -1.1250  0.4481 -0.0255
12650TIP3   OH259364   5.678   6.787  12.316 -0.0181  0.1736 -0.0305
12650TIP3    H159365   5.769   6.814  12.323 -0.5515  2.8466 -1.8468
12650TIP3    H259366   5.636   6.825  12.394 -0.1195  1.7403 -0.8172
12651TIP3   OH259367   2.337   3.981  15.129 -0.1242  0.1504 -0.0647
12651TIP3    H159368   2.379   3.986  15.215 -0.6637 -2.4393  0.4450
12651TIP3    H259369   2.395   4.031  15.071  1.3239  0.2791  1.4219
12652TIP3   OH259370   2.276   4.529  11.734  0.0604 -0.2579 -0.3793
12652TIP3    H159371   2.363   4.567  11.745 -0.6646  1.3295  0.1562
12652TIP3    H259372   2.286   4.438  11.763  1.5274 -0.1023 -0.3352
12653TIP3   OH259373   3.670   5.476   3.162 -0.0474  0.1539  0.4950
12653TIP3    H159374   3.597   5.532   3.137  0.0461  0.9423  1.8524
12653TIP3    H259375   3.747   5.534   3.158  0.4786 -0.6011 -0.7040
12654TIP3   OH259376   4.183   0.515  14.210 -0.4770  0.3088  0.0393
12654TIP3    H159377   4.214   0.476  14.292  3.1373 -1.1735 -1.7701
12654TIP3    H259378   4.181   0.609  14.227 -0.6452 -0.0083  2.0173
12655TIP3   OH259379   6.244   5.771   3.726 -0.0169  0.4100 -0.2432
12655TIP3    H159380   6.214   5.688   3.689  0.5763 -0.0333  0.2579
12655TIP3    H259381   6.177   5.794   3.791 -0.8797  1.0159 -1.3026
12656TIP3   OH259382   0.559   4.284  11.914 -0.2783  0.1291  0.1168
12656TIP3    H159383   0.637   4.312  11.866  0.4669 -1.5725  0.2901
12656TIP3    H259384   0.538   4.198  11.879 -1.5410  0.1554  0.7369
12657TIP3   OH259385   5.213   1.093  13.484 -0.0162  0.2007 -0.3178
12657TIP3    H159386   5.209   1.080  13.579 -0.1498  0.6221 -0.2614
12657TIP3    H259387   5.141   1.041  13.449 -0.1798  0.3178 -0.1545
12658TIP3   OH259388   1.997   1.263  14.364 -0.3979  0.0554 -0.4658
12658TIP3    H159389   1.941   1.213  14.306  1.5177 -0.5005 -1.9464
12658TIP3    H259390   2.050   1.197  14.409  0.6319  0.6233 -0.8098
12659TIP3   OH259391   2.850   1.436   6.551 -0.1320  0.1226  0.4596
12659TIP3    H159392   2.918   1.422   6.616  0.4647 -1.8887 -0.5320
12659TIP3    H259393   2.895   1.474   6.476 -0.6338  1.4049  0.7660
12660TIP3   OH259394   0.489   0.962   4.411 -0.0965 -0.5360 -0.2651
12660TIP3    H159395   0.505   0.983   4.503  0.9093 -2.4209  0.0457
12660TIP3    H259396   0.491   1.046   4.367 -0.4483  0.4004  1.4099
12661TIP3   OH259397   3.023   6.718  12.792  0.0937  0.0300  0.0773
12661TIP3    H159398   3.085   6.768  12.845 -0.5849  2.1788 -1.0249
12661TIP3    H259399   3.075   6.647  12.753  1.4337  0.7001  0.6030
12662TIP3   OH259400   5.395   1.235  17.088  0.1880  0.2691 -0.2934
12662TIP3    H159401   5.402   1.157  17.033 -0.6338 -0.2140  0.2603
12662TIP3    H259402   5.482   1.247  17.124  0.6801  0.4572 -1.5049
12663TIP3   OH259403   4.999   0.444  12.076 -0.8125  0.1136 -0.3622
12663TIP3    H159404   4.936   0.486  12.018 -1.0440 -1.6015 -1.4364
12663TIP3    H259405   4.947   0.415  12.151 -0.8558  0.7032 -0.1573
12664TIP3   OH259406   6.688   1.609  13.627  0.0924 -0.2860 -0.0177
12664TIP3    H159407   6.596   1.591  13.607  0.2446 -1.3484  0.1993
12664TIP3    H259408   6.685   1.671  13.700 -0.4627 -1.2138  0.7765
12665TIP3   OH259409   1.321   4.627   3.301 -0.1736  0.2943  0.3863
12665TIP3    H159410   1.266   4.704   3.312 -0.0803  1.2359 -3.9884
12665TIP3    H259411   1.264   4.563   3.259  1.0388 -0.0920 -0.7368
12666TIP3   OH259412   4.727   6.293   6.560  0.1327  0.4424 -0.1565
12666TIP3    H159413   4.788   6.347   6.610  0.2151  0.2653 -0.0622
12666TIP3    H259414   4.775   6.268   6.481  0.0406  0.6328 -0.2759
12667TIP3   OH259415   4.735   6.780   0.591 -0.1613 -0.1955 -0.3387
12667TIP3    H159416   4.823   6.757   0.620  0.6744  0.9510 -1.8379
12667TIP3    H259417   4.734   6.876   0.590 -0.9223 -0.1876 -1.7231
12668TIP3   OH259418   3.745   0.835  16.823 -0.0015 -0.5912 -0.6707
12668TIP3    H159419   3.836   0.846  16.851 -0.5113  0.4145  0.7408
12668TIP3    H259420   3.730   0.740  16.829  0.9984 -0.7907 -1.1044
12669TIP3   OH259421   5.808   4.292   0.714  0.1483  0.3281  0.1897
12669TIP3    H159422   5.885   4.343   0.740  0.4934 -0.9510  1.8303
12669TIP3    H259423   5.831   4.201   0.736 -1.2417 -0.2788 -0.7425
12670TIP3   OH259424   2.426   3.832   3.458  0.4934 -0.3555  1.0185
12670TIP3    H159425   2.393   3.892   3.524 -3.6195 -2.8272  1.5305
12670TIP3    H259426   2.454   3.755   3.507  0.1131 -1.1047  0.0943
12671TIP3   OH259427   3.053   6.011   2.475 -0.3987  0.2329 -0.3795
12671TIP3    H159428   2.973   5.959   2.486  0.1350 -1.0756 -2.2444
12671TIP3    H259429   3.113   5.977   2.541 -0.6017 -0.4277 -0.5273
12672TIP3   OH259430   5.404   4.346  11.828 -0.6131  0.4235 -0.2748
12672TIP3    H159431   5.475   4.303  11.781  1.5092  3.0923  0.2167
12672TIP3    H259432   5.337   4.279  11.838  1.5712 -2.0738 -1.3362
12673TIP3   OH259433   6.215   3.664  14.215  0.0981  0.0259 -0.2076
12673TIP3    H159434   6.142   3.603  14.201  0.0079 -0.7335  2.8943
12673TIP3    H259435   6.281   3.636  14.151 -1.7971 -0.0432 -2.2528
12674TIP3   OH259436   3.292   5.931  15.073 -0.1033  0.1627  0.3807
12674TIP3    H159437   3.258   5.981  15.147 -1.1536  0.7107 -0.4436
12674TIP3    H259438   3.377   5.971  15.055 -0.0360  0.3150  1.0139
12675TIP3   OH259439   2.893   4.494   2.573 -0.2617 -0.4899  0.3563
12675TIP3    H159440   2.851   4.440   2.506 -0.9436  1.0894 -0.5420
12675TIP3    H259441   2.974   4.447   2.593 -0.4030 -1.3937 -1.0179
12676TIP3   OH259442   0.417   4.916  15.320  0.2590  0.4247  0.2016
12676TIP3    H159443   0.411   4.823  15.340  0.7604  0.2645 -0.3757
12676TIP3    H259444   0.509   4.938  15.337  0.1046  0.8620  0.5118
12677TIP3   OH259445   0.804   3.239   5.803  0.0187  0.4799 -0.2936
12677TIP3    H159446   0.858   3.316   5.820 -0.1319  0.5034  0.0748
12677TIP3    H259447   0.736   3.270   5.743  0.2066  0.5325 -0.4802
12678TIP3   OH259448   0.392   1.107   3.871 -0.1612  0.6859  0.0858
12678TIP3    H159449   0.482   1.130   3.893  0.3868 -2.3524  1.6718
12678TIP3    H259450   0.391   1.098   3.775  1.9312 -1.3761  0.1640
12679TIP3   OH259451   5.455   4.180   1.005  0.2860  0.7529 -0.1672
12679TIP3    H159452   5.467   4.266   1.046 -0.4816  0.3896  0.8591
12679TIP3    H259453   5.390   4.136   1.059 -0.5093  0.1003 -1.5851
12680TIP3   OH259454   2.795   3.883   5.206 -0.4190  0.0929  0.1072
12680TIP3    H159455   2.869   3.826   5.228 -0.6766 -0.5354 -0.6036
12680TIP3    H259456   2.785   3.873   5.112 -1.3070  0.3060  0.1733
12681TIP3   OH259457   5.429   0.922  15.418 -0.0775  0.0808  0.3275
12681TIP3    H159458   5.471   0.940  15.502  0.3490  0.2020  0.0914
12681TIP3    H259459   5.373   0.998  15.402 -0.0475  0.1248  0.4310
12682TIP3   OH259460   0.854   6.353   0.923 -0.3690 -0.2400  0.3723
12682TIP3    H159461   0.770   6.317   0.895  0.4203 -0.7023 -1.5698
12682TIP3    H259462   0.919   6.289   0.894  0.9109  1.7143 -1.3347
12683TIP3   OH259463   3.922   0.897  14.397 -0.0233 -0.2636  0.2307
12683TIP3    H159464   3.919   0.992  14.387 -0.3259 -0.2915  0.0642
12683TIP3    H259465   3.833   0.868  14.381  0.2981 -0.6990 -0.8807
12684TIP3   OH259466   5.912   1.556   4.139 -0.4554  0.3545  0.0683
12684TIP3    H159467   5.948   1.472   4.112  0.3239  0.4317  0.8479
12684TIP3    H259468   5.870   1.590   4.060  0.4601 -0.1117 -0.6376
12685TIP3   OH259469   2.569   1.116   2.963  0.2063  0.0431 -0.0123
12685TIP3    H159470   2.504   1.123   2.893 -0.3675 -0.5645  0.4459
12685TIP3    H259471   2.539   1.178   3.030 -0.7431 -1.2825  0.8346
12686TIP3   OH259472   3.385   5.560   0.657  0.5512  0.3120 -0.4107
12686TIP3    H159473   3.349   5.647   0.670 -2.4771 -0.9984  0.9699
12686TIP3    H259474   3.460   5.556   0.718  0.8842  1.9680 -0.6652
12687TIP3   OH259475   4.740   0.720   0.285 -0.0731 -0.3115 -0.3697
12687TIP3    H159476   4.754   0.690   0.375 -0.0406  2.7582  0.7651
12687TIP3    H259477   4.660   0.676   0.257  1.4927 -3.7006 -0.0828
12688TIP3   OH259478   3.238   3.055   0.753  0.5071 -0.4950  0.2357
12688TIP3    H159479   3.257   3.036   0.661  1.3200 -1.1875  0.5348
12688TIP3    H259480   3.311   3.017   0.801  1.2236  1.7068  1.0299
12689TIP3   OH259481   5.172   6.469   2.151 -0.3941 -0.1602  0.5942
12689TIP3    H159482   5.188   6.395   2.092 -2.5455 -0.4151  0.2410
12689TIP3    H259483   5.170   6.430   2.238 -0.4900 -0.3564  0.5068
12690TIP3   OH259484   4.630   0.553  15.000 -0.6919  0.2939  0.3148
12690TIP3    H159485   4.597   0.627  15.052 -0.5396 -0.6125  1.7601
12690TIP3    H259486   4.701   0.516  15.052  0.6162  0.3348 -1.3426
12691TIP3   OH259487   2.424   6.408  15.318 -0.1016  0.1074  0.1191
12691TIP3    H159488   2.410   6.355  15.240  2.4190 -0.5273  0.0434
12691TIP3    H259489   2.502   6.372  15.359  2.0011  3.8897 -0.1144
12692TIP3   OH259490   6.296   2.556  15.770  0.0913  0.3744  0.1902
12692TIP3    H159491   6.354   2.512  15.708 -0.4980  2.2698 -1.8698
12692TIP3    H259492   6.212   2.510  15.762  0.4147 -0.3070  0.6958
12693TIP3   OH259493   1.607   4.947   3.111  0.0329  0.3329 -0.7735
12693TIP3    H159494   1.665   5.007   3.064  0.4825  1.5167  1.1697
12693TIP3    H259495   1.666   4.894   3.165 -0.5686  0.5862  0.1680
12694TIP3   OH259496   3.933   3.080   3.382  0.1128 -0.1409  0.1736
12694TIP3    H159497   3.866   3.018   3.353 -0.2329  0.7763 -1.0971
12694TIP3    H259498   3.888   3.136   3.445  0.0176 -0.2633  0.2150
12695TIP3   OH259499   5.554   1.721   1.684 -0.1955  0.0447 -0.1273
12695TIP3    H159500   5.563   1.644   1.739 -2.2315  1.1902  2.0207
12695TIP3    H259501   5.600   1.790   1.731  0.6864  0.4079 -1.4707
12696TIP3   OH259502   5.695   2.640  15.841 -0.3829 -0.3494 -0.5609
12696TIP3    H159503   5.750   2.663  15.916 -1.8918  0.9806  0.1926
12696TIP3    H259504   5.658   2.555  15.864 -0.8936  0.0782  0.2696
12697TIP3   OH259505   2.598   2.674   2.445 -0.8212 -0.2380  0.4705
12697TIP3    H159506   2.687   2.709   2.446 -1.0933  0.6062 -1.2174
12697TIP3    H259507   2.599   2.608   2.375 -2.0917  1.5325 -1.3115
12698TIP3   OH259508   2.077   4.768   1.879  0.1266 -0.2339 -0.4509
12698TIP3    H159509   2.111   4.710   1.946 -0.2595 -1.9077 -1.6330
12698TIP3    H259510   2.142   4.838   1.871  0.1475  0.0601  1.6560
12699TIP3   OH259511   3.293   0.382   0.016 -0.1605  0.2882 -0.6357
12699TIP3    H159512   3.237   0.318   0.060 -0.9308  0.7167 -0.9729
12699TIP3    H259513   3.235   0.456  -0.002  0.2206  0.2847 -2.0194
12700TIP3   OH259514   3.564   3.015  14.208  0.1821  0.6105  0.2598
12700TIP3    H159515   3.579   2.920  14.205  0.0108  0.5824  0.3081
12700TIP3    H259516   3.544   3.038  14.117 -2.8088  0.1108  0.7084
12701TIP3   OH259517   2.105   1.584  15.430  0.2306  0.2428 -0.2052
12701TIP3    H159518   2.077   1.673  15.453 -0.4974  0.1515 -0.7097
12701TIP3    H259519   2.045   1.557  15.360  0.7066 -0.4913 -0.3401
12702TIP3   OH259520   6.302   3.811  17.157  0.3699  0.1562  0.1556
12702TIP3    H159521   6.373   3.847  17.104  1.7658 -0.3764  1.6118
12702TIP3    H259522   6.230   3.873  17.146  1.1179  0.8208 -1.1681
12703TIP3   OH259523   3.283   5.937  13.309  0.0643 -0.4251  0.0617
12703TIP3    H159524   3.352   5.929  13.375 -0.3132 -0.1917  0.4873
12703TIP3    H259525   3.281   6.030  13.287 -1.0123 -0.2097  1.0266
12704TIP3   OH259526   5.976   2.968  13.434  0.3702 -0.2990  0.5857
12704TIP3    H159527   5.957   2.893  13.491 -1.1581  0.4650  1.1487
12704TIP3    H259528   5.933   3.042  13.477  1.3032  0.7889 -0.2919
12705TIP3   OH259529   0.440   6.440   4.683  0.0553 -0.0145  0.1268
12705TIP3    H159530   0.421   6.347   4.686 -0.9805  0.1893  0.2668
12705TIP3    H259531   0.504   6.449   4.613 -0.6596 -0.7034 -0.6445
12706TIP3   OH259532   0.720   2.386  15.846  0.3290 -0.5961  0.5213
12706TIP3    H159533   0.798   2.407  15.897  0.0087  1.2978  0.3156
12706TIP3    H259534   0.648   2.393  15.909  0.2118 -1.2887  0.4720
12707TIP3   OH259535   6.448   4.326  15.052  0.4791  0.0073 -0.2262
12707TIP3    H159536   6.409   4.277  14.979 -0.8534 -1.4812  1.3727
12707TIP3    H259537   6.539   4.338  15.027  0.0888 -0.5843 -2.0703
12708TIP3   OH259538   3.589   3.473  13.857 -0.2622 -0.4407 -0.4349
12708TIP3    H159539   3.635   3.397  13.821 -0.4072 -0.1416 -1.2555
12708TIP3    H259540   3.534   3.436  13.927  1.1634 -0.8107  0.5469
12709TIP3   OH259541   4.689   5.191   3.431  0.1832  0.3288  0.1653
12709TIP3    H159542   4.767   5.156   3.475  0.1218  1.8476  1.5797
12709TIP3    H259543   4.663   5.266   3.485 -1.1534  0.9981 -1.3424
12710TIP3   OH259544   3.611   1.849  12.081 -0.0636  0.0690 -0.1849
12710TIP3    H159545   3.539   1.873  12.022 -0.4483 -1.1818 -0.2605
12710TIP3    H259546   3.567   1.822  12.161  0.4124  0.7709  0.3204
12711TIP3   OH259547   3.234   4.846  12.520 -0.3996  0.2682 -0.3950
12711TIP3    H159548   3.231   4.942  12.521 -2.7915  0.2748  0.9750
12711TIP3    H259549   3.289   4.822  12.594 -0.0561  0.5832 -0.5486
12712TIP3   OH259550   4.665   1.891   1.158  0.1980 -0.1235 -0.3545
12712TIP3    H159551   4.714   1.928   1.232 -1.4127  1.3895  0.0170
12712TIP3    H259552   4.678   1.954   1.087 -0.3294 -0.2409 -0.5613
12713TIP3   OH259553   6.356   1.037  11.585 -0.1123 -0.2886 -0.1833
12713TIP3    H159554   6.441   1.081  11.589  0.2717 -1.0454  2.8911
12713TIP3    H259555   6.292   1.107  11.592  0.4577  0.0711  3.0338
12714TIP3   OH259556   2.037   3.307   2.859 -0.1842 -0.3485 -0.0971
12714TIP3    H159557   2.023   3.364   2.784 -1.5209  1.8059  1.6745
12714TIP3    H259558   2.065   3.365   2.929  0.4838 -2.2048  1.2655
12715TIP3   OH259559   6.304   5.586  15.661 -0.2532 -0.0047  0.1455
12715TIP3    H159560   6.352   5.621  15.586 -0.4989  1.2603  0.5375
12715TIP3    H259561   6.372   5.559  15.723 -0.0258 -2.1190 -0.9414
12716TIP3   OH259562   5.906   1.236  12.818 -0.3285  0.1640 -0.4534
12716TIP3    H159563   5.941   1.171  12.756 -0.7163 -0.2181 -0.2716
12716TIP3    H259564   5.833   1.276  12.772 -0.0912  0.4721 -0.5638
12717TIP3   OH259565   5.907   5.230   1.590  0.2103 -0.4664 -0.0799
12717TIP3    H159566   5.965   5.302   1.615 -0.1539 -0.5864  1.1887
12717TIP3    H259567   5.819   5.263   1.608  0.0345 -1.1674  0.3880
12718TIP3   OH259568   3.741   2.031  11.592 -0.3316 -0.2611  0.4180
12718TIP3    H159569   3.745   2.080  11.510 -2.3210  1.6378  1.3859
12718TIP3    H259570   3.833   2.020  11.618  0.3437 -0.9156 -2.0121
12719TIP3   OH259571   1.928   3.057   0.485  0.7019  0.1177 -0.2879
12719TIP3    H159572   1.905   3.000   0.412 -0.1075 -0.0025  0.0437
12719TIP3    H259573   1.987   3.122   0.447  0.6376 -0.1994 -0.9490
12720TIP3   OH259574   5.832   5.098   5.265  0.1151 -0.2096 -0.6076
12720TIP3    H159575   5.786   5.014   5.269 -0.3663  0.0625 -0.3584
12720TIP3    H259576   5.860   5.114   5.355 -0.1092  0.0722 -0.5881
12721TIP3   OH259577   5.394   4.425  16.999  0.3988  0.5133  0.2518
12721TIP3    H159578   5.307   4.390  17.018  1.1182 -0.4137  2.1333
12721TIP3    H259579   5.392   4.514  17.036  0.5420  0.1259  1.2348
12722TIP3   OH259580   1.495   1.598   5.243  0.2697  0.0741  0.0052
12722TIP3    H159581   1.513   1.519   5.194 -0.9369 -1.0744  1.3201
12722TIP3    H259582   1.426   1.643   5.193 -0.1435 -0.5008  0.0569
12723TIP3   OH259583   6.526   4.524   4.724  0.3518  0.6211  0.6549
12723TIP3    H159584   6.459   4.482   4.671  0.1306  1.0123  0.6217
12723TIP3    H259585   6.516   4.485   4.811 -0.1269  0.9116  0.7294
12724TIP3   OH259586   4.760   0.946  13.464  0.2015  0.6456 -0.2507
12724TIP3    H159587   4.856   0.952  13.463  0.2522 -0.1578 -0.9064
12724TIP3    H259588   4.737   0.949  13.557  0.9378 -0.2650 -0.0322
12725TIP3   OH259589   2.889   2.386  11.666 -0.7915 -0.2120 -0.1289
12725TIP3    H159590   2.919   2.323  11.600 -0.7542 -2.0164  1.5135
12725TIP3    H259591   2.954   2.456  11.665  1.3986 -2.1260  0.6483
12726TIP3   OH259592   0.878   4.867  14.810  0.4173 -0.6684 -0.4620
12726TIP3    H159593   0.816   4.795  14.824 -0.4960 -0.2126 -1.8814
12726TIP3    H259594   0.862   4.894  14.719 -0.0718  2.0473  0.3608
12727TIP3   OH259595   4.085   3.492  12.837 -0.2813  0.5601 -0.1940
12727TIP3    H159596   4.039   3.412  12.863  0.1206  0.7158  1.0336
12727TIP3    H259597   4.081   3.491  12.741  0.1894 -1.2143 -0.2374
12728TIP3   OH259598   4.663   4.009  15.870 -0.3926 -0.2321  0.1719
12728TIP3    H159599   4.603   3.935  15.878  0.3038 -1.0228 -1.4628
12728TIP3    H259600   4.743   3.981  15.914 -2.0391  2.0698  5.4680
12729TIP3   OH259601   2.122   1.896   4.862 -0.1966  0.0659 -0.0572
12729TIP3    H159602   2.094   1.917   4.951  1.8804 -0.6529  0.8196
12729TIP3    H259603   2.102   1.975   4.811  1.4371  1.7402  1.7329
12730TIP3   OH259604   6.250   5.916   1.666 -0.2616  0.1543 -0.4608
12730TIP3    H159605   6.161   5.949   1.653 -0.6375 -0.5475  0.2491
12730TIP3    H259606   6.282   5.964   1.742  0.0487  0.5647 -0.8497
12731TIP3   OH259607   2.183   2.754   3.493 -0.3129  0.3929  0.2983
12731TIP3    H159608   2.221   2.691   3.554  0.8552  1.6778  0.9468
12731TIP3    H259609   2.155   2.827   3.548  0.6660  1.5304 -0.6477
12732TIP3   OH259610   1.239   6.018  15.588  0.3182 -0.3153  0.0421
12732TIP3    H159611   1.255   5.939  15.536 -0.7191  0.8570 -2.2293
12732TIP3    H259612   1.143   6.021  15.598  0.1351  1.5837 -1.6135
12733TIP3   OH259613   6.481   1.959  12.436 -0.3601 -0.1497 -0.0604
12733TIP3    H159614   6.503   1.899  12.365  0.3524  0.3159 -0.2462
12733TIP3    H259615   6.386   1.968  12.431 -0.5494 -1.6569  0.2949
12734TIP3   OH259616   0.076   0.620  14.824 -0.1015  0.0166  0.2029
12734TIP3    H159617   0.144   0.618  14.892 -2.0498  1.0341  2.3340
12734TIP3    H259618   0.061   0.713  14.808  0.7521 -0.1992 -2.1811
12735TIP3   OH259619   3.719   2.210  13.517  0.7785 -0.2224  0.6053
12735TIP3    H159620   3.730   2.146  13.446 -1.0650 -0.1380  0.1875
12735TIP3    H259621   3.780   2.182  13.585  3.1088  0.0805 -1.2529
12736TIP3   OH259622   1.512   6.755  16.042  0.1469  0.0157  0.4243
12736TIP3    H159623   1.428   6.797  16.027 -0.3739 -1.0790  0.1295
12736TIP3    H259624   1.558   6.813  16.102 -2.1807 -0.9890  3.3952
12737TIP3   OH259625   5.152   0.844   3.507 -0.1490 -0.1155  0.3264
12737TIP3    H159626   5.222   0.792   3.548  0.5546 -1.7914 -2.6784
12737TIP3    H259627   5.113   0.784   3.444 -2.6421  1.6168  0.1033
12738TIP3   OH259628   6.179   5.726   2.148  0.2235 -0.1619  0.0179
12738TIP3    H159629   6.164   5.730   2.053 -0.9859 -0.7828  0.1567
12738TIP3    H259630   6.125   5.652   2.177 -2.6795  2.3659  1.7325
12739TIP3   OH259631   5.960   2.897  15.216  0.8334  0.3569  0.3762
12739TIP3    H159632   5.913   2.921  15.296 -0.1576  0.7360 -0.3070
12739TIP3    H259633   5.990   2.807  15.232  0.3527  0.3093  1.0401
12740TIP3   OH259634   6.514   3.442  10.262 -0.2309  0.4255  0.5799
12740TIP3    H159635   6.556   3.385  10.327  0.9298  1.8217  1.1269
12740TIP3    H259636   6.471   3.510  10.314 -3.0126 -0.7766  0.0132
12741TIP3   OH259637   3.690   3.913  15.353  0.6299  1.1461 -0.6394
12741TIP3    H159638   3.686   3.986  15.415  2.9363 -0.1992  1.2721
12741TIP3    H259639   3.783   3.901  15.335  0.1429  0.2170 -2.8965
12742TIP3   OH259640   4.644   5.007  14.479  0.2630  0.2812  0.1883
12742TIP3    H159641   4.699   4.974  14.408  1.1240  1.2071  0.3896
12742TIP3    H259642   4.675   5.097  14.492 -0.0015  0.1815  1.6173
12743TIP3   OH259643   5.453   4.476  12.115 -0.2330 -0.2677 -0.4061
12743TIP3    H159644   5.474   4.421  12.040 -1.3031 -1.0611 -0.1465
12743TIP3    H259645   5.399   4.546  12.080 -0.4433 -0.4474 -0.4480
12744TIP3   OH259646   2.094   0.535   4.503  0.3160  0.9966 -0.0429
12744TIP3    H159647   2.037   0.610   4.486 -0.4650  0.9086  1.8885
12744TIP3    H259648   2.181   0.564   4.478 -0.2265  1.9413 -0.8900
12745TIP3   OH259649   2.562   4.573  11.740 -0.2886 -0.0980 -0.4933
12745TIP3    H159650   2.646   4.616  11.726  0.0056 -0.6027 -0.3129
12745TIP3    H259651   2.560   4.502  11.676 -1.1507  0.7036 -1.3805
12746TIP3   OH259652   3.581   2.738   5.529  0.4149 -0.2356  0.3319
12746TIP3    H159653   3.521   2.805   5.562  0.5425  0.7502 -1.2831
12746TIP3    H259654   3.526   2.661   5.514  0.0426 -0.1410  1.1742
12747TIP3   OH259655   6.618   5.293   5.486  0.1243 -0.0075  0.1756
12747TIP3    H159656   6.677   5.333   5.550  0.1609 -2.4252  1.7668
12747TIP3    H259657   6.677   5.250   5.423  0.1030  2.6222 -1.8306
12748TIP3   OH259658   0.704   6.108   6.166 -0.0046  0.2305 -0.2210
12748TIP3    H159659   0.686   6.084   6.075 -0.7672  0.3632 -0.1108
12748TIP3    H259660   0.799   6.109   6.172  0.0505 -0.1714 -0.9161
12749TIP3   OH259661   2.001   5.255  14.784 -0.6219  0.1738  0.0508
12749TIP3    H159662   1.912   5.220  14.781 -0.7171  0.4777 -1.6314
12749TIP3    H259663   2.003   5.319  14.713  0.9304  0.2184  0.1171
12750TIP3   OH259664   0.251   4.700  12.426 -0.5831 -0.5499 -0.3077
12750TIP3    H159665   0.177   4.640  12.438  0.1366 -1.5323 -0.6719
12750TIP3    H259666   0.317   4.648  12.381  1.5823 -0.6636  2.7583
12751TIP3   OH259667   1.846   0.801   0.996  0.1254 -0.1905 -0.0385
12751TIP3    H159668   1.796   0.720   1.012 -1.8419  1.1839  1.2443
12751TIP3    H259669   1.881   0.823   1.082 -1.9912  1.9066  0.3845
12752TIP3   OH259670   1.711   3.374  14.249  0.2676 -0.9680  0.7781
12752TIP3    H159671   1.805   3.359  14.239  0.1634 -0.6207 -1.2006
12752TIP3    H259672   1.680   3.386  14.159 -1.8142 -1.9020  1.3206
12753TIP3   OH259673   2.211   2.060  14.571 -0.3113  0.1935 -0.2490
12753TIP3    H159674   2.252   2.054  14.657 -2.4988  0.8933  0.9263
12753TIP3    H259675   2.183   1.970  14.551  2.8000 -0.5894 -1.7172
12754TIP3   OH259676   0.150   5.861  12.365 -0.1726 -0.5144  0.4537
12754TIP3    H159677   0.062   5.826  12.352 -0.6487  0.8786 -0.3895
12754TIP3    H259678   0.195   5.845  12.282  0.6315 -1.8755  1.1318
12755TIP3   OH259679   1.783   5.502   3.937 -0.1481 -0.4238 -0.4215
12755TIP3    H159680   1.724   5.442   3.892 -0.4759  1.3525 -2.5162
12755TIP3    H259681   1.867   5.458   3.937 -0.2984 -0.7592 -2.2196
12756TIP3   OH259682   4.294   6.120   1.458 -0.6697  0.4758  0.4851
12756TIP3    H159683   4.311   6.167   1.540 -2.2326  1.0969  0.4867
12756TIP3    H259684   4.302   6.188   1.390  0.9392 -0.0972  0.0437
12757TIP3   OH259685   0.641   4.531  15.858 -0.2528 -0.5328  0.5996
12757TIP3    H159686   0.576   4.540  15.927  0.8987  0.3413  1.6225
12757TIP3    H259687   0.715   4.585  15.888 -0.2625  1.0820 -1.9698
12758TIP3   OH259688   5.293   4.706  14.005  0.2625 -0.3651 -0.4617
12758TIP3    H159689   5.297   4.649  13.928  1.5904 -1.1415  0.1517
12758TIP3    H259690   5.304   4.647  14.079  0.7247  0.5729  0.2347
12759TIP3   OH259691   0.174   2.794  15.759 -0.1051 -0.5568 -0.0358
12759TIP3    H159692   0.143   2.885  15.749 -0.2239 -0.6672 -0.6907
12759TIP3    H259693   0.268   2.800  15.744 -0.2754 -0.7160 -1.2891
12760TIP3   OH259694   0.089   0.030  11.860 -0.3314  0.3127 -0.3672
12760TIP3    H159695   0.125  -0.025  11.790 -2.2723  0.5947 -1.6825
12760TIP3    H259696   0.141   0.111  11.855  0.5478 -0.2390 -0.4537
12761TIP3   OH259697   4.092   4.961   0.402  0.2254 -0.5738  0.0832
12761TIP3    H159698   4.175   4.916   0.422 -0.0705 -1.0502  0.2628
12761TIP3    H259699   4.050   4.905   0.337  0.1218 -0.2393 -0.1384
12762TIP3   OH259700   6.670   3.251   1.099 -0.1169  0.1296 -0.4142
12762TIP3    H159701   6.649   3.206   1.180 -0.4131 -0.3033 -0.7266
12762TIP3    H259702   6.731   3.193   1.054 -2.4739 -1.2732 -2.0165
12763TIP3   OH259703   6.651   5.644  11.278  0.1253  0.0591 -0.3903
12763TIP3    H159704   6.672   5.639  11.185  0.6983  0.0705 -0.2677
12763TIP3    H259705   6.580   5.580  11.290 -0.0196  0.1298 -0.8490
12764TIP3   OH259706   4.040   5.748   4.012  0.3747 -0.2260 -0.3234
12764TIP3    H159707   4.018   5.817   4.074  0.4862 -1.2611  0.8860
12764TIP3    H259708   4.046   5.794   3.928 -0.3451  1.1003  0.3082
12765TIP3   OH259709   2.302   2.677   0.557 -0.3853 -0.5488 -0.1449
12765TIP3    H159710   2.391   2.711   0.554 -0.0945 -1.2185  0.5320
12765TIP3    H259711   2.290   2.634   0.473 -0.1455 -0.2698 -0.3225
12766TIP3   OH259712   4.094   5.358   4.393  0.1880 -0.6476  0.4909
12766TIP3    H159713   4.100   5.405   4.476 -0.5577 -0.5671  0.5035
12766TIP3    H259714   4.106   5.266   4.417 -3.1915 -1.0478  1.2120
12767TIP3   OH259715   4.203   0.028  13.886 -0.7894  0.1553 -0.5375
12767TIP3    H159716   4.239  -0.032  13.951  0.7703  1.0327 -0.5406
12767TIP3    H259717   4.221   0.115  13.921 -0.0309  0.6377 -2.0772
12768TIP3   OH259718   4.792   1.792   2.751  0.0656  0.0927  0.8280
12768TIP3    H159719   4.707   1.766   2.787 -0.8054 -0.5560 -1.5030
12768TIP3    H259720   4.850   1.718   2.772 -0.3305 -0.1344  1.1399
12769TIP3   OH259721   5.085   6.213  14.815 -0.0755 -0.3540  0.8635
12769TIP3    H159722   5.095   6.304  14.788 -1.4057 -0.3718  0.2107
12769TIP3    H259723   5.160   6.167  14.778  0.2767  0.3642  0.6797
12770TIP3   OH259724   6.004   2.940   0.535  0.0678  0.0501 -0.1320
12770TIP3    H159725   6.081   2.985   0.570 -0.2953  0.7262 -0.1838
12770TIP3    H259726   5.930   2.981   0.580 -0.2272 -1.0659  0.4245
12771TIP3   OH259727   0.409   3.960   2.316  0.2303  0.2215  0.1591
12771TIP3    H159728   0.422   3.959   2.221 -0.8537 -1.3125 -0.0010
12771TIP3    H259729   0.416   4.053   2.340  2.3206  0.4524 -1.1296
12772TIP3   OH259730   4.295   4.858  13.537 -0.0526 -0.1569 -0.5044
12772TIP3    H159731   4.215   4.897  13.502 -1.2182 -0.3823  1.7289
12772TIP3    H259732   4.293   4.880  13.630  1.8765 -1.2277 -0.1619
12773TIP3   OH259733   1.521   2.421  15.456 -0.5846  0.1743 -0.1706
12773TIP3    H159734   1.578   2.345  15.470 -0.5198  0.3968  0.8101
12773TIP3    H259735   1.487   2.442  15.543 -0.1406  1.6352 -0.3176
12774TIP3   OH259736   1.241   2.322  14.870 -0.9791 -0.1297  0.2038
12774TIP3    H159737   1.209   2.244  14.916 -1.8841  0.5134  0.7050
12774TIP3    H259738   1.211   2.310  14.780 -2.2905  0.2472  0.5679
12775TIP3   OH259739   6.430   4.903  16.478 -0.7465  0.0773  0.1008
12775TIP3    H159740   6.369   4.828  16.483 -1.0009  0.3666  3.3513
12775TIP3    H259741   6.375   4.979  16.499  0.4556  0.4838  1.9502
12776TIP3   OH259742   5.019   4.633   4.895  0.0139  0.1819  0.3640
12776TIP3    H159743   5.018   4.728   4.884  0.1573  0.0864 -0.5207
12776TIP3    H259744   5.077   4.601   4.826 -1.9367 -0.7352 -0.9342
12777TIP3   OH259745   2.033   4.564   5.324 -0.0745 -0.2855 -0.6401
12777TIP3    H159746   1.999   4.621   5.255  0.2108  1.2839  0.4430
12777TIP3    H259747   1.960   4.557   5.387  0.0488 -0.7356 -0.5475
12778TIP3   OH259748   0.167   5.093   1.056 -0.0270  0.0924  0.6796
12778TIP3    H159749   0.125   5.057   1.134  0.2194  1.4644  1.4820
12778TIP3    H259750   0.250   5.046   1.049  0.3747  0.5892  1.8112
12779TIP3   OH259751   1.950   1.820   3.407  0.3202  0.0169 -0.2135
12779TIP3    H159752   1.889   1.856   3.472  1.9359  0.8361  0.9084
12779TIP3    H259753   1.952   1.886   3.338  0.3785  0.2757  0.0313
12780TIP3   OH259754   0.199   3.112  14.726 -0.1039  0.2877  0.2165
12780TIP3    H159755   0.119   3.083  14.771  0.6496 -0.2026  1.2764
12780TIP3    H259756   0.259   3.136  14.796  1.1666 -0.6393 -0.5099
12781TIP3   OH259757   3.597   3.492  12.302  0.3136  0.1420 -0.1498
12781TIP3    H159758   3.650   3.565  12.335 -0.5033 -0.3727  2.5356
12781TIP3    H259759   3.640   3.414  12.337 -0.0818 -0.5325 -1.1308
12782TIP3   OH259760   3.440   5.296  13.470 -0.0567  0.0021  0.1032
12782TIP3    H159761   3.534   5.311  13.471 -0.0867  0.1779  0.4308
12782TIP3    H259762   3.408   5.351  13.398  0.0956 -0.0968 -0.0414
12783TIP3   OH259763   4.087   4.641  16.699  0.2145 -0.3835 -0.1476
12783TIP3    H159764   4.100   4.718  16.754  0.1570  0.0929 -0.7836
12783TIP3    H259765   4.157   4.646  16.634 -0.2064 -0.4875 -0.6132
12784TIP3   OH259766   6.254   1.433  14.771  0.1218  0.3144  0.0828
12784TIP3    H159767   6.188   1.382  14.725 -0.4442 -0.0456  1.2460
12784TIP3    H259768   6.214   1.519  14.783 -0.9938 -0.4408  2.4588
12785TIP3   OH259769   2.998   3.635   4.825 -0.1085 -0.3769  0.4717
12785TIP3    H159770   3.081   3.681   4.810 -0.7850  1.1207  1.1618
12785TIP3    H259771   2.955   3.635   4.740 -0.7645  1.6995  0.7328
12786TIP3   OH259772   2.835   4.473  11.210  0.0734 -0.0856  0.1777
12786TIP3    H159773   2.896   4.406  11.241  0.0777 -0.3126 -0.2976
12786TIP3    H259774   2.759   4.466  11.269  0.6760  0.4865  1.0317
12787TIP3   OH259775   4.191   6.047   6.608 -0.6979 -0.3628 -0.1196
12787TIP3    H159776   4.207   5.954   6.593 -0.8348 -0.2725 -0.8527
12787TIP3    H259777   4.097   6.057   6.594 -0.7349 -0.1656  0.2603
12788TIP3   OH259778   4.671   0.423   3.010 -0.4110 -0.5444 -0.2488
12788TIP3    H159779   4.584   0.464   3.008 -0.4217 -0.5122  0.4931
12788TIP3    H259780   4.670   0.370   3.090  0.2487 -0.5513 -0.2429
12789TIP3   OH259781   1.527   1.924  16.462 -0.1302  0.2308 -0.1288
12789TIP3    H159782   1.523   1.991  16.393 -0.2323  0.3275 -0.0306
12789TIP3    H259783   1.577   1.852  16.423  1.4743  1.0480  0.3449
12790TIP3   OH259784   2.117   5.345  13.068 -0.0635 -0.8144  0.0575
12790TIP3    H159785   2.068   5.411  13.118  0.3514  0.4751 -1.1749
12790TIP3    H259786   2.118   5.268  13.125 -1.7884 -0.2357  0.9485
12791TIP3   OH259787   3.421   1.587   0.909  0.2372  0.1601  0.1464
12791TIP3    H159788   3.462   1.542   0.834 -0.1832 -0.2467  0.1608
12791TIP3    H259789   3.339   1.540   0.924  0.2341  0.3528  0.7549
12792TIP3   OH259790   5.820   4.746   6.008 -0.3165  0.6991  0.3026
12792TIP3    H159791   5.786   4.811   6.070 -0.4574  1.9221 -0.9978
12792TIP3    H259792   5.910   4.774   5.990 -0.5820  0.9113 -0.7434
12793TIP3   OH259793   6.227   3.719  13.476  0.2202  0.8098  0.1020
12793TIP3    H159794   6.292   3.752  13.539 -2.4311  1.8593  2.4920
12793TIP3    H259795   6.188   3.643  13.519  0.1597 -0.0987 -1.4993
12794TIP3   OH259796   2.553   3.783   2.679  0.5662 -0.5508  0.7650
12794TIP3    H159797   2.626   3.841   2.660  1.2254 -1.3075  0.9126
12794TIP3    H259798   2.531   3.743   2.595  0.1493 -0.1204  0.6728
12795TIP3   OH259799   0.033   1.920   0.740  0.2568 -0.0268 -0.3156
12795TIP3    H159800   0.069   2.001   0.777  0.1663  0.6019 -1.5800
12795TIP3    H259801   0.066   1.851   0.798 -1.4517  1.0631  2.1229
12796TIP3   OH259802   5.364   3.655   4.081  0.0895  0.2571 -0.3116
12796TIP3    H159803   5.407   3.592   4.139 -0.7392 -0.0567 -0.0289
12796TIP3    H259804   5.397   3.633   3.994 -0.1451 -0.5290 -0.2073
12797TIP3   OH259805   5.821   3.804  14.244 -0.2059  0.3350  0.6647
12797TIP3    H159806   5.874   3.883  14.239  0.2852  0.0973  1.8197
12797TIP3    H259807   5.739   3.834  14.283 -0.5956  0.5266 -0.2592
12798TIP3   OH259808   1.241   2.978  12.873  0.4850  0.2346  0.6733
12798TIP3    H159809   1.331   3.005  12.892  0.3139  0.0888  1.7711
12798TIP3    H259810   1.243   2.950  12.781  0.9068  2.9139 -0.2321
12799TIP3   OH259811   4.065   6.647   4.392  0.6520  0.1274  0.2412
12799TIP3    H159812   4.157   6.620   4.388  0.8370  0.8982 -1.6538
12799TIP3    H259813   4.054   6.706   4.317 -1.3205  0.2773  0.6017
12800TIP3   OH259814   5.294   1.267   4.928 -0.2782  0.0415  0.5762
12800TIP3    H159815   5.347   1.254   5.007 -0.0760  0.6445  0.5443
12800TIP3    H259816   5.343   1.329   4.876 -0.3039 -0.5263 -0.1387
12801TIP3   OH259817   4.102   0.294  16.348  0.1281 -0.1892  0.0974
12801TIP3    H159818   4.066   0.331  16.268  2.1101 -0.2033 -0.8705
12801TIP3    H259819   4.086   0.360  16.415 -0.3341  0.4354 -0.6106
12802TIP3   OH259820   5.129   2.979   0.218 -0.3032  0.6677  0.4455
12802TIP3    H159821   5.161   2.889   0.218  0.5215  0.9305 -1.2682
12802TIP3    H259822   5.043   2.974   0.260  0.2900 -0.6871  1.5691
12803TIP3   OH259823   3.888   1.342   0.531  0.5539  0.4215  0.1498
12803TIP3    H159824   3.967   1.308   0.488  1.1704  0.0408  1.5478
12803TIP3    H259825   3.847   1.397   0.464  1.5792 -0.0032 -0.8635
12804TIP3   OH259826   3.509   1.374  14.381 -0.0962  0.0067 -0.2974
12804TIP3    H159827   3.523   1.468  14.393 -1.6619  0.2749 -0.3288
12804TIP3    H259828   3.445   1.368  14.309 -1.9823 -0.9243  1.3398
12805TIP3   OH259829   5.252   0.150  10.355 -0.5325 -0.4953 -0.2168
12805TIP3    H159830   5.267   0.105  10.272  2.5994  1.2911 -0.8049
12805TIP3    H259831   5.173   0.202  10.341  0.7849  1.0526 -2.8283
12806TIP3   OH259832   4.253   5.753  12.447  0.1692  0.2648  0.6416
12806TIP3    H159833   4.202   5.728  12.370  2.7838 -1.6419 -0.6563
12806TIP3    H259834   4.208   5.713  12.521  0.1664 -2.0822 -0.5481
12807TIP3   OH259835   0.730   5.604  12.988  0.1283  0.3331  0.4086
12807TIP3    H159836   0.684   5.555  12.920  0.0044  1.2444 -0.1786
12807TIP3    H259837   0.706   5.561  13.070  2.5805 -2.6689 -0.2754
12808TIP3   OH259838   5.198   5.406  16.037 -0.1578  0.3696 -0.6338
12808TIP3    H159839   5.235   5.377  16.120  1.4625  1.7370 -0.8370
12808TIP3    H259840   5.211   5.331  15.978 -4.4640 -2.0431  1.0388
12809TIP3   OH259841   2.839   0.903  16.510 -0.4280 -0.0877  0.2418
12809TIP3    H159842   2.851   0.817  16.551 -0.5620 -0.3206 -0.2008
12809TIP3    H259843   2.882   0.964  16.570 -2.7870 -0.0774  2.0487
12810TIP3   OH259844   2.521   5.537   4.002 -0.4656  0.7606  0.5742
12810TIP3    H159845   2.479   5.523   4.087  1.1027  1.2913  1.4779
12810TIP3    H259846   2.553   5.627   4.006  1.0924  0.2515  0.0979
12811TIP3   OH259847   1.797   1.257   4.882  0.2372 -0.5854  0.0280
12811TIP3    H159848   1.745   1.205   4.943 -1.8438  0.1784 -1.0180
12811TIP3    H259849   1.764   1.235   4.795  0.4774  1.1725 -0.5602
12812TIP3   OH259850   0.397   4.903   2.100  0.2070 -0.3746 -0.6438
12812TIP3    H159851   0.436   4.989   2.113  1.7267 -1.1783  0.3527
12812TIP3    H259852   0.336   4.916   2.027  0.5513  1.4831 -0.6616
12813TIP3   OH259853   0.552   3.256  13.288  0.1586 -0.4045 -0.0501
12813TIP3    H159854   0.560   3.163  13.308  3.5497  0.0249  1.2903
12813TIP3    H259855   0.546   3.298  13.374 -2.2387  0.6708 -0.6472
12814TIP3   OH259856   3.962   5.563   1.500  0.3159  0.2623  0.2374
12814TIP3    H159857   3.969   5.641   1.444 -0.1483  0.0091 -0.1817
12814TIP3    H259858   3.871   5.534   1.489  0.3279 -0.0149  0.8298
12815TIP3   OH259859   2.291   4.981  10.856 -0.4245 -0.4078 -0.3015
12815TIP3    H159860   2.205   5.019  10.873 -0.2695  0.6034 -1.6144
12815TIP3    H259861   2.286   4.949  10.766  0.9720  0.8282 -0.8567
12816TIP3   OH259862   6.453   5.446   4.447 -0.3763  0.0071  0.1943
12816TIP3    H159863   6.415   5.533   4.435  0.1206  0.0854 -0.9568
12816TIP3    H259864   6.381   5.392   4.478 -0.3119  1.1810  2.6289
12817TIP3   OH259865   4.011   5.218  13.182 -0.0485 -0.1946 -0.7591
12817TIP3    H159866   3.934   5.171  13.211 -1.3469  2.1825 -0.0388
12817TIP3    H259867   4.000   5.227  13.087  0.2076 -1.2790 -0.8968
12818TIP3   OH259868   5.285   3.314  15.924  0.2934 -0.6117  0.4858
12818TIP3    H159869   5.318   3.251  15.988  1.7759 -1.0559 -0.6666
12818TIP3    H259870   5.268   3.263  15.845 -0.1384  0.1427  0.0765
12819TIP3   OH259871   4.599   1.010  15.907 -0.1903  0.0290  0.5093
12819TIP3    H159872   4.577   0.976  15.993  2.3665 -0.1218  1.1921
12819TIP3    H259873   4.669   1.073  15.923  0.2620  0.0939 -1.4317
12820TIP3   OH259874   2.716   0.362  15.300  0.8076 -1.3071 -0.6728
12820TIP3    H159875   2.689   0.370  15.391  1.1612 -0.5762 -0.6246
12820TIP3    H259876   2.639   0.326  15.255  0.3186 -0.8060 -0.2443
12821TIP3   OH259877   4.749   0.028   2.929  0.4786 -0.5854  0.2650
12821TIP3    H159878   4.742  -0.032   3.003  1.6028 -0.7832  0.2187
12821TIP3    H259879   4.839   0.020   2.900  1.3742  2.7481  1.6379
12822TIP3   OH259880   5.724   6.481  13.291 -0.5080 -0.4489 -0.1975
12822TIP3    H159881   5.728   6.452  13.200 -1.6621 -0.0527 -0.3947
12822TIP3    H259882   5.693   6.571  13.286 -0.9823 -0.5560  0.6002
12823TIP3   OH259883   0.268   0.251  13.078  0.5631  0.2510  0.5318
12823TIP3    H159884   0.248   0.212  13.163  1.6374 -1.3190  0.0977
12823TIP3    H259885   0.256   0.345  13.092 -0.1171 -0.0484  2.1713
12824TIP3   OH259886   2.994   2.762  15.794 -0.6183 -0.3243  0.5148
12824TIP3    H159887   2.952   2.676  15.789 -0.9371 -0.1976  0.9750
12824TIP3    H259888   2.925   2.824  15.769 -0.1819 -0.2540 -0.5492
12825TIP3   OH259889   1.525   5.333   0.738 -0.0902  0.6887  0.1547
12825TIP3    H159890   1.560   5.375   0.660 -1.4948  1.6588  0.0014
12825TIP3    H259891   1.479   5.404   0.784 -3.9466 -0.8450 -0.9145
12826TIP3   OH259892   0.970   4.160   5.960 -0.1166  0.5372  0.3126
12826TIP3    H159893   1.025   4.082   5.953 -1.5179 -0.5355  0.9231
12826TIP3    H259894   1.001   4.205   6.039 -0.9499 -0.7655  1.4207
12827TIP3   OH259895   2.108   6.174  15.381  0.4296 -0.0277  0.2735
12827TIP3    H159896   2.127   6.267  15.388 -0.9901  0.2862  0.2113
12827TIP3    H259897   2.192   6.131  15.401  0.3882  1.1559  3.6467
12828TIP3   OH259898   2.657   0.938  14.594  0.1852 -0.6033 -0.7277
12828TIP3    H159899   2.747   0.960  14.618  0.1549 -0.0194 -1.1392
12828TIP3    H259900   2.665   0.867  14.531  0.3625 -0.4612 -0.8644
12829TIP3   OH259901   2.428   0.878   4.958 -0.3445  0.3258 -0.2345
12829TIP3    H159902   2.475   0.914   5.033 -2.0979  0.3442  0.9132
12829TIP3    H259903   2.494   0.871   4.889  1.3917  0.0102  1.3923
12830TIP3   OH259904   4.223   6.204  15.569  0.3945  0.4648  0.4195
12830TIP3    H159905   4.238   6.278  15.628  0.4275  1.2018 -0.4902
12830TIP3    H259906   4.232   6.127  15.625  0.7794  1.1276  1.3027
12831TIP3   OH259907   3.032   2.475   2.102  0.2877  0.6384  0.2060
12831TIP3    H159908   3.045   2.411   2.031 -0.2800 -1.2848  1.7544
12831TIP3    H259909   2.985   2.547   2.061  3.3980  1.4591 -2.2937
12832TIP3   OH259910   1.336   2.645   1.117 -0.0354 -0.3730 -0.0163
12832TIP3    H159911   1.393   2.595   1.059  0.6351 -0.7535  0.9371
12832TIP3    H259912   1.374   2.633   1.204 -0.5260  0.8681  0.3966
12833TIP3   OH259913   0.177   5.102   2.449  0.2732 -0.7235  0.4591
12833TIP3    H159914   0.180   5.193   2.478 -0.6439 -0.5482  0.0353
12833TIP3    H259915   0.116   5.102   2.375  3.1356 -1.0105 -2.0667
12834TIP3   OH259916   5.398   2.921   4.931 -0.4218  0.0984 -0.1706
12834TIP3    H159917   5.359   3.009   4.932 -0.2308  0.1901  1.3405
12834TIP3    H259918   5.492   2.936   4.926 -0.2816  0.0701  1.6462
12835TIP3   OH259919   6.342   3.924  11.470  0.1136 -0.3324  0.3818
12835TIP3    H159920   6.374   3.860  11.406  1.0382  0.6125 -0.1303
12835TIP3    H259921   6.415   3.984  11.483 -0.8124  0.7795  0.6415
12836TIP3   OH259922   6.386   1.434  12.529 -0.3289  0.4688 -0.4777
12836TIP3    H159923   6.359   1.385  12.607  0.1572 -0.0260 -0.6171
12836TIP3    H259924   6.356   1.523  12.546  0.5277  0.5612  0.6621
12837TIP3   OH259925   3.055   1.032  11.711  0.1010 -0.2429 -0.2690
12837TIP3    H159926   3.130   1.092  11.715 -1.2096  1.5498 -1.0562
12837TIP3    H259927   3.072   0.968  11.780  2.2899  0.1599 -0.3448
12838TIP3   OH259928   3.838   3.203  14.760  0.2340 -0.0809  0.2475
12838TIP3    H159929   3.909   3.259  14.791 -0.0376 -0.4835  1.6514
12838TIP3    H259930   3.843   3.210  14.664  1.4858  0.7242  0.3399
12839TIP3   OH259931   1.633   0.305  15.429  0.4933  0.0710  0.4309
12839TIP3    H159932   1.656   0.227  15.378  1.1559  0.1083  0.6651
12839TIP3    H259933   1.558   0.278  15.482  2.2891 -1.2705  2.4887
12840TIP3   OH259934   3.379   5.882   0.363  0.2426  0.0123 -0.0145
12840TIP3    H159935   3.374   5.845   0.451  2.3391  2.5544  1.2758
12840TIP3    H259936   3.464   5.853   0.329 -1.1210 -2.1495 -1.9070
12841TIP3   OH259937   3.606   6.448  16.631 -0.1827 -0.1761  0.3790
12841TIP3    H159938   3.522   6.480  16.598  0.2047  0.8904  0.3789
12841TIP3    H259939   3.653   6.527  16.657  0.5420 -0.8099  1.0651
12842TIP3   OH259940   1.657   0.959   1.373  0.1529 -0.2689 -0.0732
12842TIP3    H159941   1.624   1.024   1.311  0.9906  0.6217  0.3681
12842TIP3    H259942   1.626   0.875   1.339 -2.6988  0.4791  0.4420
12843TIP3   OH259943   2.049   5.758   4.928 -1.0104 -0.5115  0.6860
12843TIP3    H159944   2.133   5.796   4.951 -0.6089 -1.1259  0.2821
12843TIP3    H259945   2.046   5.674   4.974 -0.1911 -1.7605 -1.3828
12844TIP3   OH259946   2.628   5.251  12.986  0.0238  0.6754  0.4956
12844TIP3    H159947   2.547   5.205  12.962  0.2013  1.7593 -2.6612
12844TIP3    H259948   2.698   5.187  12.971  0.0583  1.0886 -1.3136
12845TIP3   OH259949   4.676   5.280  12.209  0.0063 -0.0415  0.0291
12845TIP3    H159950   4.691   5.348  12.275  3.1446 -0.0194 -0.5884
12845TIP3    H259951   4.678   5.326  12.126 -0.1129 -0.5939 -0.2856
12846TIP3   OH259952   3.191   0.976  17.161 -0.0603 -0.1843  0.4418
12846TIP3    H159953   3.131   0.904  17.182  0.2198 -0.6468 -0.3034
12846TIP3    H259954   3.276   0.946  17.194  0.5332 -1.2272 -1.8530
12847TIP3   OH259955   0.135   5.571  11.190 -0.1824  0.1470  0.1429
12847TIP3    H159956   0.103   5.519  11.116 -0.8909  1.4932 -0.5378
12847TIP3    H259957   0.147   5.659  11.153  3.2651  0.0185  0.6248
12848TIP3   OH259958   0.857   1.767   2.900  0.5128  0.3764  0.3651
12848TIP3    H159959   0.799   1.733   2.832  0.2059  0.8375  0.3872
12848TIP3    H259960   0.804   1.764   2.980  0.5731  0.6366  0.4180
12849TIP3   OH259961   6.242   2.591  16.072 -0.7758  0.4023 -0.6438
12849TIP3    H159962   6.256   2.579  15.978  1.1914 -2.6095 -0.1188
12849TIP3    H259963   6.170   2.530  16.093  0.4506 -0.8469  0.1094
12850TIP3   OH259964   4.426   0.231   3.426  0.5703  0.1923 -0.0968
12850TIP3    H159965   4.363   0.262   3.491  0.1294  0.1807 -0.5127
12850TIP3    H259966   4.449   0.143   3.456 -0.6601 -0.3535 -0.6652
12851TIP3   OH259967   3.590   0.539  13.725 -0.0710  0.1347 -0.1320
12851TIP3    H159968   3.604   0.534  13.820 -0.3606  0.0702 -0.0884
12851TIP3    H259969   3.669   0.501  13.686  0.8868  1.8637  0.0356
12852TIP3   OH259970   2.305   6.158   4.316  0.6938 -0.3952 -0.2714
12852TIP3    H159971   2.335   6.243   4.284 -0.3506  0.1384  0.1590
12852TIP3    H259972   2.366   6.136   4.387  1.0200 -0.0542 -0.4458
12853TIP3   OH259973   3.912   4.291   4.862 -0.3929 -0.1640 -0.4136
12853TIP3    H159974   3.866   4.262   4.783 -0.3387  0.8179 -0.8180
12853TIP3    H259975   4.005   4.285   4.838 -0.3824  0.3757 -0.5178
12854TIP3   OH259976   0.234   4.818   5.208  0.2159  0.9407 -0.2615
12854TIP3    H159977   0.188   4.769   5.139  0.9726  0.5193 -0.4759
12854TIP3    H259978   0.206   4.909   5.196 -2.4223  0.4255  1.0821
12855TIP3   OH259979   0.415   0.209  15.235  0.0574 -0.4146  0.4011
12855TIP3    H159980   0.460   0.241  15.313 -0.2178 -1.6672  1.0936
12855TIP3    H259981   0.361   0.136  15.266 -0.6991 -0.4016 -0.8158
12856TIP3   OH259982   3.984   4.192  10.922  0.6841 -0.0597 -0.9834
12856TIP3    H159983   4.079   4.194  10.935  0.4503  1.1114  0.7741
12856TIP3    H259984   3.954   4.115  10.971  0.6281  0.0545 -0.8394
12857TIP3   OH259985   0.884   6.730   1.629 -0.5165 -0.0907  0.8831
12857TIP3    H159986   0.833   6.790   1.685 -0.5734  0.3885  0.3260
12857TIP3    H259987   0.901   6.654   1.685 -0.7756  0.2801  1.4775
12858TIP3   OH259988   4.148   6.175  12.189  0.4891  0.6433 -0.3304
12858TIP3    H159989   4.222   6.199  12.133 -0.5144  2.8334 -0.8109
12858TIP3    H259990   4.131   6.253  12.242 -0.7407 -0.2172  0.5967
12859TIP3   OH259991   4.049   4.905  13.426 -0.0736 -0.2381  0.4693
12859TIP3    H159992   3.964   4.943  13.403 -0.0033 -0.5343 -0.3186
12859TIP3    H259993   4.029   4.840  13.493 -0.2637  0.7768  1.4219
12860TIP3   OH259994   5.396   0.352  11.242 -0.0314 -0.2822  0.1762
12860TIP3    H159995   5.362   0.397  11.164  1.8294 -0.0269 -0.5321
12860TIP3    H259996   5.342   0.384  11.314 -1.2337  0.1359 -0.8761
12861TIP3   OH259997   6.031   3.487   4.491  0.0549  0.6257 -0.4466
12861TIP3    H159998   5.977   3.505   4.414  0.5767  0.4299 -0.8609
12861TIP3    H259999   6.076   3.405   4.470 -0.9326 -0.2543  0.6760
12862TIP3   OH260000   2.605   4.389   2.107 -0.1264  0.3019 -0.0240
12862TIP3    H160001   2.557   4.471   2.115 -1.3347 -0.1561 -1.9683
12862TIP3    H260002   2.644   4.393   2.019  2.9941  0.3962  1.2288
12863TIP3   OH260003   0.983   1.871   5.276  0.0678  0.5381 -0.6287
12863TIP3    H160004   1.046   1.831   5.336 -1.4756 -2.1562 -0.6330
12863TIP3    H260005   1.032   1.884   5.195  0.6329 -1.9882 -0.7979
12864TIP3   OH260006   0.393   3.330   1.620 -0.1704 -0.3948  0.0321
12864TIP3    H160007   0.301   3.357   1.623 -0.1606 -0.4271  0.9319
12864TIP3    H260008   0.415   3.312   1.711  0.4997 -1.1823 -0.2772
12865TIP3   OH260009   0.905   3.213   2.818  0.3734 -0.3892  0.0208
12865TIP3    H160010   0.835   3.211   2.883  0.6495 -0.6664  0.3139
12865TIP3    H260011   0.909   3.124   2.783 -0.3799 -0.0270 -1.0425
12866TIP3   OH260012   2.527   1.497   4.621  0.0401 -0.1573  0.1509
12866TIP3    H160013   2.480   1.451   4.553 -0.5806  0.2753  0.2787
12866TIP3    H260014   2.494   1.459   4.703  0.7904 -0.6848  0.2159
12867TIP3   OH260015   2.082   6.533   5.895 -0.2643  0.0236  0.4416
12867TIP3    H160016   1.991   6.510   5.879 -0.2519  0.4669 -0.3146
12867TIP3    H260017   2.121   6.539   5.808  0.9581 -1.9657  0.7989
12868TIP3   OH260018   2.279   1.083   1.766  0.1400  0.4443 -0.1938
12868TIP3    H160019   2.332   1.052   1.693 -0.0593 -0.7545  0.1499
12868TIP3    H260020   2.189   1.065   1.739 -0.0232  1.2568 -0.2163
12869TIP3   OH260021   5.955   2.137  12.489 -0.0111 -0.1845 -0.0408
12869TIP3    H160022   6.012   2.207  12.520  0.6977 -0.9264  0.3718
12869TIP3    H260023   5.919   2.098  12.568  0.0783 -0.6761 -0.2373
12870TIP3   OH260024   4.543   1.265   2.826 -0.0997 -0.4658  0.2648
12870TIP3    H160025   4.601   1.339   2.844 -0.2780 -0.1857 -0.3123
12870TIP3    H260026   4.598   1.188   2.841  0.6846 -0.2035 -1.0834
12871TIP3   OH260027   1.310   0.111   0.229  0.2436 -0.3636 -0.1157
12871TIP3    H160028   1.366   0.136   0.303 -1.2633  0.8332  0.6737
12871TIP3    H260029   1.233   0.071   0.269 -0.9151  0.9058 -0.9500
12872TIP3   OH260030   1.529   4.592   5.159  0.1768  0.2695  0.0608
12872TIP3    H160031   1.591   4.648   5.206  0.0597  0.2111  0.2859
12872TIP3    H260032   1.579   4.556   5.086 -0.2719  2.3211 -1.3435
12873TIP3   OH260033   3.510   5.111  11.528 -0.2048  0.8436 -0.2381
12873TIP3    H160034   3.578   5.081  11.588 -2.1532 -1.5894  0.9357
12873TIP3    H260035   3.497   5.038  11.467 -2.5206  0.6519  0.3545
12874TIP3   OH260036   0.214   2.280  16.054  0.0701  0.4477  0.1821
12874TIP3    H160037   0.290   2.281  16.112 -0.4180  0.3029  0.8313
12874TIP3    H260038   0.191   2.187  16.047  0.7220  0.3583 -1.0424
12875TIP3   OH260039   3.823   1.802  14.568  0.0159 -0.9984 -0.0848
12875TIP3    H160040   3.865   1.886  14.586 -0.2038 -1.3430  2.3551
12875TIP3    H260041   3.735   1.824  14.538  0.3434 -0.3665 -0.5981
12876TIP3   OH260042   1.857   3.735   1.082  0.2278  0.0047 -0.0533
12876TIP3    H160043   1.870   3.750   0.989 -1.3988 -0.2179 -0.3479
12876TIP3    H260044   1.763   3.718   1.091  0.3554 -0.0183  1.6195
12877TIP3   OH260045   0.363   3.082  13.445  0.3889 -0.0667  0.3729
12877TIP3    H160046   0.346   3.051  13.356  0.2162 -0.4757  0.5461
12877TIP3    H260047   0.458   3.070  13.456  0.8520  2.1863 -0.5793
12878TIP3   OH260048   6.686   5.629   1.379 -0.2965  0.3688 -0.7788
12878TIP3    H160049   6.687   5.647   1.285  1.8041  0.2462 -0.8233
12878TIP3    H260050   6.649   5.708   1.418 -1.1351  0.4440 -1.6793
12879TIP3   OH260051   6.769   0.174  16.665 -0.4943  0.1806 -0.1906
12879TIP3    H160052   6.776   0.096  16.610 -2.0740  0.6354 -1.0910
12879TIP3    H260053   6.686   0.162  16.712 -0.3031  0.9077  0.3477
12880TIP3   OH260054   5.001   4.677  15.364 -0.2671  0.1656  0.1256
12880TIP3    H160055   5.043   4.756  15.330  0.4537  0.2638  1.2158
12880TIP3    H260056   4.951   4.706  15.440 -2.9519  0.1842 -1.5174
12881TIP3   OH260057   2.760   2.156   3.361  0.1964 -0.1999  0.2681
12881TIP3    H160058   2.729   2.170   3.451 -0.2135 -0.9561  0.2574
12881TIP3    H260059   2.853   2.179   3.364  0.3958 -1.0441  1.1023
12882TIP3   OH260060   1.899   3.696   5.974  0.4908  0.1302 -0.8976
12882TIP3    H160061   1.987   3.662   5.992  0.6383 -0.0699 -1.9231
12882TIP3    H260062   1.886   3.766   6.039  0.6855 -1.0172  0.4132
12883TIP3   OH260063   5.020   1.746   1.462  0.4917  0.1423 -0.1156
12883TIP3    H160064   4.957   1.677   1.440  0.5106 -0.0012  0.2631
12883TIP3    H260065   5.061   1.715   1.543 -0.4655  1.2380  0.8038
12884TIP3   OH260066   2.125   4.278  14.956  0.2873  0.2916 -0.2754
12884TIP3    H160067   2.039   4.319  14.954  1.4592  3.0074 -0.6279
12884TIP3    H260068   2.162   4.304  15.041  1.6784  1.4678 -1.1727
12885TIP3   OH260069   6.402   0.149   3.025 -0.0479 -0.1509 -0.3085
12885TIP3    H160070   6.494   0.126   3.035 -0.0754 -0.0948  0.0867
12885TIP3    H260071   6.399   0.204   2.946  0.4313  0.7998  0.3186
12886TIP3   OH260072   6.055   1.716  15.086  0.0362 -0.2147 -0.0596
12886TIP3    H160073   6.111   1.650  15.126 -2.3314 -1.1148  2.0212
12886TIP3    H260074   5.998   1.746  15.157 -1.0739  1.7992 -1.6814
12887TIP3   OH260075   3.172   5.680  14.476 -0.2387  0.1733  0.0314
12887TIP3    H160076   3.183   5.770  14.444 -2.4025  0.2057 -0.8071
12887TIP3    H260077   3.260   5.652  14.499  0.9068  1.5740 -2.2622
12888TIP3   OH260078   0.764   0.125  14.722 -0.1947 -0.4328 -0.2028
12888TIP3    H160079   0.737   0.186  14.653  0.9207  1.7346  1.1664
12888TIP3    H260080   0.722   0.159  14.801  0.5885 -1.3707  0.6416
12889TIP3   OH260081   3.869   2.718  15.246  0.4011 -0.5740 -0.2200
12889TIP3    H160082   3.942   2.724  15.185 -0.4329  0.4103 -1.1529
12889TIP3    H260083   3.827   2.804  15.243 -1.1469 -1.2763 -0.1537
12890TIP3   OH260084   4.647   0.964   0.487  0.3988 -0.4694 -0.3659
12890TIP3    H160085   4.667   0.890   0.544  0.7188  1.1437  1.7612
12890TIP3    H260086   4.555   0.954   0.466 -0.1104 -0.4355  1.6032
12891TIP3   OH260087   3.263   3.017  13.911 -0.0072 -0.1175 -0.2041
12891TIP3    H160088   3.253   2.930  13.872  0.1684 -0.0946 -0.3039
12891TIP3    H260089   3.208   3.073  13.857  1.9636  0.3418 -1.8785
12892TIP3   OH260090   4.628   2.581   0.968  0.2181 -0.3328  0.2881
12892TIP3    H160091   4.564   2.577   0.897 -1.1779 -1.8565  1.5490
12892TIP3    H260092   4.624   2.671   1.000 -1.0734 -0.3282  0.1376
12893TIP3   OH260093   1.966   4.673  11.867 -0.7549  0.1009  0.2514
12893TIP3    H160094   1.977   4.717  11.952  0.8736 -1.0541  0.7019
12893TIP3    H260095   1.914   4.595  11.888  0.6013 -0.7832  0.4461
12894TIP3   OH260096   5.507   3.439   1.853  0.3664  0.1399 -0.0251
12894TIP3    H160097   5.517   3.422   1.947  2.6107  0.0939 -0.2305
12894TIP3    H260098   5.515   3.353   1.812  1.4658  0.3957 -0.3762
12895TIP3   OH260099   5.841   4.227  11.064  0.4521  0.1125 -0.4424
12895TIP3    H160100   5.835   4.322  11.054 -2.0769  0.0984  0.2463
12895TIP3    H260101   5.850   4.194  10.975 -0.2516  0.9277 -0.8248
12896TIP3   OH260102   0.506   1.505   3.960 -0.1562  0.7771 -0.0468
12896TIP3    H160103   0.544   1.593   3.954 -1.8514  1.5407 -0.0484
12896TIP3    H260104   0.465   1.490   3.875  1.1413 -0.5570 -0.4870
12897TIP3   OH260105   1.703   3.540   6.472  0.4771  0.1426 -0.2547
12897TIP3    H160106   1.660   3.617   6.510  1.5223  0.3136  0.6511
12897TIP3    H260107   1.656   3.466   6.511 -0.7472  0.2949 -1.3818
12898TIP3   OH260108   3.223   0.030  10.989 -0.1395 -0.2543  0.1024
12898TIP3    H160109   3.227  -0.060  11.021 -0.0542  0.2609  1.6313
12898TIP3    H260110   3.137   0.037  10.948  0.6491 -1.5923 -1.8966
12899TIP3   OH260111   3.310   1.068   6.454  0.1970  0.4394  0.2375
12899TIP3    H160112   3.345   1.142   6.404  2.0926  2.2747  3.8547
12899TIP3    H260113   3.216   1.068   6.434  0.3608  2.9813 -0.9309
12900TIP3   OH260114   1.163   3.242  11.103  0.2781  0.1005  0.0992
12900TIP3    H160115   1.190   3.151  11.089 -0.7153  0.0564 -1.7608
12900TIP3    H260116   1.092   3.236  11.168  0.7283 -0.3537  0.5583
12901TIP3   OH260117   5.999   0.078  16.554  0.3174 -0.6108  0.4716
12901TIP3    H160118   6.052   0.023  16.497  0.0149  0.2768 -0.6840
12901TIP3    H260119   6.062   0.128  16.605  0.6019 -0.1246 -0.3448
12902TIP3   OH260120   5.438   4.350  15.602  0.5790  0.4020 -0.5567
12902TIP3    H160121   5.360   4.403  15.585 -0.6003 -1.2417 -0.5053
12902TIP3    H260122   5.420   4.307  15.685  0.9349 -1.0534 -1.2046
12903TIP3   OH260123   1.001   5.563   3.935 -0.3602 -0.6097 -0.4410
12903TIP3    H160124   0.982   5.641   3.987  0.9275 -0.8774  0.4744
12903TIP3    H260125   1.038   5.597   3.854 -1.8218 -0.2095 -0.9638
12904TIP3   OH260126   4.318   2.112  10.648  0.0730  0.6002  0.1885
12904TIP3    H160127   4.229   2.095  10.618  0.3892  0.0883 -0.4799
12904TIP3    H260128   4.360   2.026  10.652  0.3718  0.7704  1.0662
12905TIP3   OH260129   4.221   4.404  16.517  0.0273 -0.2045 -0.2027
12905TIP3    H160130   4.238   4.389  16.610  2.6204 -1.1408 -0.7278
12905TIP3    H260131   4.286   4.469  16.491 -0.8006  0.2121 -1.3287
12906TIP3   OH260132   4.745   0.810  15.477  0.0841 -0.0404 -0.5128
12906TIP3    H160133   4.826   0.830  15.524  0.8969 -2.0751 -0.9085
12906TIP3    H260134   4.677   0.811  15.544  0.5189  1.1970 -0.0777
12907TIP3   OH260135   5.256   1.990  16.115  0.5392 -0.0244  0.2170
12907TIP3    H160136   5.194   1.938  16.165 -1.9483  1.9005 -0.6633
12907TIP3    H260137   5.214   2.001  16.030  1.9936  1.5635 -0.3342
12908TIP3   OH260138   3.207   1.949   0.972  0.2878  0.0509  0.1134
12908TIP3    H160139   3.276   1.967   1.035  0.3670 -0.7521  0.2704
12908TIP3    H260140   3.170   1.865   0.999 -0.2898  0.1336 -0.3738
12909TIP3   OH260141   5.651   1.599   5.213 -0.0687 -0.2321 -0.1317
12909TIP3    H160142   5.732   1.646   5.228  0.1405 -0.3341 -0.8882
12909TIP3    H260143   5.673   1.507   5.229  0.0003 -0.2726 -0.4453
12910TIP3   OH260144   5.523   4.051  16.882 -0.1282  0.2766 -0.4885
12910TIP3    H160145   5.532   4.145  16.898  0.9401 -0.2191  2.4430
12910TIP3    H260146   5.603   4.013  16.918 -0.3953 -1.7723 -1.8779
12911TIP3   OH260147   0.603   3.258  12.551  0.1085  0.2820 -0.1374
12911TIP3    H160148   0.594   3.324  12.482  2.6894  1.5010  0.5828
12911TIP3    H260149   0.692   3.270  12.584 -0.6815 -0.9355  2.7219
12912TIP3   OH260150   0.043   3.812  11.964  0.4299  0.4906 -0.0145
12912TIP3    H160151  -0.040   3.788  12.004  1.0757 -1.1967  0.4186
12912TIP3    H260152   0.061   3.740  11.903  1.8131  0.5485  0.2943
12913TIP3   OH260153   2.972   6.112  11.680  0.3501  0.1388  0.3511
12913TIP3    H160154   2.953   6.126  11.587 -0.1155  2.5403  0.7359
12913TIP3    H260155   2.958   6.018  11.693 -1.2111  0.0029 -1.6444
12914TIP3   OH260156   1.789   3.880   1.789 -0.3458 -0.1145 -0.1056
12914TIP3    H160157   1.741   3.839   1.861 -0.3636 -0.3528 -0.2501
12914TIP3    H260158   1.758   3.834   1.710  0.1113 -0.2661 -0.2002
12915TIP3   OH260159   3.768   3.692   1.638  0.0236 -0.1116  0.1362
12915TIP3    H160160   3.710   3.616   1.645  1.3427 -1.1455  0.3685
12915TIP3    H260161   3.793   3.694   1.546 -0.7167  0.5934 -0.0499
12916TIP3   OH260162   1.032   4.434   0.665 -0.3055 -0.1595 -0.1659
12916TIP3    H160163   1.066   4.513   0.705 -2.9727  0.5953  0.8172
12916TIP3    H260164   1.027   4.371   0.737  1.0075 -1.0072 -0.7694
12917TIP3   OH260165   2.937   6.445  10.861 -0.1486 -0.0796 -0.1400
12917TIP3    H160166   2.868   6.385  10.888 -0.1388  0.3522  0.8953
12917TIP3    H260167   2.934   6.516  10.926  1.1393  0.0338 -0.1704
12918TIP3   OH260168   0.036   4.239  14.573 -0.6862 -0.3891 -0.1796
12918TIP3    H160169  -0.016   4.224  14.493 -0.1316  1.7620 -1.0175
12918TIP3    H260170   0.126   4.247  14.542 -0.4865  0.6968  0.6037
12919TIP3   OH260171   3.580   4.737   3.113  0.3141 -0.1350 -0.2883
12919TIP3    H160172   3.618   4.650   3.117  0.0592 -0.2954 -1.1009
12919TIP3    H260173   3.487   4.724   3.132  0.3604  0.0259  0.0554
12920TIP3   OH260174   0.379   5.079  13.404 -0.5952  0.0901  0.3568
12920TIP3    H160175   0.312   5.092  13.337 -0.6978 -1.8534  0.0104
12920TIP3    H260176   0.341   5.014  13.463  0.8335 -0.7792  0.3481
12921TIP3   OH260177   4.616   2.904   4.301 -0.7723 -0.3515 -0.4266
12921TIP3    H160178   4.533   2.886   4.256 -1.1606 -0.9371  0.4907
12921TIP3    H260179   4.591   2.916   4.393  0.0074  0.8035 -0.3520
12922TIP3   OH260180   1.278   4.824   0.345 -0.5873  0.2489 -0.5526
12922TIP3    H160181   1.288   4.773   0.264  1.4291 -0.4738  0.0858
12922TIP3    H260182   1.302   4.763   0.415 -2.2997  0.8605  0.6400
12923TIP3   OH260183   0.541   0.243  15.486  0.3306  0.1099 -0.0479
12923TIP3    H160184   0.572   0.154  15.499  0.9061  0.2364 -0.5044
12923TIP3    H260185   0.621   0.296  15.480  0.0053  0.9941  2.3313
12924TIP3   OH260186   2.716   5.087   0.861 -0.1056 -0.2133  0.0890
12924TIP3    H160187   2.650   5.113   0.796 -1.3925 -2.4445  0.4273
12924TIP3    H260188   2.789   5.054   0.809  0.3745  1.2919 -0.2557
12925TIP3   OH260189   3.972   5.190   3.660  0.3856  0.0199 -0.1532
12925TIP3    H160190   4.010   5.171   3.574  1.6068  3.0101 -0.4024
12925TIP3    H260191   3.878   5.183   3.646  0.6104 -1.6826 -1.1114
12926TIP3   OH260192   4.036   6.735  14.983  0.0478 -0.6021  0.6856
12926TIP3    H160193   4.012   6.662  14.926  2.3837 -2.2263  1.6271
12926TIP3    H260194   4.131   6.742  14.974 -0.2098  3.7222 -0.9126
12927TIP3   OH260195   3.142   2.674   6.262 -0.4842 -0.0172 -0.7761
12927TIP3    H160196   3.074   2.658   6.328 -2.3588 -0.6270 -2.7391
12927TIP3    H260197   3.149   2.770   6.258 -0.6888  0.0337 -0.0537
12928TIP3   OH260198   0.187   1.529   2.568 -0.2987 -0.5409 -0.2906
12928TIP3    H160199   0.175   1.490   2.655  0.7485 -0.8571 -0.2815
12928TIP3    H260200   0.185   1.455   2.508 -2.0017 -0.2408 -0.6748
12929TIP3   OH260201   0.026   5.741  14.563 -0.4126  0.9611 -0.0566
12929TIP3    H160202  -0.020   5.820  14.535 -2.0521 -0.3620 -1.3096
12929TIP3    H260203   0.032   5.687  14.485  1.8186  0.3268  0.4755
12930TIP3   OH260204   5.691   4.572  14.274 -0.2789 -0.1084  0.6195
12930TIP3    H160205   5.631   4.548  14.345  1.3328  0.0981  2.1200
12930TIP3    H260206   5.720   4.661  14.296 -0.5307  0.3854 -0.8912
12931TIP3   OH260207   5.575   1.482   1.813 -0.6414  0.2837  0.6456
12931TIP3    H160208   5.642   1.474   1.745 -0.8709  0.8063  0.3492
12931TIP3    H260209   5.525   1.401   1.808 -2.0224  1.1567 -1.3068
12932TIP3   OH260210   4.120   6.646  16.801  0.5243 -0.2165  0.3032
12932TIP3    H160211   4.059   6.640  16.728  1.8219 -0.4954 -0.8084
12932TIP3    H260212   4.187   6.580  16.782 -0.2717 -1.9422  2.9460
12933TIP3   OH260213   2.546   5.465  15.008 -0.0866  0.0174 -0.9600
12933TIP3    H160214   2.583   5.505  14.929  1.7949  2.9621  1.1590
12933TIP3    H260215   2.496   5.536  15.049  0.9119 -0.6153  1.5490
12934TIP3   OH260216   4.498   1.769  15.815 -0.1837 -0.3494  0.1994
12934TIP3    H160217   4.429   1.776  15.881  1.3220  1.1652  1.7238
12934TIP3    H260218   4.516   1.675  15.810 -1.9688 -0.7244  0.1239
12935TIP3   OH260219   0.301   4.451  15.772 -0.0055  0.1199  0.7295
12935TIP3    H160220   0.353   4.439  15.852  0.0688  1.9414  1.0042
12935TIP3    H260221   0.263   4.538  15.781 -0.0465  0.3514 -1.1993
12936TIP3   OH260222   0.553   2.118  16.405 -0.2225 -0.8205  0.7640
12936TIP3    H160223   0.590   2.086  16.488  2.4610  0.3828  0.1644
12936TIP3    H260224   0.541   2.212  16.420  2.5079 -0.1044 -0.7927
12937TIP3   OH260225   0.841   0.822  16.835  0.3229  0.4350  0.4458
12937TIP3    H160226   0.747   0.839  16.831  0.3024  0.6203  1.4763
12937TIP3    H260227   0.851   0.735  16.797 -0.2553  0.4361  0.2817
12938TIP3   OH260228   2.692   5.846   3.880 -0.0909 -0.3823  0.2249
12938TIP3    H160229   2.605   5.828   3.845 -0.3684  1.1212  0.1151
12938TIP3    H260230   2.681   5.923   3.935  1.4041  0.6323 -0.8181
12939TIP3   OH260231   1.137   4.297   0.033  0.0073 -0.0497 -0.2641
12939TIP3    H160232   1.210   4.334  -0.016  1.9154 -2.1577  0.7888
12939TIP3    H260233   1.059   4.326  -0.014  1.5762  0.8834 -2.4602
12940TIP3   OH260234   3.929   3.693  16.142 -0.4693 -0.4682  0.4463
12940TIP3    H160235   3.902   3.783  16.122 -0.7313 -0.1887  1.9404
12940TIP3    H260236   4.024   3.694  16.134 -0.5631 -0.4638 -1.0074
12941TIP3   OH260237   3.203   2.175  16.606  0.0892  0.3985 -0.7359
12941TIP3    H160238   3.215   2.156  16.699  0.0387  0.5187 -0.7050
12941TIP3    H260239   3.175   2.266  16.603  0.1504  0.4130 -0.8724
12942TIP3   OH260240   3.743   6.187   1.015 -0.2879 -0.3292 -0.2843
12942TIP3    H160241   3.796   6.161   1.090 -1.5707 -0.4016  0.6412
12942TIP3    H260242   3.655   6.155   1.036 -0.4823 -1.2320 -2.2884
12943TIP3   OH260243   3.526   6.392  14.156 -0.4196 -0.0538 -0.0126
12943TIP3    H160244   3.474   6.312  14.163 -1.0940  0.2781 -0.9146
12943TIP3    H260245   3.616   6.362  14.151 -0.7409 -0.8633 -1.5736
12944TIP3   OH260246   3.884   2.546   1.907  0.0332 -0.2933 -0.3221
12944TIP3    H160247   3.974   2.564   1.937 -0.3791 -0.9237  1.3691
12944TIP3    H260248   3.892   2.468   1.853  0.4576 -0.5862  0.1536
12945TIP3   OH260249   3.446   4.806   4.500  0.2167 -0.3596 -0.3611
12945TIP3    H160250   3.488   4.852   4.428 -0.0941 -0.9067 -0.9021
12945TIP3    H260251   3.512   4.806   4.570  0.0951  1.2007 -0.2093
12946TIP3   OH260252   0.551   1.934   2.029  0.4751  0.3154 -0.8862
12946TIP3    H160253   0.599   1.922   2.111 -0.4190  0.3377 -0.3439
12946TIP3    H260254   0.487   2.003   2.049  0.2660  0.3385 -1.6089
12947TIP3   OH260255   1.840   2.392   0.385 -0.7469 -0.6530  0.0332
12947TIP3    H160256   1.867   2.392   0.293  0.2506 -0.0200  0.3091
12947TIP3    H260257   1.844   2.484   0.411 -1.1723 -0.8149  0.6724
12948TIP3   OH260258   5.811   2.859  14.931 -0.1207  0.3230 -0.2298
12948TIP3    H160259   5.812   2.766  14.911 -1.6490  0.5675 -1.5578
12948TIP3    H260260   5.896   2.875  14.973  0.7206 -1.3869 -1.2000
12949TIP3   OH260261   0.667   6.657  12.971  0.3307  0.5936  0.0656
12949TIP3    H160262   0.627   6.742  12.951  0.3571  1.1584  2.2142
12949TIP3    H260263   0.594   6.595  12.964 -0.2937  1.1900  1.0235
12950TIP3   OH260264   3.390   4.405   1.170  0.1673  0.0196 -0.1273
12950TIP3    H160265   3.402   4.327   1.225  1.5810  1.3414  1.5796
12950TIP3    H260266   3.331   4.461   1.220  2.4798  1.7992  0.7779
12951TIP3   OH260267   1.761   4.043   2.409  0.2188 -0.5425  0.1437
12951TIP3    H160268   1.763   4.003   2.496  1.3009  0.5962  0.6787
12951TIP3    H260269   1.853   4.048   2.383  0.1642  1.7125  0.2029
12952TIP3   OH260270   1.309   1.463   4.979  0.1701  0.0323 -0.0163
12952TIP3    H160271   1.370   1.419   5.038  2.1492  1.0718 -1.1854
12952TIP3    H260272   1.364   1.509   4.916 -1.8432 -0.0340 -1.9748
12953TIP3   OH260273   1.315   5.565  13.492 -0.1680  0.2461  0.2940
12953TIP3    H160274   1.248   5.621  13.531 -2.0890 -1.7578  0.0747
12953TIP3    H260275   1.385   5.562  13.557 -1.3227  0.5306  1.5919
12954TIP3   OH260276   4.963   2.337   3.297 -0.2768 -0.6105 -0.1022
12954TIP3    H160277   4.873   2.370   3.295  0.1861  0.6951 -0.8884
12954TIP3    H260278   4.998   2.358   3.210  1.2291  0.1832  0.6611
12955TIP3   OH260279   2.299   3.421   0.000 -0.3095  0.0903  0.3964
12955TIP3    H160280   2.348   3.354   0.048  0.2863  0.1060 -0.1758
12955TIP3    H260281   2.223   3.438   0.055 -0.1827 -0.6512  0.8238
12956TIP3   OH260282   3.232   2.891   1.486 -0.2968 -0.3476  0.0285
12956TIP3    H160283   3.289   2.942   1.544  0.9975 -2.6808  0.9647
12956TIP3    H260284   3.287   2.871   1.410 -0.5874 -0.8196 -0.0634
12957TIP3   OH260285   3.311   0.808   3.067  0.2417  0.2967  0.1873
12957TIP3    H160286   3.359   0.821   3.148  1.4872  0.5091 -0.5656
12957TIP3    H260287   3.375   0.822   2.997 -0.8413  0.3319 -0.8505
12958TIP3   OH260288   1.229   2.611  12.711  0.1438  0.4673  0.8402
12958TIP3    H160289   1.304   2.669  12.698  0.5135 -0.3333 -0.9896
12958TIP3    H260290   1.155   2.656  12.670  0.6665 -0.7278 -1.6411
12959TIP3   OH260291   5.160   6.665  11.523 -0.1953  0.6751 -0.0737
12959TIP3    H160292   5.218   6.700  11.456  0.9961 -0.2516  0.4367
12959TIP3    H260293   5.165   6.570  11.512 -1.8460  0.5716 -0.1914
12960TIP3   OH260294   2.844   4.659  10.735  0.2694 -0.0718 -0.0177
12960TIP3    H160295   2.859   4.655  10.830  1.0281 -3.0709 -0.1476
12960TIP3    H260296   2.765   4.606  10.721  0.2232  0.2577 -1.0724
12961TIP3   OH260297   5.122   1.535  14.734  0.7901  0.4432 -1.0236
12961TIP3    H160298   5.069   1.591  14.678 -0.0466 -0.3231 -1.0332
12961TIP3    H260299   5.210   1.540  14.697  0.9979  2.6051 -0.3476
12962TIP3   OH260300   0.199   3.134   1.972 -0.1037 -0.2023  0.0825
12962TIP3    H160301   0.295   3.142   1.975 -0.2163  1.3241  0.9396
12962TIP3    H260302   0.168   3.198   2.036 -1.6511 -2.4491  1.7179
12963TIP3   OH260303   3.393   0.379   2.465  0.2922 -0.6905 -0.2344
12963TIP3    H160304   3.312   0.347   2.426 -0.4008 -0.7988  1.2323
12963TIP3    H260305   3.387   0.356   2.557  2.4207 -1.5064 -0.2316
12964TIP3   OH260306   5.859   6.701   1.401  0.3743  0.0709  0.5192
12964TIP3    H160307   5.806   6.781   1.401 -1.4391 -1.0100 -1.5941
12964TIP3    H260308   5.945   6.729   1.370 -0.0715  1.3057  0.3381
12965TIP3   OH260309   4.557   2.333  11.525  0.4645  0.5002  0.0585
12965TIP3    H160310   4.526   2.419  11.552  0.0337  0.6858 -0.9545
12965TIP3    H260311   4.490   2.272  11.558  1.8725  0.2572  2.7147
12966TIP3   OH260312   3.531   3.038  14.648  0.1652 -0.1071 -0.0478
12966TIP3    H160313   3.539   3.122  14.694  0.1614 -0.5000  0.6861
12966TIP3    H260314   3.550   2.973  14.715  1.9858 -0.6437 -1.0341
12967TIP3   OH260315   1.876   5.363   3.660  0.8501  0.2273  0.3845
12967TIP3    H160316   1.875   5.325   3.747  1.9862 -1.2681 -0.2072
12967TIP3    H260317   1.886   5.457   3.675 -1.4324  0.3091  1.8750
12968TIP3   OH260318   2.243   4.557   5.839 -0.4459  0.3656 -0.1059
12968TIP3    H160319   2.261   4.623   5.772 -1.8517  1.0920  0.2021
12968TIP3    H260320   2.229   4.607   5.919  1.0922 -0.4903  0.7585
12969TIP3   OH260321   4.476   0.089   4.585  0.0428 -0.3590  0.3003
12969TIP3    H160322   4.442   0.178   4.575  1.2762  0.0450 -0.5191
12969TIP3    H260323   4.400   0.038   4.613 -0.3682  1.2250  2.3419
12970TIP3   OH260324   1.757   5.791  13.749  0.1499  0.0647  0.4677
12970TIP3    H160325   1.678   5.803  13.802  2.0628 -1.1935  3.9018
12970TIP3    H260326   1.819   5.855  13.784  1.7195 -1.2968  0.2640
12971TIP3   OH260327   2.617   0.228  11.563  0.3503 -0.2575  0.3986
12971TIP3    H160328   2.594   0.191  11.648  0.4154  0.2360  0.6352
12971TIP3    H260329   2.649   0.154  11.512 -0.8500 -0.7910  0.3839
12972TIP3   OH260330   5.462   3.318   6.631  0.9710 -0.2783 -0.3996
12972TIP3    H160331   5.425   3.230   6.630  0.9582 -0.2743 -0.0458
12972TIP3    H260332   5.388   3.376   6.647  0.9252 -0.1729 -0.9405
12973TIP3   OH260333   6.572   4.289  16.235 -0.3785  0.0140 -0.4554
12973TIP3    H160334   6.527   4.264  16.316 -1.4771  1.9745 -0.3982
12973TIP3    H260335   6.526   4.240  16.166 -0.6091 -0.3107 -0.0739
12974TIP3   OH260336   2.813   2.051  12.304 -0.6244  0.2721  0.2549
12974TIP3    H160337   2.892   2.088  12.342  0.0223  1.2495 -1.9149
12974TIP3    H260338   2.759   2.127  12.280 -1.4321 -0.3285  0.1100
12975TIP3   OH260339   3.989   6.313  15.966  0.3516 -0.3344 -0.1534
12975TIP3    H160340   4.058   6.291  16.029 -0.2573 -2.8647 -0.2414
12975TIP3    H260341   3.965   6.228  15.928 -0.8818  0.8493 -2.1426
12976TIP3   OH260342   0.505   0.964   0.332 -0.2215  0.4826 -0.0582
12976TIP3    H160343   0.598   0.987   0.342  0.0667 -0.6891  0.0693
12976TIP3    H260344   0.470   0.969   0.421 -0.6915  2.4662 -0.2946
12977TIP3   OH260345   3.734   3.499  14.819  0.1384  0.3044 -0.0463
12977TIP3    H160346   3.676   3.484  14.744 -1.6265  2.4215  0.7896
12977TIP3    H260347   3.719   3.423  14.876 -0.6548  0.0506 -0.5626
12978TIP3   OH260348   0.877   3.665   3.418  0.1209 -0.2085 -0.2087
12978TIP3    H160349   0.831   3.615   3.485  3.3011 -1.6113  1.1378
12978TIP3    H260350   0.884   3.753   3.455  1.7715 -0.9483  1.4017
12979TIP3   OH260351   4.932   5.942  12.959  0.5472 -0.6407 -0.0232
12979TIP3    H160352   4.987   5.875  13.000  0.2254 -1.7408 -1.3203
12979TIP3    H260353   4.880   5.893  12.895  0.5998  0.9292 -1.3045
12980TIP3   OH260354   0.008   2.935  15.594  0.3168  0.4870  0.1545
12980TIP3    H160355  -0.084   2.940  15.621  0.5708  0.6698  0.9839
12980TIP3    H260356   0.028   2.841  15.595  0.3124  0.4916  0.5341
12981TIP3   OH260357   3.405   3.326   5.399 -0.3266 -0.2425 -0.1388
12981TIP3    H160358   3.416   3.296   5.308 -2.5813  1.5395 -1.0991
12981TIP3    H260359   3.331   3.386   5.395 -1.5957 -1.3895  3.2293
12982TIP3   OH260360   3.950   3.511  14.629 -0.4830  0.0379 -0.5247
12982TIP3    H160361   3.907   3.447  14.686 -1.6540  0.7144 -0.6289
12982TIP3    H260362   4.041   3.512  14.659 -0.8180 -0.4775  0.5601
12983TIP3   OH260363   5.291   6.660  14.224  0.2901 -0.4106  0.0157
12983TIP3    H160364   5.320   6.709  14.147  2.2968 -0.0020  0.9762
12983TIP3    H260365   5.274   6.572  14.191  0.1531  0.0066 -1.0708
12984TIP3   OH260366   1.207   0.125   6.473  0.2996  0.2010 -0.3208
12984TIP3    H160367   1.241   0.058   6.533 -0.7814  0.2264  0.3335
12984TIP3    H260368   1.112   0.123   6.485 -0.0776 -0.4825 -2.7501
12985TIP3   OH260369   5.506   0.542  10.620  0.6563  0.4343 -0.3005
12985TIP3    H160370   5.512   0.474  10.554  2.5191  0.5221 -0.2747
12985TIP3    H260371   5.475   0.497  10.698 -0.4264  0.1069 -0.8948
12986TIP3   OH260372   3.971   0.783   4.149 -0.2009  0.5596  0.3568
12986TIP3    H160373   4.025   0.740   4.082 -1.2862 -0.1041 -0.1383
12986TIP3    H260374   4.016   0.766   4.232  1.4129  1.7977 -0.2252
12987TIP3   OH260375   0.625   3.477  12.017 -0.3283 -0.0908 -0.5246
12987TIP3    H160376   0.638   3.536  12.091  0.4088 -0.3944 -0.4018
12987TIP3    H260377   0.665   3.522  11.943 -1.2315  0.2971 -0.7875
12988TIP3   OH260378   2.728   4.301   0.300  0.7324 -0.7293 -0.3953
12988TIP3    H160379   2.732   4.391   0.269  0.3719 -0.4768  0.2913
12988TIP3    H260380   2.654   4.298   0.360 -0.4052 -1.9159 -1.7838
12989TIP3   OH260381   4.716   3.896  13.457  0.0268 -0.7889 -0.0124
12989TIP3    H160382   4.677   3.980  13.481  1.1510 -0.4084  0.5594
12989TIP3    H260383   4.799   3.894  13.505  1.0267 -1.2751 -1.7150
12990TIP3   OH260384   5.136   4.967   2.227  0.0282  0.3132 -0.2038
12990TIP3    H160385   5.217   4.929   2.193 -0.5060 -0.8547 -0.2319
12990TIP3    H260386   5.117   5.040   2.168  1.4349  1.0844  0.2480
12991TIP3   OH260387   2.762   1.581   3.589  0.1051 -0.2680  0.0539
12991TIP3    H160388   2.768   1.578   3.685 -1.2897 -0.1030  0.1740
12991TIP3    H260389   2.722   1.497   3.565 -2.3649  0.8506 -0.0701
12992TIP3   OH260390   2.399   5.907   6.117 -0.3368 -0.4076  0.4935
12992TIP3    H160391   2.408   5.981   6.057 -0.1338 -2.4527 -2.1855
12992TIP3    H260392   2.488   5.877   6.132 -0.5291 -1.1246  0.2156
12993TIP3   OH260393   3.025   4.025   4.915 -0.2361  0.3708  0.0581
12993TIP3    H160394   3.080   4.011   4.992  2.0513 -0.0567 -1.5357
12993TIP3    H260395   3.015   4.120   4.909  1.1774  0.5290 -0.1300
12994TIP3   OH260396   2.872   3.697  17.047  0.3641 -0.3835  0.6263
12994TIP3    H160397   2.838   3.731  16.964 -1.2841 -0.4700  1.2359
12994TIP3    H260398   2.813   3.732  17.114  2.2558  0.5503  1.9227
12995TIP3   OH260399   2.181   5.897  11.933  0.2983 -0.3967  0.0551
12995TIP3    H160400   2.091   5.911  11.905  0.7598  0.2533 -1.2144
12995TIP3    H260401   2.220   5.984  11.934  1.0760 -0.7286 -0.0498
12996TIP3   OH260402   5.931   3.587   1.911  0.0387  0.0117  0.1193
12996TIP3    H160403   5.845   3.587   1.868 -1.0200  0.9097  2.0788
12996TIP3    H260404   5.967   3.501   1.891 -0.8716 -0.0173 -1.5786
12997TIP3   OH260405   2.041   4.739   0.618  0.1043 -0.0645  0.6705
12997TIP3    H160406   1.948   4.738   0.643 -0.0683 -0.8689  0.0104
12997TIP3    H260407   2.050   4.817   0.563 -0.2053 -0.0634  0.6215
12998TIP3   OH260408   3.491   4.402  16.606 -0.5540  0.4409  0.1950
12998TIP3    H160409   3.487   4.312  16.574  1.8175  0.6644 -0.9761
12998TIP3    H260410   3.564   4.441  16.558 -1.6735  3.0932  0.4718
12999TIP3   OH260411   3.150   0.644   1.397  0.3251 -0.0843 -0.2613
12999TIP3    H160412   3.141   0.689   1.313 -0.7662 -1.0786 -0.7017
12999TIP3    H260413   3.241   0.614   1.399  0.0894 -0.9466 -1.5717
13000TIP3   OH260414   1.821   0.209   4.632  0.4011 -0.3073 -0.1376
13000TIP3    H160415   1.730   0.239   4.628  0.2199 -0.9719 -1.6381
13000TIP3    H260416   1.816   0.123   4.672  0.4507 -0.0749  0.3743
13001TIP3   OH260417   3.924   2.851   6.400 -0.6663 -0.1940 -0.0734
13001TIP3    H160418   3.857   2.838   6.467 -0.8456  1.2931  0.0698
13001TIP3    H260419   3.929   2.767   6.354  0.0710 -1.5435  2.3203
13002TIP3   OH260420   0.675   4.471  12.918  0.3549  0.3194 -0.3489
13002TIP3    H160421   0.623   4.429  12.849  2.4051 -0.9068 -1.2409
13002TIP3    H260422   0.704   4.554  12.879  0.5910  0.1361 -0.5718
13003TIP3   OH260423   5.109   5.904  17.224  0.1074  0.2980 -0.8462
13003TIP3    H160424   5.165   5.831  17.200 -0.9089 -1.0090  0.5219
13003TIP3    H260425   5.168   5.968  17.263  0.6504 -1.2457  1.0079
13004TIP3   OH260426   3.406   5.554  16.111  0.3748 -0.1184  0.2232
13004TIP3    H160427   3.480   5.581  16.166 -0.5139  0.0813  1.3451
13004TIP3    H260428   3.438   5.565  16.022  0.8056  2.6308  0.6234
13005TIP3   OH260429   2.139   4.403  14.359 -0.4691 -0.3600  0.1910
13005TIP3    H160430   2.175   4.341  14.422 -1.3448 -0.7160  0.3541
13005TIP3    H260431   2.216   4.440  14.315  0.1142 -0.6872  0.9105
13006TIP3   OH260432   0.163   4.905  14.120  0.2410 -0.1610  0.5133
13006TIP3    H160433   0.169   4.973  14.054  0.7219  0.3488  1.0698
13006TIP3    H260434   0.131   4.949  14.198  1.4304 -0.3619  1.1477
13007TIP3   OH260435   3.090   5.450   3.453  0.2283 -0.1329 -0.1962
13007TIP3    H160436   3.068   5.531   3.406  2.7126  0.0651 -1.1612
13007TIP3    H260437   3.126   5.479   3.536 -0.7444 -0.3697  0.3306
13008TIP3   OH260438   1.765   2.737   5.772 -0.0491  0.2267 -0.2903
13008TIP3    H160439   1.733   2.679   5.703 -2.9078  0.8551  0.3551
13008TIP3    H260440   1.786   2.819   5.726  0.4405 -0.1412 -0.7248
13009TIP3   OH260441   0.069   1.917  11.799 -0.1323 -0.3257  0.5638
13009TIP3    H160442   0.070   1.931  11.704  0.4452 -2.0329  0.2757
13009TIP3    H260443  -0.023   1.929  11.824 -0.3774 -0.3403 -0.2960
13010TIP3   OH260444   2.870   5.265   1.510  0.3997  0.4020  0.5823
13010TIP3    H160445   2.788   5.219   1.519  0.8477 -0.2431  1.4361
13010TIP3    H260446   2.897   5.287   1.599  1.7986 -0.5542  0.4315
13011TIP3   OH260447   3.887   5.844   0.073  0.0611  0.2322  0.3666
13011TIP3    H160448   3.913   5.828  -0.017  0.8520 -1.9931  0.9260
13011TIP3    H260449   3.936   5.779   0.124 -0.6196  1.2067  2.3602
13012TIP3   OH260450   2.993   6.374   4.824 -0.3749 -0.2187 -0.7358
13012TIP3    H160451   3.048   6.319   4.768 -0.9750 -2.4600  0.7539
13012TIP3    H260452   3.053   6.408   4.890 -0.4303 -1.2181 -0.1537
13013TIP3   OH260453   6.432   4.702  15.105  0.1991 -0.0697 -0.7622
13013TIP3    H160454   6.405   4.792  15.120  0.7761  0.4287 -2.4585
13013TIP3    H260455   6.400   4.654  15.182 -0.0631  1.5683  0.2012
13014TIP3   OH260456   5.678   2.466   4.034  0.2078 -0.1011  0.3611
13014TIP3    H160457   5.658   2.423   3.951 -0.7253  1.1367 -0.0947
13014TIP3    H260458   5.597   2.511   4.058  0.9806  0.9832  1.0533
13015TIP3   OH260459   6.544   6.706  14.609  0.3868 -0.0217  0.1057
13015TIP3    H160460   6.479   6.741  14.548  1.7302  0.5862 -1.0413
13015TIP3    H260461   6.576   6.626  14.566  0.9063  0.0722  0.3153
13016TIP3   OH260462   1.235   1.838  13.326  0.0888  0.2663 -0.2917
13016TIP3    H160463   1.141   1.830  13.310  0.0828 -0.8868  0.2055
13016TIP3    H260464   1.276   1.818  13.242 -0.0566 -1.6926  0.0638
13017TIP3   OH260465   5.456   2.042   1.270  0.5081  0.2700 -0.6078
13017TIP3    H160466   5.418   1.954   1.279 -2.1939  1.3710 -0.0996
13017TIP3    H260467   5.460   2.075   1.360 -0.5612  1.3871 -0.9296
13018TIP3   OH260468   5.763   5.280   2.346  0.3578  0.1928  0.3093
13018TIP3    H160469   5.672   5.252   2.358  0.3564  0.3546  0.6853
13018TIP3    H260470   5.781   5.336   2.422  0.5710  0.6779 -0.0981
13019TIP3   OH260471   0.343   4.072   3.629 -0.2994 -0.5014 -0.5458
13019TIP3    H160472   0.427   4.116   3.616  0.0487 -0.8180  0.5329
13019TIP3    H260473   0.284   4.115   3.567  0.4390  0.3390 -0.6866
13020TIP3   OH260474   3.224   4.446  16.096 -0.3209  0.1030  0.6263
13020TIP3    H160475   3.247   4.353  16.090  0.0778  0.2345 -0.0265
13020TIP3    H260476   3.293   4.491  16.048 -1.7186  0.5339 -1.1061
13021TIP3   OH260477   4.113   5.747   1.224 -0.2012 -0.3480  0.1023
13021TIP3    H160478   4.091   5.830   1.266  0.3584  0.0470 -0.3878
13021TIP3    H260479   4.028   5.703   1.215 -0.3598 -0.3773  1.4825
13022TIP3   OH260480   5.663   4.824  13.601 -0.2265 -0.2631  0.1967
13022TIP3    H160481   5.634   4.893  13.541  0.4247  0.2499  0.4616
13022TIP3    H260482   5.708   4.870  13.671 -1.1330 -0.8499  1.1865
13023TIP3   OH260483   5.704   5.243   5.783 -0.1730  0.0806  0.0541
13023TIP3    H160484   5.657   5.182   5.725  0.6396  0.6822 -1.2855
13023TIP3    H260485   5.766   5.187   5.830 -1.8669 -0.6658  1.5647
13024TIP3   OH260486   2.218   6.193  11.679  0.1745 -0.5713  0.1491
13024TIP3    H160487   2.239   6.100  11.685 -1.4729 -1.0312 -0.6017
13024TIP3    H260488   2.123   6.195  11.671  0.0424  1.2637  1.5100
13025TIP3   OH260489   6.361   0.362   3.311  0.1541  0.2535  0.1722
13025TIP3    H160490   6.413   0.281   3.305 -0.1615 -0.1278  2.0577
13025TIP3    H260491   6.411   0.418   3.370 -0.1718  1.0214 -0.2696
13026TIP3   OH260492   5.866   1.540  15.424  0.7482  0.2190  0.8680
13026TIP3    H160493   5.936   1.511  15.366  1.2083  0.3050  1.3644
13026TIP3    H260494   5.788   1.546  15.368  1.4822  1.6939 -0.0789
13027TIP3   OH260495   4.337   1.686  11.796  0.0034 -0.3879  0.8829
13027TIP3    H160496   4.280   1.637  11.855 -0.4803 -0.6523  0.2085
13027TIP3    H260497   4.380   1.619  11.743 -1.3242 -0.0976 -0.6582
13028TIP3   OH260498   6.345   5.697  15.406 -0.0904  0.7083 -0.1504
13028TIP3    H160499   6.383   5.654  15.330 -1.2087  1.7411 -1.3608
13028TIP3    H260500   6.408   5.766  15.429  0.4937  0.0656  0.1844
13029TIP3   OH260501   1.871   0.895   5.580  0.0821 -0.0733 -0.1453
13029TIP3    H160502   1.796   0.841   5.554  0.7625 -1.7446  1.1871
13029TIP3    H260503   1.833   0.971   5.624 -0.8995  0.6411 -2.1165
13030TIP3   OH260504   5.594   0.029   2.857  0.1369  0.4265  0.5786
13030TIP3    H160505   5.514  -0.020   2.871  0.3571  0.3215  1.5184
13030TIP3    H260506   5.598   0.090   2.931  3.3063 -2.7443  3.3729
13031TIP3   OH260507   6.618   2.583  12.339 -0.4574 -0.5477 -0.7414
13031TIP3    H160508   6.533   2.626  12.348  0.6121  1.3497  1.2254
13031TIP3    H260509   6.647   2.605  12.251 -0.9987  0.7790 -0.6140
13032TIP3   OH260510   6.390   1.272  13.772 -0.1234  0.3175 -0.4337
13032TIP3    H160511   6.434   1.201  13.818 -0.8241  0.1946  0.0614
13032TIP3    H260512   6.314   1.231  13.730 -1.9265  1.1068  1.8037
13033TIP3   OH260513   2.630   5.140  14.397  0.7256 -0.2794 -0.2190
13033TIP3    H160514   2.623   5.149  14.492  2.0380  1.1034 -0.2183
13033TIP3    H260515   2.575   5.065  14.376  0.0779 -0.3555  1.5787
13034TIP3   OH260516   4.739   5.114  17.184 -0.1529  0.3424 -0.2092
13034TIP3    H160517   4.818   5.153  17.223  0.1224 -0.8870  0.5028
13034TIP3    H260518   4.674   5.118  17.255 -1.4100  3.1290 -1.3591
13035TIP3   OH260519   2.501   5.984   1.391 -0.9410 -0.4863  0.0292
13035TIP3    H160520   2.548   6.056   1.433 -0.7707 -0.8064  0.3921
13035TIP3    H260521   2.562   5.910   1.395 -0.8326 -0.4691 -0.9841
13036TIP3   OH260522   2.751   1.565   5.354  0.4396  0.1582  0.0455
13036TIP3    H160523   2.693   1.624   5.307  0.5948 -0.4255 -0.9062
13036TIP3    H260524   2.795   1.515   5.285 -0.1063 -1.4669  0.8186
13037TIP3   OH260525   2.358   2.988   2.633  0.1809  0.0876  0.1299
13037TIP3    H160526   2.351   3.083   2.633  0.9344  0.1596 -0.9600
13037TIP3    H260527   2.438   2.969   2.682  1.4961  0.1872 -1.8716
13038TIP3   OH260528   3.775   4.511   2.111 -0.7213  0.2828  0.5252
13038TIP3    H160529   3.793   4.546   2.198  0.9731 -0.9399  0.7222
13038TIP3    H260530   3.860   4.479   2.080 -1.3335  0.5109 -1.5028
13039TIP3   OH260531   1.379   1.045  15.422 -0.0281  0.2493 -0.2843
13039TIP3    H160532   1.411   1.070  15.509  0.8985  1.1575 -0.8663
13039TIP3    H260533   1.323   0.969  15.438  0.4683  0.1410  1.0533
13040TIP3   OH260534   2.591   4.243   5.858  0.2952 -0.0581 -0.3006
13040TIP3    H160535   2.653   4.241   5.930 -0.9510  0.4679  0.8174
13040TIP3    H260536   2.510   4.206   5.894  0.1769 -1.5280 -1.9606
13041TIP3   OH260537   4.920   2.742  12.482 -0.0319  0.0969  0.5701
13041TIP3    H160538   4.828   2.718  12.471 -0.1443  0.2624  1.1083
13041TIP3    H260539   4.966   2.695  12.413 -0.5065 -0.0861  0.3778
13042TIP3   OH260540   3.504   3.508   6.661  0.0732 -0.3682  0.3719
13042TIP3    H160541   3.526   3.417   6.679 -0.0957 -0.8453 -1.6548
13042TIP3    H260542   3.584   3.556   6.681  0.6492 -1.1573  0.0077
13043TIP3   OH260543   0.554   0.347  15.737  0.2532  0.1152 -0.4428
13043TIP3    H160544   0.537   0.270  15.791 -0.8001  0.3132 -0.4771
13043TIP3    H260545   0.520   0.324  15.650 -0.7629  0.8759 -0.2697
13044TIP3   OH260546   4.221   5.006  15.952 -0.0790 -0.0518 -0.1362
13044TIP3    H160547   4.272   5.002  15.871  0.0287 -0.8652 -0.0440
13044TIP3    H260548   4.140   5.051  15.929 -0.0989 -0.3877 -0.7340
13045TIP3   OH260549   3.319   4.729  15.975 -1.0866  0.5425  0.3255
13045TIP3    H160550   3.322   4.824  15.985  0.9457  0.7565 -1.5270
13045TIP3    H260551   3.394   4.708  15.919 -1.7018 -2.1207  0.3438
13046TIP3   OH260552   3.692   5.489  13.338 -0.1023 -0.0003 -0.5646
13046TIP3    H160553   3.686   5.423  13.270 -1.8823 -1.1635  0.6163
13046TIP3    H260554   3.782   5.520  13.335  0.7600 -2.4112 -1.2353
13047TIP3   OH260555   4.398   3.752   3.644  0.9673  0.3786  0.2029
13047TIP3    H160556   4.467   3.756   3.710  2.2505  0.0852 -1.0639
13047TIP3    H260557   4.432   3.806   3.572 -0.9294  1.7190  0.2326
13048TIP3   OH260558   0.430   0.649   3.433 -0.1550 -0.2922  0.3024
13048TIP3    H160559   0.516   0.652   3.391 -0.5147 -2.8106 -0.8227
13048TIP3    H260560   0.439   0.583   3.502 -1.2856 -0.9472 -0.1430
13049TIP3   OH260561   5.900   0.552  13.048 -0.7236  0.2938 -0.6391
13049TIP3    H160562   5.884   0.646  13.056 -4.0198 -0.1810 -0.5093
13049TIP3    H260563   5.908   0.537  12.954 -1.4039  0.5358 -0.7375
13050TIP3   OH260564   0.194   2.347  15.783 -0.1233 -0.3407 -0.0751
13050TIP3    H160565   0.221   2.289  15.854 -1.8178 -1.0742  0.0340
13050TIP3    H260566   0.182   2.432  15.824 -0.5463 -0.6304  0.4154
13051TIP3   OH260567   4.290   6.434  11.352  0.0670  0.5069  0.2690
13051TIP3    H160568   4.319   6.487  11.278  1.1663  2.2440  1.8664
13051TIP3    H260569   4.259   6.497  11.417 -0.5341 -0.9418  1.4645
13052TIP3   OH260570   5.716   6.746  14.661  0.1727 -0.0267 -0.1363
13052TIP3    H160571   5.714   6.784  14.573 -2.0364  2.0249  0.6671
13052TIP3    H260572   5.677   6.814  14.717 -0.1200 -1.9409  2.1503
13053TIP3   OH260573   5.386   3.097   0.429  0.0092  0.0271 -0.3144
13053TIP3    H160574   5.467   3.147   0.434 -0.4481  0.9518 -1.5942
13053TIP3    H260575   5.362   3.099   0.336 -0.9608 -1.0829 -0.1193
13054TIP3   OH260576   4.656   5.769  12.186 -0.2349  0.5393 -0.1772
13054TIP3    H160577   4.563   5.791  12.181 -0.6724 -0.1713  2.9778
13054TIP3    H260578   4.684   5.800  12.272  1.8415 -1.3573 -0.0793
13055TIP3   OH260579   4.961   2.220  10.842 -0.2919  0.7997  0.3808
13055TIP3    H160580   4.916   2.139  10.819 -0.8877  0.6939  1.8232
13055TIP3    H260581   4.903   2.290  10.811  0.3671  0.7150 -1.1416
13056TIP3   OH260582   5.917   1.176   0.430  0.2764 -0.3731 -0.1434
13056TIP3    H160583   5.953   1.183   0.341  1.3165  0.2764  0.3029
13056TIP3    H260584   5.823   1.172   0.418  0.4579 -2.0085 -1.3749
13057TIP3   OH260585   2.331   6.308  15.083  0.1751  0.3552 -0.1098
13057TIP3    H160586   2.284   6.278  15.005 -0.7581  0.8675  0.2491
13057TIP3    H260587   2.404   6.361  15.048 -0.5620  1.0485 -0.6343
13058TIP3   OH260588   2.804   4.226  12.115  0.0200 -0.1204  0.1557
13058TIP3    H160589   2.799   4.214  12.210  1.8777  2.1533  0.6216
13058TIP3    H260590   2.896   4.248  12.098 -0.5179  0.7301 -2.0020
13059TIP3   OH260591   2.657   0.443  14.810  0.3840 -0.1938  0.4546
13059TIP3    H160592   2.727   0.414  14.868  0.9371  0.5234  0.1495
13059TIP3    H260593   2.577   0.433  14.863  0.5573 -2.0027  0.4553
13060TIP3   OH260594   2.507   5.512   5.429 -0.7599  0.1292  1.0426
13060TIP3    H160595   2.572   5.521   5.499  1.8768  0.5847 -1.3357
13060TIP3    H260596   2.442   5.580   5.448  1.2331  1.9627  1.6981
13061TIP3   OH260597   0.840   3.641  14.404 -0.9261 -0.0834  0.2284
13061TIP3    H160598   0.832   3.575  14.473 -0.4193 -1.6517 -1.1649
13061TIP3    H260599   0.758   3.635  14.355  0.2796 -1.8722 -1.7223
13062TIP3   OH260600   4.424   5.843  16.971  0.1315  0.1514  0.1156
13062TIP3    H160601   4.500   5.810  16.924  0.9124  0.2536  1.2737
13062TIP3    H260602   4.389   5.912  16.914  3.0049  2.6155  1.0779
13063TIP3   OH260603   5.600   0.685   5.920 -0.0782 -0.0278 -0.1759
13063TIP3    H160604   5.590   0.614   5.983 -1.7029  0.1065 -0.2468
13063TIP3    H260605   5.672   0.738   5.955  0.0156 -0.7545  0.7800
13064TIP3   OH260606   4.216   6.661  13.638  0.1595 -0.3543  0.1184
13064TIP3    H160607   4.198   6.707  13.720 -2.4158  3.8125 -2.4564
13064TIP3    H260608   4.299   6.698  13.608 -0.2166  0.0939 -0.3728
13065TIP3   OH260609   4.726   2.970  16.888 -0.5195  0.3443  0.1072
13065TIP3    H160610   4.744   2.920  16.808  1.8828 -0.8671  1.2947
13065TIP3    H260611   4.641   2.937  16.917  0.2755 -2.0014  0.0050
13066TIP3   OH260612   2.214   1.745  11.859  0.0616 -0.0235  0.3995
13066TIP3    H160613   2.141   1.806  11.852  0.1574 -0.0992 -1.6898
13066TIP3    H260614   2.177   1.660  11.838  0.7739 -0.0226 -0.9433
13067TIP3   OH260615   0.082   4.751   0.753 -0.0125  0.8109  0.0698
13067TIP3    H160616   0.138   4.683   0.717 -0.2003  1.3966 -1.4316
13067TIP3    H260617   0.065   4.809   0.678 -1.2191  1.5670  0.8976
13068TIP3   OH260618   6.719   5.922   1.827 -0.2800 -0.0943  0.4727
13068TIP3    H160619   6.733   5.999   1.882 -0.7160 -1.3016  2.3470
13068TIP3    H260620   6.631   5.935   1.791  0.3016  1.0680 -0.6415
13069TIP3   OH260621   1.345   0.896   6.027 -0.1292 -0.6208 -0.1083
13069TIP3    H160622   1.256   0.867   6.050 -1.0899  3.8995  3.2647
13069TIP3    H260623   1.397   0.878   6.105  0.6907  0.8261 -0.2838
13070TIP3   OH260624   5.093   5.470   3.854  0.0154  0.3369  0.3200
13070TIP3    H160625   5.106   5.393   3.909  0.1864  1.0817  1.3730
13070TIP3    H260626   5.175   5.479   3.805  0.1762  0.0972  0.5406
13071TIP3   OH260627   0.909   5.367  11.351 -0.5271 -0.0306 -0.0156
13071TIP3    H160628   0.896   5.324  11.266  0.8412 -0.6374  0.0529
13071TIP3    H260629   0.869   5.308  11.414  0.2942 -0.6438 -0.0476
13072TIP3   OH260630   3.915   3.393  14.319 -0.1029  0.0195 -0.4664
13072TIP3    H160631   3.942   3.308  14.352  0.8140  0.1269 -0.9104
13072TIP3    H260632   3.958   3.400  14.234  0.9749  1.5043  0.1576
13073TIP3   OH260633   2.961   5.897   4.700 -0.4311  0.0406 -0.1544
13073TIP3    H160634   2.926   5.812   4.727  0.1115  0.1416  0.9379
13073TIP3    H260635   2.967   5.947   4.782  2.3199 -0.0099 -0.2311
13074TIP3   OH260636   2.491   3.836  13.366  0.1337  0.4765  0.5074
13074TIP3    H160637   2.464   3.747  13.389  0.9196 -0.2441 -1.2008
13074TIP3    H260638   2.416   3.891  13.391 -0.8859 -0.8272  0.4031
13075TIP3   OH260639   5.467   6.258  12.992  0.0993  0.0522 -0.2949
13075TIP3    H160640   5.506   6.175  13.020  1.2904  1.2400  1.9210
13075TIP3    H260641   5.542   6.318  12.984 -0.7241  0.9439 -1.8421
13076TIP3   OH260642   6.423   0.125  11.195  0.8429  0.2697  0.1908
13076TIP3    H160643   6.495   0.130  11.133  0.3015  0.7872 -0.4038
13076TIP3    H260644   6.349   0.165  11.150  0.0693 -0.6111  0.6351
13077TIP3   OH260645   3.167   1.437  16.932  0.1007  0.1498  0.3296
13077TIP3    H160646   3.215   1.360  16.962  0.9968  0.5965  0.0653
13077TIP3    H260647   3.139   1.481  17.013 -0.1382 -0.2780  0.4812
13078TIP3   OH260648   5.670   1.848   4.504  0.0415 -0.5270  0.3507
13078TIP3    H160649   5.639   1.811   4.422  1.6768  0.3001 -0.6939
13078TIP3    H260650   5.744   1.903   4.479 -0.6351  1.3152  2.1501
13079TIP3   OH260651   1.433   0.431   3.626  0.4377 -0.1062 -0.0991
13079TIP3    H160652   1.357   0.427   3.684  0.1970 -1.4470 -0.4711
13079TIP3    H260653   1.403   0.480   3.549 -0.2654 -1.1914 -0.5295
13080TIP3   OH260654   4.225   4.819  17.193  0.2564 -0.4150 -0.4118
13080TIP3    H160655   4.198   4.795  17.104  0.6699 -1.5542 -0.2594
13080TIP3    H260656   4.309   4.863  17.182 -0.8567  1.7074 -0.7597
13081TIP3   OH260657   2.529   4.128  12.070 -0.4641 -0.2070 -0.0515
13081TIP3    H160658   2.602   4.184  12.094  0.3572 -2.1530  2.5091
13081TIP3    H260659   2.452   4.171  12.108  0.0117 -0.2751  1.0334
13082TIP3   OH260660   3.415   1.684  12.929 -0.2192 -0.1716  0.3181
13082TIP3    H160661   3.343   1.695  12.867  0.3990 -0.2518 -0.4307
13082TIP3    H260662   3.451   1.598  12.909  0.4677  0.1165  0.2664
13083TIP3   OH260663   4.073   1.018  11.462  0.3503  0.0387  0.6744
13083TIP3    H160664   4.146   1.077  11.478 -0.7908  1.4745  0.8475
13083TIP3    H260665   4.081   0.950  11.529  2.1910 -0.5299 -0.0790
13084TIP3   OH260666   1.171   2.614   2.838 -0.1673  0.5892 -0.5874
13084TIP3    H160667   1.229   2.538   2.840 -1.0767 -0.1769 -1.9302
13084TIP3    H260668   1.221   2.682   2.791  0.4819  0.6991  0.2415
13085TIP3   OH260669   2.410   6.291   7.153 -0.1530  0.2814  0.0852
13085TIP3    H160670   2.408   6.227   7.083  0.9898  0.5979 -0.2516
13085TIP3    H260671   2.420   6.375   7.109  0.1558  0.5259  0.6132
13086TIP3   OH260672   4.253   2.090  16.962 -0.0606  0.0489 -0.6736
13086TIP3    H160673   4.211   2.006  16.941 -1.3168  0.3738  0.4814
13086TIP3    H260674   4.188   2.156  16.939  1.2984  0.8279 -2.5500
13087TIP3   OH260675   0.159   3.072   2.704 -0.0508 -0.2367 -0.1090
13087TIP3    H160676   0.249   3.095   2.685  0.1003 -1.1519 -0.5780
13087TIP3    H260677   0.158   3.050   2.797 -0.3776  2.3474  0.5804
13088TIP3   OH260678   1.084   3.555   4.638 -0.1184 -0.5384 -0.2829
13088TIP3    H160679   1.116   3.468   4.662 -0.3171 -1.1897 -2.2270
13088TIP3    H260680   0.993   3.555   4.669  0.7840  0.2779  2.7027
13089TIP3   OH260681   5.029   5.757  13.401  0.0926 -0.0254 -0.7092
13089TIP3    H160682   5.116   5.746  13.440  0.2619  0.0096 -1.0629
13089TIP3    H260683   4.984   5.820  13.458 -0.8216 -2.3131  1.2388
13090TIP3   OH260684   2.185   3.886   0.787  0.5190 -0.6872  0.6963
13090TIP3    H160685   2.146   3.922   0.707 -1.1155 -2.1066  0.8094
13090TIP3    H260686   2.118   3.899   0.854  1.1484 -1.1690  1.4361
13091TIP3   OH260687   6.710   5.469  12.289  0.3268  0.0893 -0.3032
13091TIP3    H160688   6.621   5.487  12.258  0.3482 -0.4316 -0.6762
13091TIP3    H260689   6.746   5.555  12.308 -0.4370  0.2729  0.3648
13092TIP3   OH260690   4.176   1.267   2.476  0.1281  0.2780 -0.5562
13092TIP3    H160691   4.230   1.306   2.545  1.0171 -2.7963  0.6459
13092TIP3    H260692   4.142   1.342   2.427  0.3810  2.5659  2.4986
13093TIP3   OH260693   3.485   0.142  14.331  0.1217 -0.1541  0.6691
13093TIP3    H160694   3.522   0.055  14.316 -1.1463 -0.9456  1.8691
13093TIP3    H260695   3.409   0.146  14.272  0.1406  0.1171  0.6622
13094TIP3   OH260696   3.452   2.955  12.917 -0.4727 -0.2216 -0.3228
13094TIP3    H160697   3.528   2.918  12.872 -0.3392  0.0144 -0.2944
13094TIP3    H260698   3.483   3.039  12.951 -0.6357 -0.3019  0.0278
13095TIP3   OH260699   4.276   5.076   4.894  0.4728  0.2140  0.0347
13095TIP3    H160700   4.249   5.028   4.973  0.9759  0.0392  0.1026
13095TIP3    H260701   4.349   5.131   4.924  1.2462 -0.5049 -0.5028
13096TIP3   OH260702   0.665   3.243   3.728  0.4300 -0.2143  0.0519
13096TIP3    H160703   0.655   3.149   3.711 -1.6724 -0.6970  3.1253
13096TIP3    H260704   0.694   3.248   3.819  2.4810  2.1679 -0.6082
13097TIP3   OH260705   5.149   2.689  15.903  0.1144  0.7199 -0.3326
13097TIP3    H160706   5.212   2.761  15.904 -1.2652  1.9878 -0.4257
13097TIP3    H260707   5.135   2.669  15.811 -0.4722  1.2496 -0.3669
13098TIP3   OH260708   5.097   2.387  14.112 -0.2326 -0.1619  0.6296
13098TIP3    H160709   5.102   2.317  14.178 -0.9220 -1.3712 -0.5511
13098TIP3    H260710   5.183   2.385  14.070  0.7500  1.6043  2.3970
13099TIP3   OH260711   2.896   3.031  12.380  0.1353  0.1211 -0.5549
13099TIP3    H160712   2.864   2.941  12.370 -0.4235  0.1665  0.6954
13099TIP3    H260713   2.911   3.041  12.474 -0.7403  1.6289 -0.5420
13100TIP3   OH260714   2.059   3.760  17.196 -0.0355 -0.1223 -0.5408
13100TIP3    H160715   2.131   3.757  17.259 -0.1600  1.9328 -0.2445
13100TIP3    H260716   2.098   3.733  17.113  0.5667 -1.0620  0.0350
13101TIP3   OH260717   5.636   2.419  12.654 -0.0456  0.6771 -0.1590
13101TIP3    H160718   5.625   2.509  12.624  3.2771  0.8042 -1.4393
13101TIP3    H260719   5.619   2.365  12.577 -1.5866  0.1978  0.4883
13102TIP3   OH260720   3.913   6.788  10.797 -0.0786 -0.4993 -1.2050
13102TIP3    H160721   3.854   6.863  10.802  0.5968  0.0002 -0.3780
13102TIP3    H260722   3.952   6.795  10.710 -1.1911 -0.8176 -1.7488
13103TIP3   OH260723   3.916   6.323  14.998  0.1994 -0.0758  0.0987
13103TIP3    H160724   3.917   6.367  14.913 -1.5082  2.1810  1.1490
13103TIP3    H260725   3.993   6.358  15.043  0.3569 -0.2388 -0.0446
13104TIP3   OH260726   4.660   6.747   2.578  0.0994 -0.0415 -0.3666
13104TIP3    H160727   4.705   6.830   2.558  0.8787 -0.6119 -1.0275
13104TIP3    H260728   4.731   6.684   2.591 -0.4951 -0.8493 -0.9634
13105TIP3   OH260729   6.069   4.803   1.460 -0.1000 -0.1587 -0.3163
13105TIP3    H160730   6.070   4.889   1.502  0.5110 -0.8107  1.0293
13105TIP3    H260731   5.977   4.778   1.459  0.0347 -1.0526  2.6163
13106TIP3   OH260732   0.383   1.737  12.796  0.1317  0.4804 -0.0502
13106TIP3    H160733   0.371   1.659  12.741 -1.4862  1.0136 -0.4964
13106TIP3    H260734   0.413   1.804  12.735  2.6778 -0.0220  0.5264
13107TIP3   OH260735   0.399   1.023  12.514  0.0440 -0.0193 -0.6424
13107TIP3    H160736   0.337   0.995  12.581  2.1930 -1.2352  0.9563
13107TIP3    H260737   0.362   0.990  12.432 -0.9923 -1.4909  0.3681
13108TIP3   OH260738   6.179   5.479   5.136  0.1845  0.4609  0.5159
13108TIP3    H160739   6.266   5.441   5.142 -0.3120 -0.6434  1.1508
13108TIP3    H260740   6.120   5.408   5.162 -0.9052  1.1860  0.1273
13109TIP3   OH260741   0.491   6.104  13.334  0.0175  0.0233  0.6237
13109TIP3    H160742   0.434   6.160  13.281 -1.3413 -1.0670  0.8680
13109TIP3    H260743   0.525   6.162  13.402 -1.5635  0.5376  1.0353
13110TIP3   OH260744   2.849   5.386  14.452  0.0887 -0.7441  0.5920
13110TIP3    H160745   2.755   5.383  14.434  0.1927 -0.0156 -0.1061
13110TIP3    H260746   2.866   5.306  14.502 -1.2974  0.1472  2.6298
13111TIP3   OH260747   4.035   5.628  10.399 -0.5653 -0.0726 -0.2219
13111TIP3    H160748   4.082   5.692  10.345 -1.0518  0.3470 -0.1551
13111TIP3    H260749   3.975   5.680  10.452  0.3634 -0.4199  1.2226
13112TIP3   OH260750   2.533   4.759  15.509 -0.0295 -0.1987  0.1742
13112TIP3    H160751   2.531   4.834  15.568 -1.3930 -0.8994  1.0814
13112TIP3    H260752   2.613   4.712  15.532  0.5755  0.7059 -0.0617
13113TIP3   OH260753   5.048   3.000  11.546  0.3366  0.2440 -0.1414
13113TIP3    H160754   4.962   3.015  11.509 -0.5692 -1.9167  0.8588
13113TIP3    H260755   5.109   3.010  11.473 -1.0557 -0.7652 -1.4990
13114TIP3   OH260756   2.772   0.017   3.967 -0.1432 -0.5601  0.4546
13114TIP3    H160757   2.729   0.033   4.051 -0.4500 -0.5125  0.2907
13114TIP3    H260758   2.865   0.028   3.985 -0.2120 -0.4968  0.7769
13115TIP3   OH260759   1.523   4.179  17.194 -0.2160  0.3469 -0.0910
13115TIP3    H160760   1.556   4.097  17.158 -0.7835 -0.6409  1.5286
13115TIP3    H260761   1.588   4.245  17.170  1.5466 -1.0459  0.7231
13116TIP3   OH260762   6.755   4.715  12.125  0.0806 -0.0584 -0.7834
13116TIP3    H160763   6.752   4.763  12.043 -1.4695  1.9525  0.3834
13116TIP3    H260764   6.696   4.762  12.183  0.6010 -1.8201  1.2948
13117TIP3   OH260765   1.776   4.892  14.805 -0.0378 -0.0344  0.4270
13117TIP3    H160766   1.859   4.847  14.789  0.7421  1.7572 -0.9248
13117TIP3    H260767   1.712   4.821  14.815  1.3588 -1.4411 -0.1466
13118TIP3   OH260768   2.975   3.128   2.906 -0.3182 -0.5146 -0.1816
13118TIP3    H160769   2.936   3.094   2.987  0.9541  0.7941  1.0210
13118TIP3    H260770   3.053   3.175   2.935  0.0770  0.1240 -2.1755
13119TIP3   OH260771   4.246   0.021   4.927 -0.2120 -0.0632  0.2805
13119TIP3    H160772   4.213  -0.011   5.010 -0.5393  1.4661  0.7640
13119TIP3    H260773   4.246   0.116   4.935 -0.5209  0.1401 -1.5679
13120TIP3   OH260774   2.165   5.103   1.224  0.6319 -0.4634  0.1648
13120TIP3    H160775   2.177   5.039   1.154  1.0848 -0.7020  0.4548
13120TIP3    H260776   2.083   5.079   1.266 -0.8192  0.9924 -1.6463
13121TIP3   OH260777   1.918   0.248   1.602  0.3150 -0.3769 -0.0236
13121TIP3    H160778   1.923   0.158   1.568  3.0677  0.1011 -1.0879
13121TIP3    H260779   1.911   0.237   1.697 -1.0844 -1.6892 -0.2377
13122TIP3   OH260780   2.465   3.874   5.564 -0.5987 -0.0925  0.5474
13122TIP3    H160781   2.556   3.905   5.559 -0.7372  0.1811 -0.3288
13122TIP3    H260782   2.414   3.952   5.586 -0.6509 -0.2071  0.8400
13123TIP3   OH260783   0.899   0.341   2.211  0.5096 -0.1409 -0.0708
13123TIP3    H160784   0.819   0.393   2.218  0.5530  0.1655 -1.5363
13123TIP3    H260785   0.872   0.262   2.164  1.2772  0.4730 -1.5751
13124TIP3   OH260786   6.147   5.158   0.873 -0.3812 -0.7778 -0.4161
13124TIP3    H160787   6.127   5.206   0.793  1.6117 -0.6116 -0.8804
13124TIP3    H260788   6.178   5.225   0.934  0.0010 -1.1410 -0.2019
13125TIP3   OH260789   3.287   1.955   2.082  0.4852  0.0882  0.1446
13125TIP3    H160790   3.342   1.961   2.160  3.6386  3.3137 -2.0241
13125TIP3    H260791   3.348   1.946   2.009 -2.1131  0.1227 -2.2287
13126TIP3   OH260792   2.778   3.410  15.950  0.6678 -0.7014 -0.4359
13126TIP3    H160793   2.854   3.465  15.966  0.5839 -0.0166 -2.2046
13126TIP3    H260794   2.795   3.369  15.865 -0.0902 -2.0295  0.0132
13127TIP3   OH260795   3.754   1.843   0.921 -0.2807  0.1885 -0.1639
13127TIP3    H160796   3.731   1.820   0.831  1.7442  0.7116 -0.8861
13127TIP3    H260797   3.763   1.759   0.966 -0.4453 -0.1142 -0.6837
13128TIP3   OH260798   2.229   0.546   1.795 -0.3475 -1.0817 -0.3079
13128TIP3    H160799   2.201   0.478   1.734  0.3806 -0.9839 -0.7637
13128TIP3    H260800   2.310   0.581   1.757 -0.6227 -0.0775  0.0088
13129TIP3   OH260801   3.995   1.625  14.045  0.1467  0.2799  0.0001
13129TIP3    H160802   3.983   1.553  13.983 -1.4693  1.6745 -1.4103
13129TIP3    H260803   3.963   1.590  14.128  0.8092 -1.0974 -0.2946
13130TIP3   OH260804   1.487   0.578   0.930 -0.0536  0.7998 -0.8352
13130TIP3    H160805   1.569   0.532   0.951  0.0279  0.7657 -1.2243
13130TIP3    H260806   1.504   0.669   0.954  0.2876  0.8931 -1.4178
13131TIP3   OH260807   1.853   1.017  14.439 -0.5276 -0.3098  0.2700
13131TIP3    H160808   1.911   0.956  14.394 -0.7946 -1.1630  1.0679
13131TIP3    H260809   1.872   1.005  14.532 -0.3810  1.0375  0.4400
13132TIP3   OH260810   2.748   6.492   0.947 -0.6115 -0.3985  0.4385
13132TIP3    H160811   2.776   6.409   0.909 -0.0509 -0.7719  1.6272
13132TIP3    H260812   2.816   6.513   1.011 -0.6044  1.1225 -0.0300
13133TIP3   OH260813   6.731   2.499  11.842 -0.3562 -0.7653  0.2452
13133TIP3    H160814   6.733   2.446  11.922 -0.8906  0.1986  0.9120
13133TIP3    H260815   6.642   2.535  11.840 -0.1568 -0.2980 -0.4635
13134TIP3   OH260816   0.006   6.654  16.721 -0.0303  0.3083 -0.2366
13134TIP3    H160817   0.064   6.594  16.768  0.6888 -0.0549 -1.5330
13134TIP3    H260818   0.018   6.630  16.629 -1.0862  1.2676 -0.6335
13135TIP3   OH260819   6.433   6.704  17.218  0.7188  0.3392 -0.1127
13135TIP3    H160820   6.523   6.730  17.198  0.1294  2.1685 -0.6370
13135TIP3    H260821   6.398   6.779  17.267 -1.2593  0.8394 -2.1439
13136TIP3   OH260822   5.860   2.128  14.795  0.3616  0.1802  0.0154
13136TIP3    H160823   5.770   2.155  14.781  0.3298  0.2073  0.2638
13136TIP3    H260824   5.892   2.103  14.708  0.2028  0.4346 -0.1169
13137TIP3   OH260825   1.107   0.452  15.509  0.0339  0.7237  0.5213
13137TIP3    H160826   1.082   0.539  15.478  1.0326  1.5737  1.9991
13137TIP3    H260827   1.046   0.393  15.466 -0.3661  2.0944 -0.8922
13138TIP3   OH260828   6.350   1.951  16.902  0.3620 -0.3474 -0.0568
13138TIP3    H160829   6.370   2.018  16.968  1.9544 -0.3054 -0.5364
13138TIP3    H260830   6.433   1.905  16.891  0.1841 -0.2160 -2.1896
13139TIP3   OH260831   1.488   1.845  17.182 -0.3075 -0.3137 -0.1758
13139TIP3    H160832   1.491   1.862  17.276  0.4195 -0.8389 -0.0944
13139TIP3    H260833   1.422   1.906  17.148 -0.4879 -0.0411  0.6537
13140TIP3   OH260834   3.375   4.010   2.567 -0.1562  0.1478 -0.0460
13140TIP3    H160835   3.441   4.029   2.633  0.4439  0.0461 -0.6040
13140TIP3    H260836   3.293   4.040   2.606 -0.2010 -1.9851  1.7072
13141TIP3   OH260837   1.593   6.143  16.078 -0.1042 -0.1528  0.3050
13141TIP3    H160838   1.610   6.083  16.005  0.3721  0.6309 -0.2407
13141TIP3    H260839   1.502   6.170  16.067  0.1422  0.4293 -0.3582
13142TIP3   OH260840   1.977   6.256   2.760  0.3013 -0.0829  0.8435
13142TIP3    H160841   1.976   6.324   2.828  1.5918 -0.7555  1.5619
13142TIP3    H260842   2.022   6.296   2.686 -1.5431  0.8241  0.1517
13143TIP3   OH260843   3.062   5.628  10.845  0.1994 -0.1259 -0.5342
13143TIP3    H160844   3.007   5.696  10.807 -0.7840 -1.1201 -0.9313
13143TIP3    H260845   3.148   5.641  10.804  1.0943  3.0110  1.9326
13144TIP3   OH260846   0.516   2.351   1.119  0.0129 -0.6548  0.1611
13144TIP3    H160847   0.607   2.336   1.143 -0.0165 -1.9406 -0.4365
13144TIP3    H260848   0.501   2.444   1.137  1.7559 -0.1577 -0.7949
13145TIP3   OH260849   5.846   2.332   4.953 -0.1089 -0.1223 -0.5263
13145TIP3    H160850   5.778   2.269   4.929 -0.6546 -0.7942  2.3925
13145TIP3    H260851   5.800   2.395   5.009  1.1662  0.8659 -0.5536
13146TIP3   OH260852   1.656   6.119  12.876  0.1672 -0.4580 -0.3731
13146TIP3    H160853   1.698   6.100  12.959  2.2844  1.0789 -1.0015
13146TIP3    H260854   1.571   6.157  12.899  0.9557  0.4678  1.1151
13147TIP3   OH260855   6.509   5.100   6.225 -0.0950  0.0422 -0.0565
13147TIP3    H160856   6.571   5.030   6.246 -1.4244 -1.3379 -0.5992
13147TIP3    H260857   6.543   5.176   6.272  1.2617 -1.0074  0.7459
13148TIP3   OH260858   6.589   0.025  15.087  0.2364  0.0737  0.4329
13148TIP3    H160859   6.533   0.046  15.012  0.3864  0.3154  0.3880
13148TIP3    H260860   6.601   0.108  15.132  0.2703 -0.0435  0.6408
13149TIP3   OH260861   1.246   4.874   0.894 -0.3198  0.1044  0.2165
13149TIP3    H160862   1.211   4.823   0.967  0.1597  0.2404  0.5466
13149TIP3    H260863   1.322   4.919   0.931  1.3142 -1.5740 -0.9301
13150TIP3   OH260864   1.690   2.688   2.685 -0.0146  0.0237  0.2113
13150TIP3    H160865   1.630   2.667   2.757  0.8562 -0.4776  0.8123
13150TIP3    H260866   1.735   2.606   2.667  0.6055  0.4286 -0.1177
13151TIP3   OH260867   4.427   4.810   3.659  0.3155  0.1823 -0.1181
13151TIP3    H160868   4.371   4.886   3.674 -0.4284 -0.3626 -0.0671
13151TIP3    H260869   4.510   4.832   3.701  0.1675  1.0389 -0.2699
13152TIP3   OH260870   5.046   5.881   1.804  0.4231  0.4753  0.1904
13152TIP3    H160871   5.086   5.840   1.881 -0.1190 -2.6170 -1.0049
13152TIP3    H260872   4.987   5.814   1.770 -1.1493  2.6301 -1.5957
13153TIP3   OH260873   4.042   3.866   2.046  0.0127 -0.3617  0.4341
13153TIP3    H160874   4.133   3.866   2.015 -0.2085  0.5997 -0.2450
13153TIP3    H260875   4.011   3.955   2.030 -0.3087  0.0260  2.9019
13154TIP3   OH260876   6.451   5.893   3.926 -0.8167  1.0357  0.2668
13154TIP3    H160877   6.418   5.860   4.010  0.0384 -1.6472 -0.3774
13154TIP3    H260878   6.380   5.878   3.864 -0.4190  0.3696 -0.0344
13155TIP3   OH260879   0.797   5.349   6.204  0.3841  0.0658  0.5344
13155TIP3    H160880   0.727   5.309   6.255 -0.0298 -2.8219 -1.9676
13155TIP3    H260881   0.760   5.431   6.171 -0.7777 -0.0468  1.5017
13156TIP3   OH260882   4.623   0.557   1.818 -0.3177 -0.3648  0.1066
13156TIP3    H160883   4.532   0.531   1.805 -0.3458 -1.0353  1.4528
13156TIP3    H260884   4.653   0.504   1.892  0.5446  1.3033  1.0175
13157TIP3   OH260885   3.807   3.085  15.441  0.5448 -0.5708  0.1438
13157TIP3    H160886   3.727   3.094  15.493  1.4193 -2.6911  1.9997
13157TIP3    H260887   3.776   3.058  15.354 -0.8253  0.9189  0.1165
13158TIP3   OH260888   3.080   3.983   1.172  0.5538  0.3454 -0.0206
13158TIP3    H160889   3.095   3.931   1.093 -1.4006 -1.6501  0.8044
13158TIP3    H260890   3.030   4.058   1.142 -0.1667 -0.3943 -0.7194
13159TIP3   OH260891   5.118   4.920  15.607  0.0725 -0.0149 -0.1996
13159TIP3    H160892   5.072   5.004  15.613  1.3675  0.6633  0.6835
13159TIP3    H260893   5.185   4.935  15.541  0.5412 -0.2390  0.2224
13160TIP3   OH260894   1.155   4.164  16.881 -0.1116  0.2330 -0.6556
13160TIP3    H160895   1.166   4.135  16.972  0.4924  0.4797 -0.6431
13160TIP3    H260896   1.080   4.114  16.849  0.3321 -0.6539 -0.3568
13161TIP3   OH260897   1.671   4.262  15.577 -0.2733  0.8534 -0.0111
13161TIP3    H160898   1.649   4.188  15.521 -0.0987  0.5690  0.2923
13161TIP3    H260899   1.639   4.237  15.663  1.0810  0.4855  0.4132
13162TIP3   OH260900   0.042   3.440   3.814 -0.2236 -0.2943 -0.2836
13162TIP3    H160901   0.117   3.387   3.786  1.7227  2.6517 -1.1561
13162TIP3    H260902   0.073   3.484   3.893 -1.8843 -0.6221  0.5818
13163TIP3   OH260903   4.814   4.307   6.065 -0.0876  0.0081  0.3282
13163TIP3    H160904   4.855   4.307   5.978 -1.4919  0.3729 -0.3605
13163TIP3    H260905   4.815   4.399   6.092  1.3966 -0.2580  1.2277
13164TIP3   OH260906   4.733   2.205  12.212  0.5327  0.6719 -1.0003
13164TIP3    H160907   4.789   2.252  12.150  3.4022  0.0091  0.8778
13164TIP3    H260908   4.782   2.126  12.233 -0.9521  0.2214  1.0748
13165TIP3   OH260909   6.412   5.668  11.727  0.4262 -0.1901  0.5728
13165TIP3    H160910   6.486   5.607  11.723  0.0848 -0.5414 -1.3899
13165TIP3    H260911   6.391   5.686  11.635 -0.6016  1.5465  1.1054
13166TIP3   OH260912   1.456   5.693  14.336 -0.6506  0.0669  0.1576
13166TIP3    H160913   1.501   5.774  14.313  1.7527 -0.9632  0.9085
13166TIP3    H260914   1.391   5.719  14.402 -1.2255  1.6131 -0.9726
13167TIP3   OH260915   6.425   3.464   0.496 -0.0146 -0.0093 -0.3661
13167TIP3    H160916   6.514   3.484   0.526  0.4825  0.4813 -2.0598
13167TIP3    H260917   6.394   3.544   0.455 -0.6117 -0.6497 -1.2180
13168TIP3   OH260918   1.803   1.664   5.562  0.0641 -0.2686 -0.3227
13168TIP3    H160919   1.742   1.613   5.616 -2.1170 -0.1538 -2.4704
13168TIP3    H260920   1.850   1.598   5.512 -1.3073 -0.3139 -1.6257
13169TIP3   OH260921   4.942   5.216  11.805 -0.1458  0.0464 -0.7658
13169TIP3    H160922   4.891   5.144  11.766  1.5481 -0.7100 -1.6803
13169TIP3    H260923   4.980   5.178  11.884  0.6218 -0.0175 -1.1631
13170TIP3   OH260924   1.098   4.268  14.178  0.8268 -0.6220  0.2946
13170TIP3    H160925   1.072   4.321  14.254  0.6206 -1.2371  0.6601
13170TIP3    H260926   1.015   4.241  14.139  0.8946 -1.8248  0.9260
13171TIP3   OH260927   2.279   5.740  13.188 -0.4375 -0.2709  0.1950
13171TIP3    H160928   2.208   5.782  13.237 -1.5874 -1.3424 -0.5107
13171TIP3    H260929   2.272   5.647  13.210  0.2407 -0.4950 -0.4919
13172TIP3   OH260930   4.166   0.110  15.920  0.1566 -0.1913 -0.1722
13172TIP3    H160931   4.109   0.139  15.850  0.6449 -1.3044 -1.0685
13172TIP3    H260932   4.236   0.175  15.923 -1.9211  2.1717  2.0938
13173TIP3   OH260933   6.425   5.143  12.310 -0.1883  0.0202 -0.1663
13173TIP3    H160934   6.515   5.176  12.313  0.0420 -0.5633 -0.4607
13173TIP3    H260935   6.376   5.212  12.266  0.1719  0.2230 -0.2553
13174TIP3   OH260936   4.653   0.221   1.477 -0.0034  0.3213 -0.4060
13174TIP3    H160937   4.630   0.314   1.467 -0.0583  0.4562  0.8239
13174TIP3    H260938   4.638   0.203   1.570  4.2268  0.2259  0.4415
13175TIP3   OH260939   1.854   3.682  16.114 -0.4247  0.4496  0.7898
13175TIP3    H160940   1.908   3.755  16.086  3.1254 -1.9646  0.7311
13175TIP3    H260941   1.853   3.621  16.040 -3.3709  0.3211  0.7791
13176TIP3   OH260942   3.493   4.446  16.217  0.4462 -0.3357  0.6779
13176TIP3    H160943   3.554   4.502  16.170  1.4981 -1.0377  1.1668
13176TIP3    H260944   3.549   4.390  16.271 -0.5280 -1.9711  0.0728
13177TIP3   OH260945   5.716   3.922   0.491 -0.4977 -0.4695  0.8453
13177TIP3    H160946   5.791   3.865   0.481 -0.8107 -0.6200 -1.1106
13177TIP3    H260947   5.651   3.888   0.428 -1.3538  0.9533  0.9076
13178TIP3   OH260948   3.456   3.978  16.053 -1.0175 -0.0203  0.1621
13178TIP3    H160949   3.389   3.926  16.099  0.3896 -0.4101  1.8801
13178TIP3    H260950   3.504   4.022  16.123 -0.5624  1.6665 -1.1278
13179TIP3   OH260951   1.647   4.374  11.779 -0.7218  0.0272  0.8819
13179TIP3    H160952   1.646   4.420  11.695  0.4954  0.8335  1.2827
13179TIP3    H260953   1.566   4.323  11.780  0.3222 -1.8809 -1.7993
13180TIP3   OH260954   5.668   4.859  14.213  0.4775  0.3918  0.6302
13180TIP3    H160955   5.606   4.886  14.281  0.6068  0.6373  0.6487
13180TIP3    H260956   5.752   4.854  14.258  0.0455 -2.7445  1.3387
13181TIP3   OH260957   2.790   5.262  11.638 -0.5765  0.4537 -0.6533
13181TIP3    H160958   2.697   5.248  11.657 -0.3847 -1.5100 -0.9288
13181TIP3    H260959   2.794   5.268  11.543 -0.4696  1.1647 -0.6120
13182TIP3   OH260960   6.696   5.349   4.425  0.7407  0.1031 -0.5261
13182TIP3    H160961   6.681   5.296   4.347  0.4833  0.9109 -1.0368
13182TIP3    H260962   6.608   5.375   4.453  0.6761 -1.6705  1.1110
13183TIP3   OH260963   0.058   4.804  16.723  0.1658  0.1162  0.1325
13183TIP3    H160964   0.125   4.742  16.695 -0.2665 -0.4869  0.4176
13183TIP3    H260965   0.106   4.886  16.738  0.5266  0.2401 -1.5684
13184TIP3   OH260966   5.349   0.119  11.577 -0.3599  0.6569 -0.0135
13184TIP3    H160967   5.394   0.120  11.662 -0.9060 -0.4410  0.3110
13184TIP3    H260968   5.256   0.124  11.599 -0.7665 -3.0194 -0.2612
13185TIP3   OH260969   4.710   5.456  12.664  0.0990  0.1617 -0.3028
13185TIP3    H160970   4.773   5.443  12.593 -1.5558 -2.7679 -1.4138
13185TIP3    H260971   4.626   5.431  12.626 -1.0276 -0.4926  2.4046
13186TIP3   OH260972   0.773   2.747   1.685  0.2317  0.2286 -0.1229
13186TIP3    H160973   0.787   2.841   1.677 -1.9079  0.5520 -0.7054
13186TIP3    H260974   0.726   2.723   1.605  0.6315 -1.3171  0.0739
13187TIP3   OH260975   6.301   1.491   5.474  0.0322  0.1903 -0.0476
13187TIP3    H160976   6.275   1.417   5.419  1.0219 -0.8847  0.8801
13187TIP3    H260977   6.219   1.522   5.513 -0.3773 -0.4734 -0.3589
13188TIP3   OH260978   3.005   5.058  12.134 -0.4644  0.8965 -0.1180
13188TIP3    H160979   2.976   4.970  12.110  0.6383  0.9532 -1.8401
13188TIP3    H260980   3.015   5.055  12.229 -0.2716 -0.8965 -0.1655
13189TIP3   OH260981   5.113   1.794  12.008 -0.5919  0.0998 -0.0573
13189TIP3    H160982   5.100   1.889  12.003  0.4304  0.2899  0.6585
13189TIP3    H260983   5.024   1.758  12.008 -0.9868  0.9184 -2.3955
13190TIP3   OH260984   1.082   5.855  11.705 -0.0854  0.0383  0.2302
13190TIP3    H160985   0.986   5.855  11.707 -0.0882 -1.5368  1.2480
13190TIP3    H260986   1.107   5.766  11.728  1.6269 -0.1412 -1.9628
13191TIP3   OH260987   5.770   3.517  13.483 -0.2775 -0.0110 -0.2767
13191TIP3    H160988   5.682   3.488  13.507  0.1949 -0.3070  1.1872
13191TIP3    H260989   5.789   3.471  13.401 -1.0325 -0.8708  0.0105
13192TIP3   OH260990   5.135   4.433  11.167 -0.2644 -0.1844  0.0443
13192TIP3    H160991   5.096   4.368  11.108 -0.7942 -0.3160  0.5415
13192TIP3    H260992   5.064   4.460  11.224  0.5812 -1.2150  1.6608
13193TIP3   OH260993   5.674   6.724  13.129 -0.2352  0.3302 -0.0846
13193TIP3    H160994   5.694   6.813  13.159  0.7383  0.4156 -0.9133
13193TIP3    H260995   5.753   6.697  13.081 -1.7401  0.2874 -2.7128
13194TIP3   OH260996   3.384   6.615  15.602  0.2634 -0.6519  0.3496
13194TIP3    H160997   3.372   6.614  15.507  1.4985 -2.0849  0.1716
13194TIP3    H260998   3.478   6.606  15.615 -0.0580 -2.7418  1.7124
13195TIP3   OH260999   6.456   0.902   3.240 -0.1140  0.9196  0.3741
13195TIP3    H161000   6.426   0.921   3.151  0.9747  0.4054 -0.1345
13195TIP3    H261001   6.547   0.874   3.228 -0.4958 -0.9727  1.4379
13196TIP3   OH261002   6.005   4.057  13.856 -0.1281 -0.2394  0.2975
13196TIP3    H161003   5.964   4.004  13.788  0.7051 -1.1738  0.5043
13196TIP3    H261004   6.001   4.147  13.822 -1.3701 -0.4497 -0.1437
13197TIP3   OH261005   0.126   2.528  16.383 -0.0290  0.4899 -0.8078
13197TIP3    H161006   0.139   2.608  16.332 -0.7793  0.8251 -0.4850
13197TIP3    H261007   0.214   2.506  16.415  0.6300 -0.3037 -3.0329
13198TIP3   OH261008   3.561   2.691   1.744  0.4857  0.2131 -0.1851
13198TIP3    H161009   3.469   2.710   1.729  0.8439  0.1706 -2.9726
13198TIP3    H261010   3.579   2.725   1.832 -1.8737  1.2987 -0.0559
13199TIP3   OH261011   4.947   3.134   3.728 -0.1092  0.0891  0.1282
13199TIP3    H161012   4.910   3.221   3.713  0.4744  0.2539 -0.4012
13199TIP3    H261013   4.889   3.075   3.681 -0.6016  0.1672  0.6219
13200TIP3   OH261014   1.743   3.193  13.700 -0.2073  0.1109  0.1164
13200TIP3    H161015   1.792   3.172  13.620  0.0728  1.9450 -0.2529
13200TIP3    H261016   1.736   3.110  13.747  0.2215 -0.8763 -1.4859
13201TIP3   OH261017   3.263   4.226   6.075 -0.0401  0.2431  0.0873
13201TIP3    H161018   3.270   4.217   6.170 -2.7044  2.0360  0.5666
13201TIP3    H261019   3.175   4.259   6.060  1.1045  2.4297 -2.8468
13202TIP3   OH261020   4.549   6.397  12.807 -0.0817  0.3890 -0.4624
13202TIP3    H161021   4.619   6.447  12.848 -1.4879  1.1350  1.1457
13202TIP3    H261022   4.521   6.450  12.732  0.7118  0.3174 -0.8181
13203TIP3   OH261023   3.788   4.023   0.734 -0.3262 -0.2076 -0.2687
13203TIP3    H161024   3.876   4.039   0.701 -0.5025 -1.0916 -1.2249
13203TIP3    H261025   3.756   3.948   0.683 -1.2944 -0.4694  0.6825
13204TIP3   OH261026   2.912   4.698   0.832  0.3012  0.1345  0.2804
13204TIP3    H161027   2.827   4.659   0.854  0.3342 -0.4469 -0.5778
13204TIP3    H261028   2.890   4.778   0.783  0.2336 -0.5735 -0.8811
13205TIP3   OH261029   3.113   3.545  14.642  0.2535  0.2329 -0.1034
13205TIP3    H161030   3.151   3.620  14.688  0.3247 -0.2930  0.7156
13205TIP3    H261031   3.109   3.572  14.551 -0.7023  1.6430  0.3232
13206TIP3   OH261032   1.054   4.339  12.516  0.0162 -0.1370 -0.0146
13206TIP3    H161033   1.072   4.386  12.435  0.3558 -1.6020 -0.8268
13206TIP3    H261034   0.965   4.305  12.504  0.1666 -0.5807  0.0932
13207TIP3   OH261035   6.563   5.049  14.980 -0.1374 -0.7355  0.1725
13207TIP3    H161036   6.580   5.065  15.073  0.2111  1.3466 -0.1978
13207TIP3    H261037   6.632   5.097  14.934 -2.3481  1.3529 -1.2025
13208TIP3   OH261038   6.756   4.879   2.568  0.2753  0.1580  0.0872
13208TIP3    H161039   6.668   4.882   2.530  0.4552  0.8025 -0.2908
13208TIP3    H261040   6.813   4.861   2.493  0.4750 -0.1892  0.3200
13209TIP3   OH261041   1.964   1.936   5.855 -0.0886 -0.3435  0.1357
13209TIP3    H161042   1.871   1.960   5.860 -0.1440  0.1355 -2.1272
13209TIP3    H261043   2.001   1.999   5.792  1.9231 -0.1359  1.4530
13210TIP3   OH261044   0.252   1.457  11.274 -0.1163 -0.1657  0.4941
13210TIP3    H161045   0.309   1.381  11.285 -1.3576 -1.3684 -1.0622
13210TIP3    H261046   0.260   1.481  11.182  0.2140  1.6029  0.9335
13211TIP3   OH261047   3.737   3.214   1.693  0.2789  0.3376  0.1187
13211TIP3    H161048   3.816   3.205   1.746 -0.5419 -0.4888  1.2413
13211TIP3    H261049   3.763   3.188   1.605  1.4832  1.0231  0.2590
13212TIP3   OH261050   1.156   0.887   4.142  0.1475  0.3466 -0.5925
13212TIP3    H161051   1.238   0.910   4.099 -1.2179  4.0571 -1.6965
13212TIP3    H261052   1.096   0.959   4.118 -3.6813 -2.5145 -0.5506
13213TIP3   OH261053   5.269   0.773   1.256 -0.0083 -0.1371  0.1652
13213TIP3    H161054   5.358   0.773   1.222 -0.0211 -0.3014  0.1273
13213TIP3    H261055   5.226   0.701   1.210  0.0596 -0.5621  0.7507
13214TIP3   OH261056   0.890   3.363   3.334  0.5008 -0.3357  0.3034
13214TIP3    H161057   0.814   3.311   3.360 -0.0964  1.2131  1.8054
13214TIP3    H261058   0.944   3.369   3.413  0.0353  2.1310  0.5224
13215TIP3   OH261059   6.489   2.379   5.432 -0.0266  0.5519 -0.7756
13215TIP3    H161060   6.413   2.408   5.382 -1.2198 -0.8600  0.1696
13215TIP3    H261061   6.562   2.384   5.369 -1.0185  1.2556 -1.8986
13216TIP3   OH261062   1.604   5.467   2.572  0.2690  0.5246 -0.0205
13216TIP3    H161063   1.568   5.389   2.615  0.6339  0.4819  0.2208
13216TIP3    H261064   1.695   5.470   2.602 -0.1541  1.9492  1.2805
13217TIP3   OH261065   5.927   3.790  14.657  0.1065  0.1853 -0.0487
13217TIP3    H161066   5.977   3.803  14.738  0.2492 -1.4097  0.1416
13217TIP3    H261067   5.985   3.738  14.602 -0.0707  1.0951 -1.1227
13218TIP3   OH261068   5.090   1.975   4.387  0.4142 -0.0045  0.4937
13218TIP3    H161069   5.102   1.924   4.467  0.1398 -1.0773 -0.1302
13218TIP3    H261070   5.098   1.911   4.316  2.4303  1.1886 -0.4622
13219TIP3   OH261071   5.364   5.445  11.724 -0.4773 -0.1887  0.3581
13219TIP3    H161072   5.389   5.528  11.684 -1.0382 -0.3158 -0.2738
13219TIP3    H261073   5.340   5.389  11.650 -3.8079  0.3033  0.9023
13220TIP3   OH261074   2.352   2.375   4.647 -0.2137  0.4340  0.6259
13220TIP3    H161075   2.400   2.397   4.567 -0.7563  0.7614  0.3848
13220TIP3    H261076   2.357   2.454   4.701  2.1661 -0.5304  1.9633
13221TIP3   OH261077   4.684   5.482   5.854  0.5377  0.2501 -0.4735
13221TIP3    H161078   4.770   5.465   5.892  1.4881  1.8456 -1.7754
13221TIP3    H261079   4.635   5.524   5.924  0.9339 -0.3213  0.1636
13222TIP3   OH261080   0.225   1.360   1.956 -0.0306  0.4606 -0.1260
13222TIP3    H161081   0.131   1.358   1.937  0.1267  3.9172 -2.0146
13222TIP3    H261082   0.262   1.295   1.896 -1.0066  0.7884 -1.1241
13223TIP3   OH261083   6.737   6.395   4.499 -0.0557  0.3327  0.5070
13223TIP3    H161084   6.730   6.361   4.588  0.7859  0.9643  0.8197
13223TIP3    H261085   6.790   6.474   4.507  2.0547 -0.8605 -0.8661
13224TIP3   OH261086   1.845   1.143  13.476  0.2956 -0.0725 -0.0153
13224TIP3    H161087   1.894   1.197  13.414  1.8083 -0.0360  1.1537
13224TIP3    H261088   1.893   1.061  13.480  1.9395  0.8687  3.0978
13225TIP3   OH261089   3.059   0.111   3.980 -0.6324  0.1412  0.1315
13225TIP3    H161090   3.048   0.028   3.934  0.4766  0.2491 -0.3639
13225TIP3    H261091   3.134   0.098   4.037 -0.3634  0.8355 -0.0458
13226TIP3   OH261092   1.500   6.742  11.636  1.1117 -0.4909  0.4274
13226TIP3    H161093   1.409   6.713  11.638  0.2919  1.9154 -0.0948
13226TIP3    H261094   1.549   6.663  11.613 -0.7219 -2.0139  1.4292
13227TIP3   OH261095   0.293   0.127  16.989 -0.5638 -0.4545 -0.1371
13227TIP3    H161096   0.233   0.160  17.057  1.3976  1.1585  0.9053
13227TIP3    H261097   0.379   0.130  17.030  0.7223  0.6870 -2.7422
13228TIP3   OH261098   0.981   4.707   5.567 -0.2268 -0.2344 -0.0425
13228TIP3    H161099   0.886   4.691   5.565 -0.4632  1.0969 -1.3367
13228TIP3    H261100   0.997   4.765   5.493  1.2594  1.4182  1.4726
13229TIP3   OH261101   0.719   0.617   0.265  0.2110  0.1689  0.1207
13229TIP3    H161102   0.713   0.692   0.207  0.9935 -1.1630 -1.7766
13229TIP3    H261103   0.759   0.548   0.212  1.0135 -1.1164  2.2564
13230TIP3   OH261104   1.093   6.707  15.423 -0.4577 -0.1014 -0.0767
13230TIP3    H161105   1.150   6.672  15.491 -3.0917  0.0047  2.3572
13230TIP3    H261106   1.135   6.789  15.396  1.3487 -0.8330  0.3816
13231TIP3   OH261107   6.573   0.198  10.729  0.4635 -0.7358  0.3092
13231TIP3    H161108   6.607   0.285  10.746  1.4451 -1.0271 -0.0907
13231TIP3    H261109   6.479   0.205  10.746  0.0324  1.0794 -2.2503
13232TIP3   OH261110   2.221   3.020  12.280  0.3983 -0.5916  0.0922
13232TIP3    H161111   2.233   2.927  12.301 -1.6493 -1.6474 -2.6820
13232TIP3    H261112   2.263   3.030  12.194  1.6236  1.4124  0.8744
13233TIP3   OH261113   5.237   1.680   0.311  0.6348  0.0723  0.0929
13233TIP3    H161114   5.323   1.720   0.294  0.5477  0.7230  1.1181
13233TIP3    H261115   5.256   1.588   0.326  1.1586  0.2105  0.3155
13234TIP3   OH261116   1.640   2.254   2.818  0.3671  0.1894 -0.0128
13234TIP3    H161117   1.582   2.330   2.827  0.2428 -0.1107  2.3349
13234TIP3    H261118   1.582   2.181   2.798  0.1247  0.2031  0.6183
13235TIP3   OH261119   4.724   5.285  15.865 -0.2381 -0.3249  0.3056
13235TIP3    H161120   4.650   5.336  15.898  1.1314  1.3321  0.9561
13235TIP3    H261121   4.758   5.238  15.942  0.7041  0.6601  0.5184
13236TIP3   OH261122   1.385   5.384  15.538 -0.0099 -0.2485 -0.2884
13236TIP3    H161123   1.437   5.381  15.458 -0.9816  1.0514 -1.0038
13236TIP3    H261124   1.309   5.438  15.516 -1.4276 -1.6771  0.8695
13237TIP3   OH261125   4.348   5.995   3.738 -0.4729  0.0587 -0.1547
13237TIP3    H161126   4.442   6.012   3.732 -0.6227  0.7484 -0.6299
13237TIP3    H261127   4.309   6.050   3.671 -1.3082  0.4914  0.6640
13238TIP3   OH261128   4.302   0.841   4.187 -0.2310  0.1905  0.4148
13238TIP3    H161129   4.376   0.808   4.136 -0.8203 -0.0780 -0.2954
13238TIP3    H261130   4.318   0.935   4.195 -1.1017  0.6215 -2.0250
13239TIP3   OH261131   5.741   3.070   3.098  0.2598 -0.8775  0.8063
13239TIP3    H161132   5.676   3.012   3.059  0.1140 -0.6885  0.7683
13239TIP3    H261133   5.821   3.017   3.100  0.4414 -0.6667 -0.3555
13240TIP3   OH261134   2.406   5.721   1.542  0.6722  0.6226 -0.0935
13240TIP3    H161135   2.335   5.692   1.600 -0.8703  1.0481 -1.6722
13240TIP3    H261136   2.388   5.815   1.529  1.4116  0.6891 -0.6743
13241TIP3   OH261137   1.152   3.611   3.711 -0.0273  0.2550 -0.5181
13241TIP3    H161138   1.094   3.542   3.744  0.7195 -0.8006 -1.3526
13241TIP3    H261139   1.223   3.615   3.775  0.0806  0.0297 -0.6208
13242TIP3   OH261140   6.785   3.741  11.442 -0.2054 -0.2779  0.2744
13242TIP3    H161141   6.810   3.689  11.365 -1.4899 -1.6252  0.7230
13242TIP3    H261142   6.869   3.764  11.483  0.5132  0.7237 -1.6604
13243TIP3   OH261143   4.823   2.392   1.750  0.4135  0.2966  0.0097
13243TIP3    H161144   4.817   2.325   1.682  0.4519  0.3355 -0.0314
13243TIP3    H261145   4.910   2.430   1.739 -0.0515  1.1837 -0.7351
13244TIP3   OH261146   0.343   0.504  13.121  0.1746  0.6236 -0.2839
13244TIP3    H161147   0.404   0.480  13.050  0.6737  0.5067  0.1755
13244TIP3    H261148   0.388   0.574  13.168  0.5674 -0.3786  0.8755
13245TIP3   OH261149   5.325   5.272  11.940  0.6605 -0.0070  0.3872
13245TIP3    H161150   5.332   5.331  11.865  1.7613  1.4734  1.5964
13245TIP3    H261151   5.394   5.207  11.925 -0.3615 -0.8676 -0.7973
13246TIP3   OH261152   1.635   2.275  11.689  0.1389 -0.1093 -0.1459
13246TIP3    H161153   1.553   2.244  11.727  0.1011 -0.1790 -0.2831
13246TIP3    H261154   1.636   2.239  11.601  0.3533 -0.1716 -0.1198
13247TIP3   OH261155   2.723   3.190   4.330 -0.4551 -0.4136  0.1346
13247TIP3    H161156   2.759   3.274   4.302 -2.0104  0.5462  0.9285
13247TIP3    H261157   2.639   3.211   4.369 -1.6047 -2.5044 -1.0150
13248TIP3   OH261158   2.497   4.803   5.198 -0.1907  0.1362 -0.5708
13248TIP3    H161159   2.436   4.732   5.218 -1.4307  1.7056  1.8043
13248TIP3    H261160   2.573   4.784   5.252 -0.8671  0.9760  0.7323
13249TIP3   OH261161   3.849   2.489  11.986 -0.0888  0.1485  0.6709
13249TIP3    H161162   3.793   2.519  12.058  0.0315 -0.7027  1.1333
13249TIP3    H261163   3.827   2.396  11.976 -0.4925  0.3694 -0.7557
13250TIP3   OH261164   0.021   0.326   1.960 -0.1519 -0.1525  0.0584
13250TIP3    H161165  -0.021   0.407   1.988  0.6960  0.6980 -1.0642
13250TIP3    H261166   0.115   0.340   1.977 -0.1263 -1.4899  1.2444
13251TIP3   OH261167   5.693   4.197  15.728 -0.0964  0.3573 -0.0396
13251TIP3    H161168   5.679   4.223  15.819  0.0570 -0.8921  0.3619
13251TIP3    H261169   5.784   4.168  15.724  0.1034  1.0574 -0.7609
13252TIP3   OH261170   6.033   1.486   1.726 -0.3202  0.3026  0.4046
13252TIP3    H161171   6.085   1.432   1.667 -1.0130 -0.3165  0.3502
13252TIP3    H261172   6.077   1.478   1.811  2.4342  3.4879 -0.4807
13253TIP3   OH261173   5.985   0.597  16.731 -0.1936  0.2663  0.0940
13253TIP3    H161174   5.902   0.589  16.778 -0.0195  1.0709  0.5583
13253TIP3    H261175   5.959   0.620  16.642 -0.4783  0.3953  0.2056
13254TIP3   OH261176   2.681   4.510   3.644  0.3247 -0.1685 -0.0664
13254TIP3    H161177   2.703   4.529   3.735 -0.9155 -1.5170  0.5572
13254TIP3    H261178   2.650   4.594   3.609 -1.1134 -0.0449  1.3789
13255TIP3   OH261179   2.606   0.473  11.928  0.0059  0.4012 -0.8155
13255TIP3    H161180   2.670   0.426  11.874 -0.3815 -0.5978 -0.4223
13255TIP3    H261181   2.535   0.410  11.941  0.1691  0.5671  1.0090
13256TIP3   OH261182   2.473   4.544  12.085 -0.3789  0.6084  0.1717
13256TIP3    H161183   2.438   4.501  12.006  1.9581 -0.0441 -0.6004
13256TIP3    H261184   2.431   4.630  12.087 -0.3539  0.7163 -1.9257
13257TIP3   OH261185   1.974   5.047   1.437  0.1615  0.1335 -0.6573
13257TIP3    H161186   1.907   5.066   1.502  0.3776  1.2396 -0.7337
13257TIP3    H261187   1.954   4.959   1.406 -0.9769  0.2780 -0.3494
13258TIP3   OH261188   4.199   3.333   0.894 -0.1259 -0.0164 -0.7345
13258TIP3    H161189   4.225   3.407   0.840  2.1451  0.3147  0.6569
13258TIP3    H261190   4.279   3.310   0.943 -1.6542 -1.2014  1.3792
13259TIP3   OH261191   1.218   0.132  15.277  0.4460 -0.0567 -0.1078
13259TIP3    H161192   1.280   0.202  15.257  0.9146 -0.1432  0.9815
13259TIP3    H261193   1.264   0.052  15.249  0.7383 -0.1010  0.4918
13260TIP3   OH261194   3.484   6.533  14.508  0.0572  0.5028 -0.0613
13260TIP3    H161195   3.526   6.505  14.590  1.1915 -0.4262 -0.9165
13260TIP3    H261196   3.558   6.550  14.449 -0.7484 -0.4724 -1.4011
13261TIP3   OH261197   5.703   4.947  15.595  0.2010  0.3978  0.0740
13261TIP3    H161198   5.660   4.871  15.556  0.7867  0.9048 -1.6189
13261TIP3    H261199   5.635   5.014  15.599 -0.6326 -0.4552  2.5851
13262TIP3   OH261200   2.592   2.994  11.888 -0.2557 -0.3206  0.4430
13262TIP3    H161201   2.667   3.053  11.888 -0.3191 -0.2276 -0.1957
13262TIP3    H261202   2.588   2.962  11.798  0.0272 -1.6169  0.8668
13263TIP3   OH261203   2.248   3.981  16.919 -0.4326  0.1095 -0.2680
13263TIP3    H161204   2.279   4.036  16.848 -0.8170 -0.2728 -0.7354
13263TIP3    H261205   2.227   3.897  16.878  0.6427 -0.5722  0.5220
13264TIP3   OH261206   3.246   1.476   4.954  0.1539  0.1140  0.0520
13264TIP3    H161207   3.322   1.418   4.942 -0.8763 -1.0220 -1.4282
13264TIP3    H261208   3.177   1.435   4.901 -1.7416  0.6711  1.9661
13265TIP3   OH261209   1.485   5.060   4.479 -0.1790  0.4215  0.1392
13265TIP3    H161210   1.398   5.023   4.495  0.4140 -0.1896  2.1651
13265TIP3    H261211   1.523   5.072   4.566  0.7906  3.1428 -0.5349
13266TIP3   OH261212   0.258   4.488  11.609  0.0048  0.2517 -0.4323
13266TIP3    H161213   0.310   4.564  11.636  0.7221 -0.4050  0.0938
13266TIP3    H261214   0.320   4.415  11.610 -0.9986 -0.6327  0.6100
13267TIP3   OH261215   6.169   0.685  14.917  0.0346 -0.0955 -0.2209
13267TIP3    H161216   6.176   0.611  14.977  0.9807 -0.3225 -0.5959
13267TIP3    H261217   6.252   0.731  14.926 -0.1763  0.3898 -0.6876
13268TIP3   OH261218   2.375   4.592   2.092 -0.6644  0.3038  0.4857
13268TIP3    H161219   2.441   4.590   2.023  0.4232  1.9110  1.3966
13268TIP3    H261220   2.293   4.569   2.048  0.0554  0.8934 -1.2508
13269TIP3   OH261221   4.843   0.840   2.998  0.7054 -0.0148 -0.2263
13269TIP3    H161222   4.929   0.837   3.040 -0.1431  0.1943  1.6174
13269TIP3    H261223   4.825   0.749   2.973  0.3093 -0.5879  1.9304
13270TIP3   OH261224   2.806   5.273   2.478 -0.4110  0.7432  0.0499
13270TIP3    H161225   2.843   5.331   2.544 -0.0678 -0.7902  1.2755
13270TIP3    H261226   2.725   5.240   2.517 -0.9729  0.9463 -0.9238
13271TIP3   OH261227   5.068   2.997  12.806  0.3233 -0.1301 -0.2643
13271TIP3    H161228   5.006   2.926  12.820 -1.4003  1.1993 -0.8058
13271TIP3    H261229   5.108   3.012  12.892 -0.6676 -0.5255  0.2768
13272TIP3   OH261230   5.800   2.589  16.114 -0.1354  0.1927  0.3356
13272TIP3    H161231   5.875   2.537  16.087  2.3011  1.7080  3.4855
13272TIP3    H261232   5.836   2.676  16.129 -2.6285  1.0881  1.6222
13273TIP3   OH261233   4.837   5.630   0.632  0.3950  0.3482 -0.0971
13273TIP3    H161234   4.747   5.659   0.645  1.2902  2.3391  2.3053
13273TIP3    H261235   4.854   5.570   0.704  1.4969  1.4058  0.5618
13274TIP3   OH261236   0.506   3.358  13.535 -0.0301 -0.1414  0.1781
13274TIP3    H161237   0.440   3.383  13.600  0.1729 -0.3424  0.4642
13274TIP3    H261238   0.590   3.383  13.575  0.2268 -1.7080  0.6918
13275TIP3   OH261239   1.639   6.182   4.414  0.6847  0.1613 -0.2054
13275TIP3    H161240   1.633   6.087   4.409 -0.0618  0.0807  1.4418
13275TIP3    H261241   1.706   6.198   4.480 -2.1575  0.6292  2.8362
13276TIP3   OH261242   3.498   3.162  13.967  0.2984 -0.4982  0.0842
13276TIP3    H161243   3.416   3.139  13.924 -0.5031 -1.8636  2.1662
13276TIP3    H261244   3.476   3.238  14.021  0.6714 -0.2485 -0.1142
13277TIP3   OH261245   1.603   6.568   1.098 -1.1599  0.0393  0.0831
13277TIP3    H161246   1.582   6.658   1.123 -0.1072  0.2919  0.1142
13277TIP3    H261247   1.560   6.514   1.165 -2.2171  0.4724 -0.2155
13278TIP3   OH261248   4.883   5.491   3.145 -0.0275 -0.2344  0.4209
13278TIP3    H161249   4.908   5.558   3.083  1.1183 -1.3199 -0.3349
13278TIP3    H261250   4.876   5.537   3.229 -0.2699  0.9911 -0.2484
13279TIP3   OH261251   5.129   2.265   0.662 -0.4891 -0.2126  0.4900
13279TIP3    H161252   5.152   2.181   0.701  0.2873 -1.6306 -2.7053
13279TIP3    H261253   5.057   2.298   0.716 -0.0886 -2.3532  2.4905
13280TIP3   OH261254   3.683   2.554   2.111 -0.2551  0.1429 -0.0763
13280TIP3    H161255   3.635   2.615   2.055 -1.2823 -1.3291 -0.8832
13280TIP3    H261256   3.747   2.514   2.052  1.3812  1.3977  0.7690
13281TIP3   OH261257   5.993   2.429  16.040 -0.5837  0.0345  0.3649
13281TIP3    H161258   5.980   2.366  15.970 -0.8878 -0.2324  0.6585
13281TIP3    H261259   6.027   2.377  16.113 -1.2221  0.1338  0.7440
13282TIP3   OH261260   3.592   4.801   6.215 -0.1443  0.0361  0.1050
13282TIP3    H161261   3.550   4.797   6.301 -0.5914 -0.2208 -0.1165
13282TIP3    H261262   3.674   4.847   6.230  0.0206 -0.4551  0.7656
13283TIP3   OH261263   3.310   2.845   5.912  0.3962  0.4662 -0.0653
13283TIP3    H161264   3.246   2.896   5.963  0.2882  0.5812 -0.3150
13283TIP3    H261265   3.315   2.761   5.958  1.8234  1.2708  1.3167
13284TIP3   OH261266   5.661   5.742   3.154  0.0394  0.5557  0.2314
13284TIP3    H161267   5.702   5.658   3.133 -1.4126  0.2498 -1.8025
13284TIP3    H261268   5.693   5.802   3.086 -0.2397  1.1870  0.6479
13285TIP3   OH261269   4.289   3.697   4.026  0.2796 -0.1714 -0.2186
13285TIP3    H161270   4.231   3.701   3.949  1.1525 -1.4968 -0.9713
13285TIP3    H261271   4.345   3.775   4.017 -0.2989  0.2415 -0.3521
13286TIP3   OH261272   4.630   6.348   2.442 -0.4547  0.2384  0.6858
13286TIP3    H161273   4.562   6.328   2.378 -1.5512  3.6810  0.6172
13286TIP3    H261274   4.596   6.314   2.525 -0.6036 -1.1438  0.0855
13287TIP3   OH261275   0.510   4.903   3.735  0.0691 -0.8080 -0.4447
13287TIP3    H161276   0.533   4.995   3.721  3.4774 -1.8665 -3.2746
13287TIP3    H261277   0.554   4.880   3.817 -0.6861 -0.0216  0.2079
13288TIP3   OH261278   0.791   1.171  13.622 -0.8794  0.0695 -0.8555
13288TIP3    H161279   0.876   1.184  13.664 -0.4929 -1.1827 -1.2090
13288TIP3    H261280   0.729   1.159  13.694 -0.3421 -1.3634 -0.6062
13289TIP3   OH261281   6.699   1.641   0.074  0.3629 -0.4335 -0.1092
13289TIP3    H161282   6.650   1.676  -0.001  2.1201 -0.2890 -1.2454
13289TIP3    H261283   6.705   1.547   0.057  0.0409 -0.5321  0.3028
13290TIP3   OH261284   3.634   3.660  11.320 -0.0715  0.0979 -0.4474
13290TIP3    H161285   3.613   3.574  11.283 -0.0195  0.5003 -1.4329
13290TIP3    H261286   3.570   3.720  11.280  0.1998  0.6029 -0.1379
13291TIP3   OH261287   0.825   0.510   4.647 -0.2111  0.1036 -0.2302
13291TIP3    H161288   0.773   0.438   4.610 -1.0919 -0.1478  1.3852
13291TIP3    H261289   0.826   0.577   4.578  2.1158 -2.0506 -2.4929
13292TIP3   OH261290   4.536   3.849  11.723  0.4405  0.1796  0.4498
13292TIP3    H161291   4.580   3.926  11.760  1.1557 -0.9309  2.0390
13292TIP3    H261292   4.554   3.854  11.630 -0.4583  2.5085  0.3139
13293TIP3   OH261293   2.360   0.325   5.133  0.3432 -0.3329  0.0784
13293TIP3    H161294   2.296   0.341   5.203 -0.1944 -1.4782 -0.1333
13293TIP3    H261295   2.438   0.374   5.160  0.0158 -0.4516  1.2773
13294TIP3   OH261296   3.358   5.486   2.668  0.0540  0.2451  0.4636
13294TIP3    H161297   3.393   5.570   2.699  1.5211 -0.6720  1.4288
13294TIP3    H261298   3.309   5.452   2.743 -0.3381  0.1453  0.1590
13295TIP3   OH261299   4.259   5.111   2.898  0.3746  0.1717  0.1113
13295TIP3    H161300   4.298   5.025   2.882  0.0676  0.4330 -2.4062
13295TIP3    H261301   4.165   5.093   2.905  0.4376  0.1562  1.0608
13296TIP3   OH261302   2.667   6.109  16.215 -0.0016 -0.5709 -0.1540
13296TIP3    H161303   2.696   6.105  16.124  1.0908 -0.0214  0.1441
13296TIP3    H261304   2.614   6.030  16.227  0.5463 -1.0941 -1.0280
13297TIP3   OH261305   2.077   6.434   1.037  0.1174 -0.0442  0.1979
13297TIP3    H161306   2.072   6.486   0.957  0.2509  0.0973  0.2797
13297TIP3    H261307   2.034   6.488   1.104 -0.2057 -0.2675  0.1664
13298TIP3   OH261308   6.054   1.710   0.659  0.0721 -0.3620  0.1485
13298TIP3    H161309   6.015   1.638   0.708 -0.0588 -0.3873  0.0076
13298TIP3    H261310   5.990   1.781   0.666  0.1989 -0.2612  0.2830
13299TIP3   OH261311   3.138   0.717   6.196  0.1960  0.5053 -0.3661
13299TIP3    H161312   3.070   0.748   6.256 -1.1046  1.5759 -2.2460
13299TIP3    H261313   3.123   0.623   6.189 -0.7775  0.6460 -0.3314
13300TIP3   OH261314   0.868   4.748   6.270  0.0416  0.8504 -0.3666
13300TIP3    H161315   0.947   4.745   6.215 -0.6621  3.1664 -1.6350
13300TIP3    H261316   0.897   4.716   6.355  1.7688 -0.5427 -1.4123
13301TIP3   OH261317   1.627   0.183  13.872 -0.4299 -0.2827 -0.3295
13301TIP3    H161318   1.592   0.094  13.877 -2.1889  0.3590 -0.4921
13301TIP3    H261319   1.658   0.192  13.782 -1.4091 -0.3406 -0.6816
13302TIP3   OH261320   1.921   3.088  16.610  0.1009 -0.0781  0.6211
13302TIP3    H161321   1.861   3.046  16.672  1.0406  1.3375  2.6041
13302TIP3    H261322   2.008   3.071  16.647  0.7819 -0.0928 -0.9184
13303TIP3   OH261323   2.904   0.879   0.927  0.8356 -0.1249 -0.4080
13303TIP3    H161324   2.960   0.932   0.871 -0.4647 -0.3410 -1.9661
13303TIP3    H261325   2.835   0.939   0.957  1.1815 -0.1616  0.5185
13304TIP3   OH261326   6.599   1.900  11.818  0.6747 -0.2900 -0.3097
13304TIP3    H161327   6.547   1.891  11.738 -1.0325  2.5607  0.3141
13304TIP3    H261328   6.536   1.887  11.888  1.3933  0.5864  0.5211
13305TIP3   OH261329   3.358   6.435   6.733  0.2854  0.2634 -0.0117
13305TIP3    H161330   3.306   6.408   6.658  1.1223  1.2010 -0.9682
13305TIP3    H261331   3.305   6.412   6.809  0.4016 -2.8946 -0.7449
13306TIP3   OH261332   1.662   2.768   6.391  0.1786  0.2718 -0.5802
13306TIP3    H161333   1.716   2.724   6.325 -0.0119 -0.4690 -0.2505
13306TIP3    H261334   1.681   2.861   6.378  1.3416  0.0492 -0.6448
13307TIP3   OH261335   4.023   4.401  12.231 -0.1186 -0.0582  0.3612
13307TIP3    H161336   4.081   4.477  12.221 -0.4079  0.3822  1.8015
13307TIP3    H261337   3.955   4.414  12.165  0.8706 -0.0826 -0.7013
13308TIP3   OH261338   5.494   0.338  10.422 -0.4736  0.4073 -0.4014
13308TIP3    H161339   5.415   0.286  10.405 -1.4852  2.2744 -1.7548
13308TIP3    H261340   5.488   0.412  10.361  2.3011  0.6647 -0.4975
13309TIP3   OH261341   2.448   4.192   3.817  0.5924 -0.5334  0.0589
13309TIP3    H161342   2.359   4.181   3.782  0.8356 -1.2530 -0.3728
13309TIP3    H261343   2.444   4.272   3.868 -0.0470  0.0044 -0.7977
13310TIP3   OH261344   4.699   4.113  15.337 -0.0087  0.2900  0.0566
13310TIP3    H161345   4.720   4.128  15.429  1.7946  0.9948 -0.4241
13310TIP3    H261346   4.744   4.183  15.290  2.7529 -2.3885 -1.6966
13311TIP3   OH261347   1.648   3.348  11.791 -0.0799 -0.5419 -0.6954
13311TIP3    H161348   1.725   3.403  11.805 -1.2297  1.3347 -1.3966
13311TIP3    H261349   1.663   3.272  11.847  1.2320  0.8406  0.9567
13312TIP3   OH261350   2.007   1.897  11.917 -0.0404 -0.3308  0.1613
13312TIP3    H161351   1.964   1.960  11.859 -0.1701  0.2052  0.8307
13312TIP3    H261352   1.978   1.922  12.005  1.4921 -0.0621  0.6140
13313TIP3   OH261353   5.396   3.664   4.464  0.3190  0.0905  0.0107
13313TIP3    H161354   5.473   3.705   4.503  0.5627  1.5165 -1.8519
13313TIP3    H261355   5.418   3.571   4.459  0.3332 -0.1702  2.9945
13314TIP3   OH261356   0.955   1.768  10.745  0.1907  0.4629 -0.3783
13314TIP3    H161357   1.044   1.734  10.736  0.5658  0.9711  1.1415
13314TIP3    H261358   0.952   1.843  10.686  0.5294  0.0260 -0.9716
13315TIP3   OH261359   2.576   0.754   0.571 -0.2217 -0.0201 -0.6177
13315TIP3    H161360   2.671   0.769   0.575 -0.2151 -0.3227  0.9789
13315TIP3    H261361   2.540   0.837   0.539  0.4767  0.6607  0.2881
13316TIP3   OH261362   4.701   1.077  14.285 -0.0135  0.9230  0.5316
13316TIP3    H161363   4.741   0.990  14.284 -0.7704  0.5701  0.4037
13316TIP3    H261364   4.654   1.080  14.368 -1.5070  0.4946 -0.2598
13317TIP3   OH261365   0.192   4.878  10.703 -0.3146 -0.2174 -0.5105
13317TIP3    H161366   0.109   4.898  10.660  1.0017  2.0549 -2.2045
13317TIP3    H261367   0.171   4.881  10.797 -2.2492 -0.3375 -0.8856
13318TIP3   OH261368   3.291   6.243  12.651 -0.2255  0.0701  0.0029
13318TIP3    H161369   3.239   6.262  12.573 -0.7730  1.5661  0.7065
13318TIP3    H261370   3.362   6.307  12.649  2.9001 -3.0714 -1.9573
13319TIP3   OH261371   5.854   3.744   4.942  0.3358  0.0116 -0.1822
13319TIP3    H161372   5.899   3.746   5.026  0.3653  0.8776 -0.2021
13319TIP3    H261373   5.817   3.832   4.933 -2.0928 -0.9248  0.2026
13320TIP3   OH261374   0.327   0.904  12.991 -0.1606  0.1188  0.0299
13320TIP3    H161375   0.369   0.987  13.016 -0.7433  0.6404 -0.6779
13320TIP3    H261376   0.260   0.891  13.058  0.7132 -0.4079  0.8218
13321TIP3   OH261377   6.565   3.652  11.783  0.2144 -0.1036  0.1983
13321TIP3    H161378   6.519   3.722  11.737  0.2682  0.4322  0.9443
13321TIP3    H261379   6.578   3.584  11.716 -2.6233 -0.7721  0.1912
13322TIP3   OH261380   4.744   2.009  15.231  0.4584  0.1228 -0.1940
13322TIP3    H161381   4.774   2.053  15.151 -1.2749  0.8119 -0.5012
13322TIP3    H261382   4.726   2.081  15.292  0.8961 -0.3581  0.5222
13323TIP3   OH261383   0.922   5.913   4.668  0.5392 -0.0905  0.1804
13323TIP3    H161384   1.006   5.908   4.715 -0.3109  2.0065  2.1333
13323TIP3    H261385   0.932   5.987   4.609  0.0147  0.2683  0.5391
13324TIP3   OH261386   3.940   0.658   5.759  0.4895  0.1427 -0.1666
13324TIP3    H161387   4.018   0.653   5.704  1.1148 -0.9156  0.7734
13324TIP3    H261388   3.928   0.569   5.792 -2.0497 -0.1336 -1.5083
13325TIP3   OH261389   5.131   5.906   3.265 -0.0553  0.1173 -0.4843
13325TIP3    H161390   5.190   5.977   3.243 -0.0699 -0.1289 -1.3452
13325TIP3    H261391   5.074   5.942   3.333  1.0340  0.3711  0.3159
13326TIP3   OH261392   3.250   6.307   0.646 -0.0025 -0.0546  0.1778
13326TIP3    H161393   3.240   6.385   0.700 -0.5040  1.5764 -2.1316
13326TIP3    H261394   3.308   6.250   0.697 -0.7915  1.1622  2.5768
13327TIP3   OH261395   2.437   0.755  15.686  0.0841 -0.2408  0.2145
13327TIP3    H161396   2.377   0.792  15.751  0.0223  0.6523 -0.3196
13327TIP3    H261397   2.473   0.832  15.641  0.4246 -0.8235 -0.5346
13328TIP3   OH261398   6.025   6.531   4.633 -0.4872  0.6831 -0.1647
13328TIP3    H161399   6.051   6.439   4.634 -0.3439  0.7207 -0.2725
13328TIP3    H261400   5.998   6.550   4.722  0.0233  0.6891 -0.0104
13329TIP3   OH261401   0.343   5.276  11.401 -0.0205 -0.3929 -0.1409
13329TIP3    H161402   0.370   5.342  11.465  1.9049 -1.1484 -0.1155
13329TIP3    H261403   0.378   5.308  11.317 -3.3452  1.0987 -1.1355
13330TIP3   OH261404   4.640   4.107   2.663 -0.0962  0.5093 -0.4345
13330TIP3    H161405   4.584   4.184   2.672 -2.6830 -1.3233  0.1673
13330TIP3    H261406   4.638   4.086   2.569 -0.5482  0.3907 -0.4016
13331TIP3   OH261407   4.112   0.848   4.771 -0.3373  0.1877  0.3434
13331TIP3    H161408   4.082   0.938   4.787  2.8986  1.5603 -0.4169
13331TIP3    H261409   4.141   0.849   4.680 -0.1198 -1.6199  0.3657
13332TIP3   OH261410   2.872   6.459  11.250 -0.3114  0.5476  0.3359
13332TIP3    H161411   2.796   6.463  11.308 -0.2095  1.1053  0.4424
13332TIP3    H261412   2.890   6.551  11.229 -0.4522  0.3496 -0.7122
13333TIP3   OH261413   0.267   3.477  11.394  0.3998 -0.2901  0.1851
13333TIP3    H161414   0.284   3.383  11.390  1.7653 -0.0345 -2.5091
13333TIP3    H261415   0.213   3.494  11.316  0.5404  1.2098  0.3958
13334TIP3   OH261416   4.853   2.386  16.791 -1.2328 -0.0850 -0.5600
13334TIP3    H161417   4.854   2.448  16.864 -1.5896  1.0167 -1.4468
13334TIP3    H261418   4.880   2.439  16.715  1.3326 -1.6832 -0.8823
13335TIP3   OH261419   5.108   5.821   1.060  0.8905  0.4505  0.2295
13335TIP3    H161420   5.091   5.810   0.967  0.5087  0.2405  0.3226
13335TIP3    H261421   5.153   5.740   1.086  0.5512  0.2935  0.3317
13336TIP3   OH261422   2.207   4.316  15.626  0.5909  0.6386 -0.1883
13336TIP3    H161423   2.139   4.306  15.692  0.0437  0.6580 -0.7399
13336TIP3    H261424   2.178   4.391  15.574  1.2274  0.8809 -0.1991
13337TIP3   OH261425   0.520   3.998  15.798  0.3370  0.3245 -0.0509
13337TIP3    H161426   0.583   4.050  15.849  1.7797 -1.7510  0.4036
13337TIP3    H261427   0.574   3.934  15.752 -1.2646  0.0462 -1.6438
13338TIP3   OH261428   1.327   4.943   1.931 -0.3182  0.1786 -0.1250
13338TIP3    H161429   1.284   4.938   2.016 -0.6547  1.7180 -0.1759
13338TIP3    H261430   1.274   5.005   1.880  0.1310 -0.3678 -1.3022
13339TIP3   OH261431   4.798   1.159   1.140 -0.2009  0.1599  0.1830
13339TIP3    H161432   4.843   1.101   1.079  1.1495  1.6356 -0.2958
13339TIP3    H261433   4.713   1.118   1.154  0.3545 -1.4272 -0.8499
13340TIP3   OH261434   4.147   5.768   3.260  0.1903  0.1835  0.2567
13340TIP3    H161435   4.074   5.706   3.261  0.1308  0.2597  0.9034
13340TIP3    H261436   4.202   5.739   3.187  0.1370 -0.5945  0.5207
13341TIP3   OH261437   2.622   3.721  12.803  0.3220  0.0152 -0.3424
13341TIP3    H161438   2.605   3.709  12.710 -2.8769  0.1312  0.1276
13341TIP3    H261439   2.646   3.814  12.811 -1.6801  0.6248 -0.8493
13342TIP3   OH261440   4.753   0.122   5.873  0.4018  0.3367 -0.0528
13342TIP3    H161441   4.840   0.161   5.861  0.0932  1.0260 -0.1035
13342TIP3    H261442   4.712   0.175   5.942 -0.5120  0.9625 -1.0361
13343TIP3   OH261443   0.029   1.709   5.913  0.3475 -0.0909 -0.2754
13343TIP3    H161444   0.100   1.645   5.912  1.1981  0.8066  0.4750
13343TIP3    H261445   0.072   1.792   5.935 -0.6181  0.8827 -1.8518
13344TIP3   OH261446   5.456   5.688  11.350 -0.8473  0.0471  0.2302
13344TIP3    H161447   5.397   5.758  11.321 -1.8447 -0.3541  1.2381
13344TIP3    H261448   5.466   5.632  11.274  1.0884  1.9768 -1.0580
13345TIP3   OH261449   3.280   5.056  16.779  0.5805 -0.2498 -0.3258
13345TIP3    H161450   3.268   5.030  16.870  1.9561  2.0150  0.6105
13345TIP3    H261451   3.195   5.043  16.738 -1.0838  1.7252  2.1758
13346TIP3   OH261452   0.621   4.478   2.423 -0.8999  0.2971 -0.3184
13346TIP3    H161453   0.692   4.437   2.373 -1.7719 -0.6022 -0.8577
13346TIP3    H261454   0.589   4.548   2.367 -2.1750 -0.9950 -1.2827
13347TIP3   OH261455   4.280   1.902   2.465 -0.4409 -0.2897 -0.8794
13347TIP3    H161456   4.287   1.820   2.416 -0.0333 -1.0620  0.4383
13347TIP3    H261457   4.186   1.916   2.475 -0.5109 -0.5785 -1.1372
13348TIP3   OH261458   4.778   3.843   3.144 -0.3734  0.1192  0.1723
13348TIP3    H161459   4.698   3.881   3.180 -0.8622  0.0759 -0.8413
13348TIP3    H261460   4.752   3.756   3.112 -0.6623  1.1972 -2.8110
13349TIP3   OH261461   1.121   5.442   4.192  0.6659  0.5273 -0.5289
13349TIP3    H161462   1.212   5.471   4.197  0.8839 -0.0684 -1.0127
13349TIP3    H261463   1.090   5.474   4.107  1.0345 -0.9700 -1.2656
13350TIP3   OH261464   3.931   2.993  13.332 -0.0232 -0.5367 -0.2270
13350TIP3    H161465   4.020   2.961  13.317 -0.5064 -2.0075 -0.2135
13350TIP3    H261466   3.931   3.022  13.424  0.5682 -0.0574 -0.3771
13351TIP3   OH261467   2.620   6.357  12.823  0.1306  0.6986  0.0293
13351TIP3    H161468   2.648   6.435  12.776  1.6050  0.6141  0.7186
13351TIP3    H261469   2.664   6.363  12.907 -0.5840 -0.3507  0.4948
13352TIP3   OH261470   3.602   4.318  14.692 -0.6043  0.5870  0.0094
13352TIP3    H161471   3.615   4.269  14.774 -1.7165 -1.0427 -0.7257
13352TIP3    H261472   3.557   4.398  14.719 -2.3500 -0.6244  0.8797
13353TIP3   OH261473   0.145   5.604  12.568 -0.8995 -0.7154 -0.0993
13353TIP3    H161474   0.120   5.597  12.660  5.2130  0.2285  2.1348
13353TIP3    H261475   0.156   5.698  12.553 -0.0340 -0.9521 -1.1326
13354TIP3   OH261476   2.748   1.180   3.923  0.3336 -0.0841 -1.1329
13354TIP3    H161477   2.832   1.225   3.911 -0.6886  2.1177 -0.4656
13354TIP3    H261478   2.773   1.090   3.946  2.5550  0.7370  0.0266
13355TIP3   OH261479   2.198   4.051  15.549 -0.2395  0.8152  0.0389
13355TIP3    H161480   2.198   4.141  15.581  0.0393  0.6279  0.5697
13355TIP3    H261481   2.234   4.057  15.460 -1.2707  1.3709 -0.3598
13356TIP3   OH261482   4.338   2.520   2.257  0.8105 -0.0015 -0.4517
13356TIP3    H161483   4.368   2.509   2.167 -1.2255 -2.0595 -0.9636
13356TIP3    H261484   4.295   2.437   2.278  0.9526  0.5359  2.3318
13357TIP3   OH261485   4.060   1.298   1.806 -0.2870 -0.2698  0.1592
13357TIP3    H161486   3.978   1.252   1.825  0.4254 -2.0790 -0.9112
13357TIP3    H261487   4.060   1.309   1.711 -0.1293  1.4403  0.3216
13358TIP3   OH261488   4.144   3.259  12.594 -0.7614 -0.0050  0.3853
13358TIP3    H161489   4.054   3.285  12.612 -1.4014 -0.9971 -1.1768
13358TIP3    H261490   4.137   3.185  12.535  1.0961  0.5834 -0.6881
13359TIP3   OH261491   5.510   1.424  11.874 -0.1528  0.1549 -0.2063
13359TIP3    H161492   5.521   1.329  11.863  1.7470  0.3215 -0.1249
13359TIP3    H261493   5.428   1.433  11.922 -0.0456 -1.4883  0.3551
13360TIP3   OH261494   3.119   1.181   0.942  0.3382  0.6584 -0.1265
13360TIP3    H161495   3.090   1.131   0.865  0.2861 -0.6036  0.6826
13360TIP3    H261496   3.182   1.124   0.986  1.9236  2.1879 -0.2911
13361TIP3   OH261497   3.649   4.410   3.878  0.0482 -0.2653 -0.6370
13361TIP3    H161498   3.554   4.402   3.885  0.0274 -1.4231 -1.8496
13361TIP3    H261499   3.672   4.479   3.940 -1.7447  1.0811 -1.3987
13362TIP3   OH261500   0.169   2.730   3.339  0.4272 -0.0269  0.3499
13362TIP3    H161501   0.198   2.641   3.320  0.3304 -0.1342  0.6825
13362TIP3    H261502   0.144   2.766   3.254  2.6876  0.5046 -0.1457
13363TIP3   OH261503   4.612   0.143   1.728 -0.6912 -0.5885 -0.4612
13363TIP3    H161504   4.537   0.187   1.768 -0.1910 -1.2155  1.2228
13363TIP3    H261505   4.642   0.082   1.794  1.7302  0.1210 -0.8240
13364TIP3   OH261506   1.214   1.793  11.049  0.3107  0.2610 -0.0588
13364TIP3    H161507   1.189   1.702  11.039 -0.8240  0.3548  1.6062
13364TIP3    H261508   1.308   1.795  11.027  0.4979 -1.4074  0.4929
13365TIP3   OH261509   0.576   4.835  16.869 -0.2138 -0.4305  0.9576
13365TIP3    H161510   0.614   4.922  16.853 -0.1152 -0.5168  0.7129
13365TIP3    H261511   0.550   4.837  16.961 -1.2010  0.2418  0.6885
13366TIP3   OH261512   0.989   2.760   3.866 -1.1308  0.5347  0.5206
13366TIP3    H161513   1.009   2.692   3.803 -1.9532 -0.7109  1.5682
13366TIP3    H261514   0.939   2.825   3.817 -2.6922 -0.9175  0.0953
13367TIP3   OH261515   2.654   3.443  12.076 -0.6948 -0.3592  0.2179
13367TIP3    H161516   2.613   3.514  12.028  1.0315 -0.5185 -1.6501
13367TIP3    H261517   2.711   3.486  12.140 -1.0718 -0.1046  0.3851
13368TIP3   OH261518   0.116   0.294  16.237  0.3612 -0.3357 -0.6710
13368TIP3    H161519   0.114   0.343  16.320  0.9887 -2.1036  0.4537
13368TIP3    H261520   0.056   0.221  16.251  0.6443 -0.7763 -1.6916
13369TIP3   OH261521   5.145   4.032   1.972  0.2856 -0.7303 -0.0958
13369TIP3    H161522   5.076   4.020   2.036  0.5624 -0.0541  0.3434
13369TIP3    H261523   5.184   3.946   1.962 -0.6957 -1.1462 -0.4454
13370TIP3   OH261524   0.348   2.010  14.946  0.5743  0.1392  0.2960
13370TIP3    H161525   0.285   2.032  14.877 -0.0299 -0.7031  0.5667
13370TIP3    H261526   0.406   2.087  14.951 -0.3341  0.8603 -0.0523
13371TIP3   OH261527   1.045   6.398   6.433 -0.2226 -0.3825  0.1686
13371TIP3    H161528   1.043   6.352   6.349  0.7816  1.7509 -1.1440
13371TIP3    H261529   0.962   6.445   6.437  0.9943  2.1560 -1.3763
13372TIP3   OH261530   2.070   0.039  14.853 -0.0142 -0.3353  0.7330
13372TIP3    H161531   2.113  -0.033  14.898 -2.8472 -2.8649 -0.2728
13372TIP3    H261532   2.012   0.078  14.918  1.5259  1.1685  1.2814
13373TIP3   OH261533   5.769   3.373  16.034  0.7200 -0.1392 -0.3717
13373TIP3    H161534   5.745   3.334  16.118 -1.2389 -1.5267 -1.4914
13373TIP3    H261535   5.858   3.406  16.048  0.3587 -0.0481  2.3056
13374TIP3   OH261536   5.536   2.605   3.329  0.7578  0.1093  0.6489
13374TIP3    H161537   5.593   2.529   3.318  1.7156  0.9612 -0.5234
13374TIP3    H261538   5.596   2.678   3.343 -0.1444  0.6903  1.6362
13375TIP3   OH261539   0.363   6.364  12.656  1.1311  0.1852 -0.1882
13375TIP3    H161540   0.431   6.398  12.598 -0.1197  0.9944 -1.2350
13375TIP3    H261541   0.390   6.390  12.744  1.4040  1.8579 -0.7427
13376TIP3   OH261542   2.293   4.671   0.627 -0.2072  0.0001 -0.2648
13376TIP3    H161543   2.337   4.751   0.597  1.0735 -0.9866 -1.0890
13376TIP3    H261544   2.200   4.692   0.623  0.1184  1.8780  0.7544
13377TIP3   OH261545   3.136   4.080  11.362 -0.1688  0.3907 -0.1351
13377TIP3    H161546   3.206   4.065  11.299 -1.8913 -1.1945 -1.7669
13377TIP3    H261547   3.106   3.993  11.387  1.2590  0.8459  3.9686
13378TIP3   OH261548   3.323   5.669   6.214  0.0997 -0.2767 -0.0777
13378TIP3    H161549   3.302   5.762   6.225 -0.9714 -0.5747  0.6094
13378TIP3    H261550   3.277   5.626   6.286 -0.4572 -1.4757 -1.1145
13379TIP3   OH261551   5.535   6.647  10.073  0.3370  0.0240 -0.2364
13379TIP3    H161552   5.466   6.670  10.135 -1.2726  0.0398 -1.9383
13379TIP3    H261553   5.599   6.598  10.125 -1.6428 -1.2438  1.1603
13380TIP3   OH261554   3.645   5.584   5.054  0.7896  0.3121 -0.3739
13380TIP3    H161555   3.584   5.510   5.060  0.6019  0.4269 -0.8301
13380TIP3    H261556   3.589   5.661   5.058  1.0587  0.4504  0.9659
13381TIP3   OH261557   0.020   6.050   3.483 -0.5406  0.5193  0.2710
13381TIP3    H161558   0.032   6.015   3.571 -2.0881  1.6545  0.9850
13381TIP3    H261559   0.092   6.112   3.472 -2.3013  3.2086  2.3219
13382TIP3   OH261560   1.389   0.198  12.600 -0.6280 -0.4943  0.4004
13382TIP3    H161561   1.346   0.185  12.515  3.2118  1.7503 -2.2122
13382TIP3    H261562   1.464   0.138  12.598  0.8672  1.2484  1.0656
13383TIP3   OH261563   0.267   4.908   0.240  0.4139  0.2698  0.2285
13383TIP3    H161564   0.195   4.970   0.248  1.0435  0.9377  0.9050
13383TIP3    H261565   0.243   4.835   0.298 -1.7451 -1.6176 -2.7579
13384TIP3   OH261566   0.059   3.600   3.472 -0.5603  0.1240  0.3439
13384TIP3    H161567  -0.003   3.540   3.514 -0.5141 -0.1725 -0.0035
13384TIP3    H261568   0.065   3.674   3.532  0.0210 -0.5839  1.2018
13385TIP3   OH261569   6.055   1.617   0.112  0.1034 -0.7841  0.1133
13385TIP3    H161570   6.031   1.693   0.059  1.7646  0.6116  1.2742
13385TIP3    H261571   5.990   1.614   0.181  1.2061  0.9330  1.2995
13386TIP3   OH261572   2.664   1.966  13.055 -0.1096 -0.3575  0.0216
13386TIP3    H161573   2.691   2.018  12.979  0.0101  0.4999  0.6283
13386TIP3    H261574   2.717   1.887  13.051 -0.2367 -0.4036 -0.8851
13387TIP3   OH261575   4.903   1.927   5.293 -0.5237  0.0366  0.0926
13387TIP3    H161576   4.890   2.016   5.326  0.7699  0.5091 -0.6182
13387TIP3    H261577   4.992   1.904   5.320 -0.5862 -0.7622 -0.3508
13388TIP3   OH261578   2.335   4.979   4.274 -0.1790  0.4237  0.0730
13388TIP3    H161579   2.288   4.986   4.357 -0.1999  0.6572  0.0424
13388TIP3    H261580   2.271   5.002   4.207 -0.3839 -0.5359 -0.0757
13389TIP3   OH261581   4.523   5.780  16.700  0.3858  0.2325  0.0057
13389TIP3    H161582   4.467   5.858  16.704 -1.3244 -0.8584 -1.1298
13389TIP3    H261583   4.512   5.748  16.611  0.8599 -1.4486  0.5221
13390TIP3   OH261584   0.587   0.098  16.460  0.0923 -0.8090 -0.0351
13390TIP3    H161585   0.569   0.007  16.438  1.0619 -0.5194 -2.2743
13390TIP3    H261586   0.651   0.093  16.532 -1.4528 -1.8282  1.3316
13391TIP3   OH261587   4.730   3.329   6.027 -0.1716  0.0293 -0.3762
13391TIP3    H161588   4.709   3.342   6.119 -0.4332  1.2164 -0.5888
13391TIP3    H261589   4.645   3.325   5.984 -0.0347  0.3312 -0.6754
13392TIP3   OH261590   3.364   3.619  17.099 -0.5705 -0.5261 -0.0342
13392TIP3    H161591   3.421   3.663  17.162 -0.6862  0.0387 -0.3191
13392TIP3    H261592   3.276   3.647  17.123 -0.5138  1.0156 -1.4229
13393TIP3   OH261593   4.206   2.958   0.855  0.2177 -0.5170  0.3950
13393TIP3    H161594   4.220   2.920   0.942 -0.0971 -2.4896 -0.3775
13393TIP3    H261595   4.289   3.001   0.834 -0.1269  1.2080  2.1897
13394TIP3   OH261596   2.604   2.862  16.689 -0.2800 -0.0503 -0.3643
13394TIP3    H161597   2.646   2.948  16.690  0.9512 -0.6244 -0.7963
13394TIP3    H261598   2.661   2.808  16.633 -1.3239 -0.9976 -0.5462
13395TIP3   OH261599   6.675   3.459  15.525  0.0772 -0.0640 -0.0176
13395TIP3    H161600   6.600   3.470  15.468 -0.9092  0.7930  1.3598
13395TIP3    H261601   6.664   3.372  15.563  1.6585 -1.3684 -2.3139
13396TIP3   OH261602   2.300   6.374  11.489  0.4576  0.5963 -0.3197
13396TIP3    H161603   2.234   6.382  11.420  1.3163 -0.2294 -1.2715
13396TIP3    H261604   2.267   6.304  11.546 -1.0521  2.3293  1.1047
13397TIP3   OH261605   4.798   5.562  13.078  0.5561 -0.1724 -0.1907
13397TIP3    H161606   4.744   5.484  13.065  0.7435 -0.6408  1.5764
13397TIP3    H261607   4.836   5.579  12.992 -0.0486 -1.5982 -0.7782
13398TIP3   OH261608   3.739   2.557   0.334  0.9194 -0.5346  0.1479
13398TIP3    H161609   3.688   2.482   0.364  3.2622 -2.8120 -1.1414
13398TIP3    H261610   3.806   2.568   0.402  0.2842  0.7826  0.5895
13399TIP3   OH261611   0.048   4.563   5.467  0.4239  0.2343 -0.1411
13399TIP3    H161612   0.081   4.650   5.491 -1.0298  0.4055  1.4256
13399TIP3    H261613  -0.026   4.581   5.409 -1.2384  0.2041  1.8650
13400TIP3   OH261614   5.337   0.723  16.484  0.0358  0.4578  0.3920
13400TIP3    H161615   5.259   0.714  16.539 -0.2720 -1.8715 -0.3290
13400TIP3    H261616   5.333   0.814  16.452 -1.7791  0.7319  1.2311
13401TIP3   OH261617   2.621   4.156  17.035 -0.3898  0.5549  0.1323
13401TIP3    H161618   2.572   4.083  17.073  0.2604  0.1596  0.2300
13401TIP3    H261619   2.605   4.229  17.096 -1.6991  0.7345 -0.4018
13402TIP3   OH261620   2.902   0.547   3.723 -0.5184  0.0014  1.0964
13402TIP3    H161621   2.986   0.528   3.765 -0.0321 -0.0421  0.1107
13402TIP3    H261622   2.877   0.464   3.682  0.2062  0.6767 -0.7759
13403TIP3   OH261623   6.565   0.030  13.738  0.3148  0.1117 -0.1435
13403TIP3    H161624   6.654   0.001  13.716  1.0733  0.6755  1.8979
13403TIP3    H261625   6.554   0.003  13.830 -1.6252  0.0989 -0.3401
13404TIP3   OH261626   5.674   4.093  14.529  0.5391  0.2225  0.3701
13404TIP3    H161627   5.768   4.106  14.517  1.0183 -0.9629  2.3165
13404TIP3    H261628   5.641   4.179  14.557  1.4733  0.1275  1.8375
13405TIP3   OH261629   1.466   1.266   3.826 -0.4820 -0.1128 -0.2036
13405TIP3    H161630   1.503   1.283   3.740 -0.7182 -0.1244 -0.3098
13405TIP3    H261631   1.475   1.348   3.873 -1.0277  0.1194 -0.4935
13406TIP3   OH261632   4.299   5.957  13.294 -0.5736  0.4723  0.7019
13406TIP3    H161633   4.363   5.899  13.336  0.0780  1.2255  0.7783
13406TIP3    H261634   4.240   5.897  13.247  0.1634 -0.2455  0.6584
13407TIP3   OH261635   2.496   3.759  16.160  0.1120 -0.2236 -0.6151
13407TIP3    H161636   2.456   3.688  16.212  0.2259 -1.3035 -1.9431
13407TIP3    H261637   2.514   3.719  16.075 -0.2166  1.5349 -1.5585
13408TIP3   OH261638   5.394   3.232  13.024 -0.0402  0.6472 -0.2161
13408TIP3    H161639   5.481   3.199  13.001 -0.6898 -1.1390 -0.2877
13408TIP3    H261640   5.362   3.169  13.089 -1.1612  1.4557  0.0340
13409TIP3   OH261641   2.862   6.642   5.755  0.2297  0.3299 -0.5285
13409TIP3    H161642   2.916   6.568   5.728  0.9410  1.3267 -1.9298
13409TIP3    H261643   2.922   6.703   5.796 -0.5073 -0.2257  1.5135
13410TIP3   OH261644   3.515   0.609   3.811 -0.0531 -0.1925 -0.1189
13410TIP3    H161645   3.566   0.546   3.861  2.4757  1.0685 -0.9612
13410TIP3    H261646   3.498   0.565   3.728  0.4106 -0.2876 -0.1633
13411TIP3   OH261647   0.805   3.429   2.599 -0.0704  0.0739 -0.4755
13411TIP3    H161648   0.721   3.403   2.639  0.8764  1.8246  3.0179
13411TIP3    H261649   0.870   3.376   2.645  1.0474  1.8434  0.0741
13412TIP3   OH261650   2.997   1.012  15.627  0.4812  0.0803 -0.3618
13412TIP3    H161651   3.000   0.917  15.616 -1.6003 -0.4819  2.5332
13412TIP3    H261652   2.952   1.044  15.549 -0.3183 -1.5445 -0.6150
13413TIP3   OH261653   4.599   2.884   1.984 -0.2664  0.0602  0.0738
13413TIP3    H161654   4.590   2.896   1.889 -1.3170  1.4456  0.3198
13413TIP3    H261655   4.519   2.838   2.009  0.1099 -0.4967  0.2798
13414TIP3   OH261656   4.464   3.460   7.015 -0.1203 -0.0535  0.4005
13414TIP3    H161657   4.548   3.469   6.969 -0.4008 -0.1644 -0.1491
13414TIP3    H261658   4.420   3.387   6.970  0.2117 -1.1757  1.8146
13415TIP3   OH261659   3.939   3.450   5.658  0.4198  0.4737 -0.0345
13415TIP3    H161660   3.848   3.480   5.650  0.5824  0.8419 -0.5781
13415TIP3    H261661   3.974   3.456   5.569  1.5007  2.0326  0.4462
13416TIP3   OH261662   5.899   6.473  11.390  0.1976 -0.4414  0.2923
13416TIP3    H161663   5.969   6.487  11.455 -0.0710 -0.7774  0.6590
13416TIP3    H261664   5.865   6.561  11.373  2.0603  0.0148 -1.4389
13417TIP3   OH261665   5.812   6.210   5.090 -0.4227 -0.2228  0.0942
13417TIP3    H161666   5.791   6.148   5.160  0.9993 -0.0784  0.6904
13417TIP3    H261667   5.860   6.158   5.025 -0.6735 -0.0959 -0.1964
13418TIP3   OH261668   6.418   2.357   0.135 -0.3727 -0.2241  0.6001
13418TIP3    H161669   6.348   2.400   0.086 -0.1244 -0.2052  0.2526
13418TIP3    H261670   6.494   2.415   0.123  0.0053 -0.8314 -0.0002
13419TIP3   OH261671   2.320   1.632  13.111 -0.0977  0.7037 -0.3294
13419TIP3    H161672   2.242   1.645  13.165 -1.0834  0.9272 -1.7656
13419TIP3    H261673   2.388   1.685  13.153 -1.0741  1.5627  0.1980
13420TIP3   OH261674   3.798   5.098  16.834 -0.1587 -0.9371 -0.6909
13420TIP3    H161675   3.871   5.079  16.775 -1.3911 -0.1066 -2.6086
13420TIP3    H261676   3.727   5.042  16.802 -0.6061 -1.1416  0.6187
13421TIP3   OH261677   1.669   0.917  10.982  0.0216 -0.1186 -0.0087
13421TIP3    H161678   1.583   0.909  11.023  0.3645  1.7861  1.1820
13421TIP3    H261679   1.717   0.978  11.037  0.8838  1.7519 -2.6068
13422TIP3   OH261680   0.054   2.975  14.308  0.0922  0.1907 -0.0106
13422TIP3    H161681   0.135   2.957  14.260 -0.0186  0.4016 -0.2723
13422TIP3    H261682   0.048   3.070  14.312  0.9328  0.2256  1.8093
13423TIP3   OH261683   2.367   3.132  16.745 -0.1860 -0.2368 -0.2269
13423TIP3    H161684   2.346   3.048  16.704 -0.7755  0.2783 -1.0232
13423TIP3    H261685   2.434   3.170  16.689 -0.1700 -0.0216 -0.0620
13424TIP3   OH261686   3.761   3.345   4.924  0.7021  0.9996  0.3627
13424TIP3    H161687   3.848   3.334   4.964  1.4542  3.7495 -0.3089
13424TIP3    H261688   3.757   3.437   4.899 -0.6941  0.0770 -3.6397
13425TIP3   OH261689   3.448   5.155   4.625 -0.2548 -0.4124  0.1277
13425TIP3    H161690   3.389   5.229   4.635  0.4965  0.1834  0.2801
13425TIP3    H261691   3.451   5.139   4.531  0.9557  0.9230 -0.0951
13426TIP3   OH261692   4.408   2.584   0.668  0.2259 -0.2137 -0.4377
13426TIP3    H161693   4.502   2.568   0.668 -0.0724 -2.8562  1.9227
13426TIP3    H261694   4.379   2.556   0.581  1.5615  0.3601 -1.0962
13427TIP3   OH261695   5.184   3.839  17.191  0.3406 -0.0468 -0.1163
13427TIP3    H161696   5.178   3.823  17.285 -1.2687  2.4530  0.3054
13427TIP3    H261697   5.275   3.867  17.178 -0.0120  1.9140  1.1934
13428TIP3   OH261698   4.132   6.001  15.756 -0.3572 -0.2448 -0.3514
13428TIP3    H161699   4.188   5.933  15.794 -1.5416 -0.8825  0.3061
13428TIP3    H261700   4.062   6.014  15.820  1.3936  3.8477  1.0855
13429TIP3   OH261701   5.626   4.578  14.567 -0.3156 -0.0060  0.3245
13429TIP3    H161702   5.686   4.504  14.566  0.6402  0.6862 -2.1456
13429TIP3    H261703   5.678   4.650  14.603 -0.1892  0.1750 -0.2006
13430TIP3   OH261704   4.176   1.361  13.414  0.0706  0.0932  0.4624
13430TIP3    H161705   4.190   1.319  13.499 -0.3351 -0.6941  0.1538
13430TIP3    H261706   4.081   1.363  13.403  0.0402  1.8991  0.8426
13431TIP3   OH261707   0.319   6.608   2.029  0.1939  0.1126  0.5407
13431TIP3    H161708   0.346   6.546   2.096  1.5155 -0.3311 -0.3677
13431TIP3    H261709   0.340   6.565   1.946 -2.6891  0.0219 -0.2814
13432TIP3   OH261710   3.292   2.546  13.692 -0.5841  0.1780  0.3970
13432TIP3    H161711   3.319   2.563  13.783 -0.5782  0.0824  0.4130
13432TIP3    H261712   3.308   2.452  13.680  0.7349  0.4577 -0.1386
13433TIP3   OH261713   3.858   3.387  13.765 -0.3283 -0.1340  0.2233
13433TIP3    H161714   3.939   3.344  13.794  2.0525  2.8150 -1.4025
13433TIP3    H261715   3.869   3.478  13.792 -1.6566  1.0098 -2.6807
13434TIP3   OH261716   4.647   3.158  12.931 -0.1984  0.0811  0.0034
13434TIP3    H161717   4.600   3.237  12.903 -0.1709  0.7121  1.6662
13434TIP3    H261718   4.642   3.159  13.026  3.3461  0.2975  0.3262
13435TIP3   OH261719   2.024   2.108  10.687 -0.3745 -0.2081  0.1479
13435TIP3    H161720   2.038   2.202  10.674  0.4733 -0.3607 -0.0697
13435TIP3    H261721   1.958   2.084  10.621 -1.5380  0.4716  1.0299
13436TIP3   OH261722   4.095   0.238  15.673  0.0740 -0.2099  0.2274
13436TIP3    H161723   4.070   0.312  15.618 -1.2438 -0.1299  0.8878
13436TIP3    H261724   4.161   0.191  15.622  0.2128  0.8693 -0.6157
13437TIP3   OH261725   3.345   3.957   3.119  0.0252 -0.3351 -0.2636
13437TIP3    H161726   3.371   3.975   3.209  1.2369  1.7716 -0.9519
13437TIP3    H261727   3.425   3.924   3.078 -1.0525 -3.3785 -0.1312
13438TIP3   OH261728   6.303   6.540   4.468 -0.4558  0.1123  1.0468
13438TIP3    H161729   6.215   6.568   4.491 -0.3352  0.0990  1.5256
13438TIP3    H261730   6.360   6.582   4.533  0.0121  1.0618  0.0598
13439TIP3   OH261731   1.798   6.758   4.778 -0.0761 -0.0939  0.5607
13439TIP3    H161732   1.869   6.769   4.842  0.3889  0.3099 -0.0243
13439TIP3    H261733   1.817   6.674   4.737  0.8341  0.6229 -0.5372
13440TIP3   OH261734   0.201   2.161   5.405 -0.1420 -0.5142 -0.4883
13440TIP3    H161735   0.221   2.254   5.405  1.1014 -0.7734 -1.2764
13440TIP3    H261736   0.126   2.152   5.346 -0.4985  0.0245 -0.1223
13441TIP3   OH261737   2.660   5.498   0.462 -0.3368  0.1638  0.1457
13441TIP3    H161738   2.617   5.419   0.428 -0.0173 -0.0272  0.1760
13441TIP3    H261739   2.682   5.476   0.552  2.0105 -0.6735 -0.5519
13442TIP3   OH261740   3.855   5.748  10.559 -0.6765 -0.0284 -0.2529
13442TIP3    H161741   3.829   5.679  10.620  1.3284  0.2456  1.0048
13442TIP3    H261742   3.887   5.819  10.615 -1.6529  1.4933 -1.5560
13443TIP3   OH261743   2.973   2.937   0.787  0.1541 -0.0780  0.1877
13443TIP3    H161744   3.051   2.990   0.803  0.3786 -0.2493 -0.3094
13443TIP3    H261745   2.930   2.931   0.872 -0.0052  1.1014  0.2147
13444TIP3   OH261746   0.834   2.300  16.471 -0.5387  0.1979 -0.3135
13444TIP3    H161747   0.872   2.369  16.526  0.6174 -1.1986  0.7141
13444TIP3    H261748   0.741   2.321  16.467 -0.2491  1.6837  0.1615
13445TIP3   OH261749   2.838   3.757   3.423 -0.3401  0.1369 -0.0761
13445TIP3    H161750   2.788   3.705   3.360 -0.2005 -1.3173  0.9679
13445TIP3    H261751   2.789   3.839   3.431 -1.4316 -0.4444 -0.5923
13446TIP3   OH261752   3.836   3.275  12.639 -0.5877  0.6369 -0.3622
13446TIP3    H161753   3.860   3.274  12.732  1.0781 -0.0557 -0.7777
13446TIP3    H261754   3.851   3.186  12.608  0.7779  1.3011 -1.7417
13447TIP3   OH261755   6.063   1.104   6.431 -0.2722 -0.1534 -0.4304
13447TIP3    H161756   6.092   1.025   6.476 -1.6008  0.3884  1.5143
13447TIP3    H261757   6.078   1.174   6.494 -0.0388  1.0175 -1.7359
13448TIP3   OH261758   6.487   4.255  11.470 -0.3668 -0.3691 -0.0411
13448TIP3    H161759   6.561   4.312  11.491 -0.2000 -1.2814  2.1368
13448TIP3    H261760   6.454   4.288  11.387  1.6337  0.9219 -0.3919
13449TIP3   OH261761   1.307   1.813  16.550  0.5886  0.5383  0.2478
13449TIP3    H161762   1.269   1.847  16.469  1.5216  0.0107 -0.4357
13449TIP3    H261763   1.384   1.868  16.566  1.2432 -0.2771 -0.0375
13450TIP3   OH261764   6.381   0.510  16.075 -0.1332 -0.3579  0.4127
13450TIP3    H161765   6.378   0.456  15.995 -0.0298 -0.6521  0.6058
13450TIP3    H261766   6.471   0.503  16.105  0.4036  1.5213 -0.6444
13451TIP3   OH261767   0.844   3.423  13.002 -0.3369 -0.1231 -0.0767
13451TIP3    H161768   0.934   3.447  12.977 -1.6270  4.6763 -1.1825
13451TIP3    H261769   0.842   3.436  13.096  0.3018 -1.2843  0.1229
13452TIP3   OH261770   1.392   2.343   5.027  0.2384 -0.0654  0.1296
13452TIP3    H161771   1.326   2.398   4.986 -0.6791 -1.3588 -0.2141
13452TIP3    H261772   1.433   2.398   5.093 -0.1359  1.2229 -0.6872
13453TIP3   OH261773   3.118   1.939  11.295  0.0601 -0.5150 -0.5517
13453TIP3    H161774   3.188   1.881  11.323 -0.7424 -1.2154  0.0473
13453TIP3    H261775   3.076   1.892  11.223 -0.9026 -0.9317  0.2564
13454TIP3   OH261776   4.837   5.797  15.735 -0.2491  0.2359  0.1711
13454TIP3    H161777   4.888   5.777  15.657 -1.9224 -1.4560 -0.5682
13454TIP3    H261778   4.852   5.723  15.793 -1.2053  0.0799  0.2474
13455TIP3   OH261779   3.374   1.991  12.169  0.6024  0.2507 -0.3316
13455TIP3    H161780   3.329   2.014  12.251 -2.0431 -0.2753 -1.5200
13455TIP3    H261781   3.320   1.922  12.131 -0.6766  3.1077 -4.3990
13456TIP3   OH261782   2.771   3.058  12.740  0.7326  0.1426  0.0044
13456TIP3    H161783   2.849   3.110  12.723  0.1902  0.9338 -0.1247
13456TIP3    H261784   2.711   3.080  12.668 -0.8168  1.9853  1.7270
13457TIP3   OH261785   5.770   5.753   2.406  0.6343  0.6832 -0.3587
13457TIP3    H161786   5.694   5.781   2.355  0.1903 -1.3831 -0.9465
13457TIP3    H261787   5.844   5.793   2.362  0.1491 -0.0291 -1.8957
13458TIP3   OH261788   5.828   3.164   5.720  0.1563  0.2252  0.2296
13458TIP3    H161789   5.773   3.086   5.712  1.4659 -0.6867 -0.2789
13458TIP3    H261790   5.772   3.228   5.763 -1.4235 -0.5116 -0.6311
13459TIP3   OH261791   3.039   6.696  11.708 -0.1633 -0.8336  0.0213
13459TIP3    H161792   3.074   6.777  11.744 -0.8918  0.2454 -1.5929
13459TIP3    H261793   3.109   6.632  11.721  1.1009  0.4680 -0.1851
13460TIP3   OH261794   3.374   3.163   5.879  0.0446 -0.3873 -0.3320
13460TIP3    H161795   3.313   3.150   5.806  0.7265 -1.5616 -0.7157
13460TIP3    H261796   3.431   3.087   5.876  1.6440  0.7523 -0.0903
13461TIP3   OH261797   5.217   1.326   5.761  0.1492 -0.0797  0.0008
13461TIP3    H161798   5.203   1.247   5.812 -2.4505  1.3825  1.7978
13461TIP3    H261799   5.140   1.332   5.704 -0.6693  2.0447  1.2294
13462TIP3   OH261800   5.260   5.663   1.263  0.3100 -0.6188 -0.0707
13462TIP3    H161801   5.172   5.642   1.297 -0.4597  0.5890 -1.2408
13462TIP3    H261802   5.319   5.620   1.325 -1.0827 -3.6440 -0.6275
13463TIP3   OH261803   2.373   4.194   4.222 -0.7098 -0.3168 -0.1534
13463TIP3    H161804   2.304   4.257   4.240 -0.5441 -0.1603 -0.0579
13463TIP3    H261805   2.359   4.168   4.131  1.4408  2.7335 -1.5443
13464TIP3   OH261806   3.560   0.562   0.058 -0.0009  0.5086 -0.7347
13464TIP3    H161807   3.529   0.635   0.004 -1.1407  1.8126  1.5808
13464TIP3    H261808   3.490   0.497   0.053 -0.2644  0.7774 -0.5191
13465TIP3   OH261809   2.986   0.289  16.305 -0.2040  0.3921 -0.4021
13465TIP3    H161810   2.901   0.290  16.261 -0.4802 -2.2038 -0.0689
13465TIP3    H261811   2.995   0.200  16.338  2.4321  0.7417  0.0402
13466TIP3   OH261812   4.166   4.560  13.616  0.3608  0.1121 -0.0728
13466TIP3    H161813   4.190   4.607  13.695  0.9625  1.6535 -1.1379
13466TIP3    H261814   4.247   4.518  13.587  0.6277  1.1600 -0.9075
13467TIP3   OH261815   3.467   3.963  14.009 -0.2427  0.4055  0.4155
13467TIP3    H161816   3.519   4.000  14.080  0.4790  0.1185  0.0450
13467TIP3    H261817   3.419   4.037  13.973  0.4045  0.7998  0.3485
13468TIP3   OH261818   5.567   4.792  13.970 -0.7435  0.0491  0.4846
13468TIP3    H161819   5.475   4.780  13.993 -0.9953 -0.4791 -0.7176
13468TIP3    H261820   5.612   4.804  14.054 -1.8138 -0.3090  1.1249
13469TIP3   OH261821   4.035   0.784  12.661 -0.4476 -0.0710 -0.6131
13469TIP3    H161822   4.116   0.833  12.674  0.0885 -1.2354  0.6573
13469TIP3    H261823   4.060   0.709  12.608 -0.3728 -1.1660  0.9107
13470TIP3   OH261824   1.222   5.083  16.503 -0.6463  0.2578  0.0751
13470TIP3    H161825   1.286   5.142  16.544  0.2514 -0.7170  0.1140
13470TIP3    H261826   1.206   5.121  16.417  0.2094  0.3668 -0.0450
13471TIP3   OH261827   5.298   6.097  13.429  0.4379 -0.3578 -0.1531
13471TIP3    H161828   5.235   6.097  13.357  0.3221  0.5588 -0.0721
13471TIP3    H261829   5.300   6.007  13.460  0.0070 -0.6283 -0.8866
13472TIP3   OH261830   3.919   3.859  14.485  0.1330  0.5957 -0.0194
13472TIP3    H161831   4.001   3.896  14.518  0.7545  1.5303 -2.4466
13472TIP3    H261832   3.859   3.934  14.482  0.9568  1.2935 -3.5568
13473TIP3   OH261833   5.718   6.461  13.994  0.2495 -0.3286  0.0050
13473TIP3    H161834   5.728   6.529  13.928  0.1992 -0.8093 -0.4991
13473TIP3    H261835   5.807   6.442  14.024  0.2702 -0.1027  0.0898
13474TIP3   OH261836   2.882   5.148   3.111 -0.5691 -0.2255  0.8339
13474TIP3    H161837   2.815   5.142   3.043 -0.5287  3.4779  0.2696
13474TIP3    H261838   2.835   5.135   3.193 -2.2735  2.8778  0.4934
13475TIP3   OH261839   6.655   3.491  12.609 -0.0321 -0.1891 -0.0041
13475TIP3    H161840   6.750   3.481  12.605  0.0154  0.4268 -0.7329
13475TIP3    H261841   6.637   3.570  12.557 -0.8713  0.1576  0.7807
13476TIP3   OH261842   2.520   4.174   0.110 -0.3353  0.9270 -0.3777
13476TIP3    H161843   2.555   4.188   0.197  0.1999 -0.4277 -0.3519
13476TIP3    H261844   2.542   4.253   0.061  2.2193  0.3978 -0.1813
13477TIP3   OH261845   2.324   3.880  13.083  0.9395 -0.2371 -0.1593
13477TIP3    H161846   2.388   3.822  13.124 -0.4098 -0.8492  1.1492
13477TIP3    H261847   2.314   3.952  13.145  2.3838  1.3454 -1.6384
13478TIP3   OH261848   6.130   5.817   4.381  0.3348  0.1294  0.1864
13478TIP3    H161849   6.203   5.878   4.370  1.1124 -1.0213 -1.3080
13478TIP3    H261850   6.135   5.791   4.473  1.3954  0.5826  0.2755
13479TIP3   OH261851   6.198   2.585   5.618  0.1056  0.3266 -0.3789
13479TIP3    H161852   6.206   2.582   5.522 -0.3025 -0.9223 -0.3952
13479TIP3    H261853   6.286   2.562   5.649 -0.1102 -0.7363 -0.4868
13480TIP3   OH261854   0.137   5.675   4.726 -0.2082  0.3101  0.5082
13480TIP3    H161855   0.145   5.591   4.680 -1.8559  0.7036 -0.5649
13480TIP3    H261856   0.138   5.741   4.657  1.3659  1.2319  1.3613
13481TIP3   OH261857   0.301   1.993   2.242  0.1237 -0.4070 -0.0378
13481TIP3    H161858   0.251   1.915   2.217 -1.0315 -0.4242  2.0700
13481TIP3    H261859   0.265   2.063   2.187 -0.2078 -0.9583 -0.5407
13482TIP3   OH261860   0.235   2.014   3.071 -0.2888  0.6047 -0.5745
13482TIP3    H161861   0.287   1.976   2.999 -1.2502 -0.6147 -0.6667
13482TIP3    H261862   0.283   1.989   3.150 -0.6730 -0.4616 -0.6626
13483TIP3   OH261863   4.435   1.421   3.707  0.6175  0.1836  0.1470
13483TIP3    H161864   4.504   1.407   3.642  0.6150  0.2290  0.1349
13483TIP3    H261865   4.443   1.347   3.766  2.6521  1.7237  1.9247
13484TIP3   OH261866   1.787   0.102  15.813  0.0283  0.0203 -0.0185
13484TIP3    H161867   1.800   0.195  15.832 -0.2978 -0.1350  1.0663
13484TIP3    H261868   1.875   0.066  15.805  0.1674  0.2655  0.4041
13485TIP3   OH261869   4.034   3.841  14.769 -0.3668  0.0598 -0.6404
13485TIP3    H161870   3.946   3.868  14.745 -0.6734  1.0005  1.3274
13485TIP3    H261871   4.021   3.763  14.823 -0.0698  0.5098  0.1048
13486TIP3   OH261872   3.632   5.161   3.941 -0.3891 -0.0354 -0.1027
13486TIP3    H161873   3.620   5.247   3.902 -1.9288  0.2159  0.8312
13486TIP3    H261874   3.569   5.158   4.014  1.0197 -1.1984  1.1388
13487TIP3   OH261875   4.639   1.153   0.120 -0.9264  0.2412 -0.4020
13487TIP3    H161876   4.707   1.109   0.170 -0.9247  2.2820  1.5662
13487TIP3    H261877   4.558   1.113   0.149 -0.9919  1.8152  1.9298
13488TIP3   OH261878   6.520   4.419   2.552  0.3401 -0.2738  0.3995
13488TIP3    H161879   6.535   4.509   2.581  1.0573  0.6814 -2.5328
13488TIP3    H261880   6.603   4.374   2.567  0.5213  0.0446  0.3649
13489TIP3   OH261881   2.559   1.999   5.610  0.1204  0.0742 -0.2423
13489TIP3    H161882   2.517   2.085   5.607 -3.2972 -1.4487 -0.2050
13489TIP3    H261883   2.629   2.009   5.675 -0.4225  2.7206  0.0264
13490TIP3   OH261884   2.727   5.637   1.917 -0.1253 -0.5159  0.3993
13490TIP3    H161885   2.814   5.665   1.888 -0.3389 -0.7692 -0.5134
13490TIP3    H261886   2.668   5.667   1.849 -0.8225  0.0088  1.2111
13491TIP3   OH261887   5.426   1.967   0.985  0.2482  0.0398 -0.1764
13491TIP3    H161888   5.356   1.907   1.011 -0.1737 -0.2487 -1.8400
13491TIP3    H261889   5.450   2.013   1.066 -1.9818  0.2662  0.4301
13492TIP3   OH261890   4.022   0.825   1.802  0.0405 -0.1327 -0.2725
13492TIP3    H161891   4.015   0.856   1.711  0.0408  1.1912  0.1559
13492TIP3    H261892   4.111   0.791   1.809 -0.0556 -0.5206 -0.8467
13493TIP3   OH261893   0.519   3.477  12.406 -0.1642 -0.2522  0.0822
13493TIP3    H161894   0.440   3.527  12.428  1.0683  2.8108 -1.8302
13493TIP3    H261895   0.490   3.416  12.338 -1.4557 -1.3509  1.5628
13494TIP3   OH261896   4.501   3.948  11.451 -0.2591 -0.1517  0.9074
13494TIP3    H161897   4.564   3.977  11.385 -0.8678  1.0914  0.8414
13494TIP3    H261898   4.416   3.978  11.418 -0.8965 -1.6986  1.0472
13495TIP3   OH261899   5.003   2.413   0.374 -0.3425 -0.1713 -0.4147
13495TIP3    H161900   4.970   2.501   0.394 -0.8427 -0.5053  0.2693
13495TIP3    H261901   5.087   2.408   0.419  0.5123  0.5508 -1.8575
13496TIP3   OH261902   0.140   3.114   4.449  0.2309 -0.1496  0.2676
13496TIP3    H161903   0.059   3.108   4.398  0.6921 -0.2248 -0.4776
13496TIP3    H261904   0.159   3.208   4.454 -0.6942 -0.0071  1.7549
13497TIP3   OH261905   3.273   4.949   2.178  0.3884  0.0549 -0.5883
13497TIP3    H161906   3.319   4.866   2.191 -1.4835 -1.0625 -0.7188
13497TIP3    H261907   3.249   4.948   2.085 -3.4726 -1.4680  0.2433
13498TIP3   OH261908   2.674   5.846  12.951 -0.4410  0.4803  0.4728
13498TIP3    H161909   2.610   5.814  12.888 -0.9952  0.3024  1.1162
13498TIP3    H261910   2.623   5.862  13.031  0.3751  0.0053  1.0967
13499TIP3   OH261911   2.868   3.653  14.406  0.5359  0.3175 -0.0519
13499TIP3    H161912   2.883   3.748  14.409  0.8011  0.3482 -1.6253
13499TIP3    H261913   2.780   3.645  14.369 -1.6018  0.0099  4.4271
13500TIP3   OH261914   6.104   4.177   4.021  0.1267 -0.1291 -0.0084
13500TIP3    H161915   6.129   4.149   3.933  0.3143 -0.6903  0.2133
13500TIP3    H261916   6.160   4.251   4.040 -2.0318  2.0648 -1.5599
13501TIP3   OH261917   5.527   6.362   1.698  0.4449  0.2484 -0.4570
13501TIP3    H161918   5.472   6.394   1.627  0.2465  1.0497  0.0416
13501TIP3    H261919   5.597   6.313   1.655  0.0966  0.3690 -1.1684
13502TIP3   OH261920   6.216   0.041  14.276 -0.0032  0.0393 -0.2561
13502TIP3    H161921   6.310   0.028  14.282 -0.2920 -3.5704 -0.9720
13502TIP3    H261922   6.189   0.070  14.363  1.5133 -1.4136  0.7480
13503TIP3   OH261923   3.339   0.614  11.070 -0.5417 -0.0187 -0.4478
13503TIP3    H161924   3.354   0.548  11.138  0.6618  0.5697 -0.1178
13503TIP3    H261925   3.277   0.676  11.109 -0.4687 -0.1106 -0.1893
13504TIP3   OH261926   4.872   6.133  15.872 -0.8636 -0.1613  0.7821
13504TIP3    H161927   4.954   6.139  15.921 -1.7042 -0.1282  2.2500
13504TIP3    H261928   4.829   6.055  15.907 -1.0227 -0.7435 -0.6802
13505TIP3   OH261929   0.444   1.331  16.386  0.7107 -0.2131  0.4424
13505TIP3    H161930   0.368   1.302  16.335 -2.3695  2.1818  3.2251
13505TIP3    H261931   0.473   1.410  16.342  0.8430 -0.4973  0.0136
13506TIP3   OH261932   6.524   5.892  15.090 -0.2876 -0.0738 -0.2937
13506TIP3    H161933   6.469   5.896  15.169 -1.4282 -1.5490 -0.9688
13506TIP3    H261934   6.597   5.951  15.110 -1.1804  0.5693  1.3563
13507TIP3   OH261935   1.632   5.192  15.363  0.3491  0.3896 -0.6554
13507TIP3    H161936   1.573   5.187  15.288  1.0864 -1.6262 -1.1633
13507TIP3    H261937   1.588   5.140  15.431  0.0613  1.5430  0.0727
13508TIP3   OH261938   1.601   1.143   4.716  0.3165 -0.0308  0.1105
13508TIP3    H161939   1.670   1.116   4.656  0.2790 -0.6477  0.3387
13508TIP3    H261940   1.551   1.063   4.732 -0.1584  0.3069  0.3276
13509TIP3   OH261941   2.166   3.218  16.279  1.1773 -0.1170  0.4343
13509TIP3    H161942   2.082   3.196  16.320  0.8013  0.5162  0.0159
13509TIP3    H261943   2.170   3.163  16.201  0.7872  0.4128  0.0335
13510TIP3   OH261944   5.430   1.686  11.760 -0.4548 -0.1438  0.4466
13510TIP3    H161945   5.452   1.592  11.759 -0.7673 -0.2316  1.0736
13510TIP3    H261946   5.461   1.719  11.676  1.0691 -0.4899  0.8332
13511TIP3   OH261947   3.069   5.431   4.867  0.0278 -0.1969  0.2855
13511TIP3    H161948   3.042   5.523   4.866 -1.5053 -0.6022 -1.3397
13511TIP3    H261949   3.005   5.388   4.925 -0.3232 -0.4956 -0.3095
13512TIP3   OH261950   2.226   3.050   2.200 -0.1888 -0.0832 -0.2357
13512TIP3    H161951   2.208   3.078   2.290  0.9445  0.3282 -0.1099
13512TIP3    H261952   2.163   3.098   2.146  0.1080  0.8298  0.2095
13513TIP3   OH261953   0.287   6.074  16.063 -0.6263  0.7248 -0.1660
13513TIP3    H161954   0.276   6.111  16.150  0.2367  1.8689 -0.5123
13513TIP3    H261955   0.379   6.091  16.041 -0.8056  0.3913 -1.2546
13514TIP3   OH261956   2.687   2.636  13.087 -0.2142  0.2067 -0.2203
13514TIP3    H161957   2.747   2.563  13.072  1.3363  1.5756 -1.0357
13514TIP3    H261958   2.682   2.643  13.182 -1.0584 -1.4583 -0.1107
13515TIP3   OH261959   5.122   4.497  12.541 -0.8280  1.1872 -0.4796
13515TIP3    H161960   5.055   4.441  12.580 -1.4705  0.2854 -2.6672
13515TIP3    H261961   5.198   4.440  12.531 -1.6110  0.4298 -3.0838
13516TIP3   OH261962   5.323   5.712  15.636  0.2606  0.1497 -0.2181
13516TIP3    H161963   5.393   5.753  15.687  0.6132  0.6101 -1.0557
13516TIP3    H261964   5.314   5.624  15.673  2.3479 -0.4851 -1.0945
13517TIP3   OH261965   4.415   4.352   4.501  0.4156  0.2014 -0.0769
13517TIP3    H161966   4.333   4.307   4.480  0.5680  0.5392 -1.5006
13517TIP3    H261967   4.387   4.439   4.529 -0.1135 -1.4140  5.5508
13518TIP3   OH261968   0.339   4.843   6.212  0.5277  0.2108  0.3173
13518TIP3    H161969   0.364   4.778   6.146  1.9661  1.5459 -0.5310
13518TIP3    H261970   0.345   4.796   6.295  0.3833 -1.0390 -0.3494
13519TIP3   OH261971   2.538   0.051  11.786 -0.1481  0.1945  0.1808
13519TIP3    H161972   2.452   0.023  11.819 -1.0865  1.3830 -1.1390
13519TIP3    H261973   2.569  -0.023  11.735 -1.4678  0.5589 -1.2309
13520TIP3   OH261974   6.517   0.989  15.400  0.2199 -0.1030 -0.1135
13520TIP3    H161975   6.578   1.062  15.405  0.4312 -0.0283 -2.5512
13520TIP3    H261976   6.495   0.969  15.491  2.3673  1.1144  0.7299
13521TIP3   OH261977   4.785   4.492  15.528 -0.6914 -0.0627 -0.2833
13521TIP3    H161978   4.852   4.423  15.533 -1.7094 -1.2219 -1.7133
13521TIP3    H261979   4.829   4.571  15.559  0.8250 -1.1382  0.4296
13522TIP3   OH261980   5.848   2.392   4.493  0.2457  0.1323 -0.3858
13522TIP3    H161981   5.929   2.373   4.447  1.2007  0.5098  1.0640
13522TIP3    H261982   5.861   2.479   4.530 -0.2986 -0.3100  0.9127
13523TIP3   OH261983   5.340   0.325  17.019 -0.1644  0.1278  0.4149
13523TIP3    H161984   5.435   0.331  17.013 -0.1194 -1.3013 -0.7174
13523TIP3    H261985   5.324   0.301  17.111  0.7683 -2.2323  0.0293
13524TIP3   OH261986   4.515   1.924   4.629 -0.5879 -0.1029 -0.1416
13524TIP3    H161987   4.464   1.998   4.660 -1.9346 -1.4884  1.1252
13524TIP3    H261988   4.580   1.962   4.570 -1.6398  1.9790 -0.0320
13525TIP3   OH261989   5.861   3.870   2.917  0.5309  0.1916  0.6611
13525TIP3    H161990   5.936   3.875   2.858  0.6250  1.4712  0.8542
13525TIP3    H261991   5.855   3.778   2.941  1.4182 -0.0911 -0.1557
13526TIP3   OH261992   1.005   4.070  15.479  0.3072 -0.4495  0.2683
13526TIP3    H161993   1.039   3.998  15.533 -0.0218 -0.1150  0.9345
13526TIP3    H261994   0.921   4.092  15.519  1.5021  1.9898  1.6647
13527TIP3   OH261995   1.000   5.848  16.916  0.0176 -0.4418 -0.0429
13527TIP3    H161996   1.032   5.930  16.879 -0.9521  1.7631  3.5305
13527TIP3    H261997   1.064   5.782  16.888  2.1454  1.9343 -1.1292
13528TIP3   OH261998   3.462   1.147   4.003  0.6330 -0.0963 -0.3035
13528TIP3    H161999   3.550   1.143   3.966  0.6632 -0.3802 -0.2066
13528TIP3    H262000   3.407   1.101   3.939  1.0077 -2.3555  0.9063
13529TIP3   OH262001   0.409   5.820  16.480  0.5828 -0.8462  0.0844
13529TIP3    H162002   0.495   5.797  16.444  0.0238  0.3952 -2.2702
13529TIP3    H262003   0.348   5.797  16.411 -0.8205 -0.2665  1.0912
13530TIP3   OH262004   0.722   5.589   2.646 -0.4729  0.2045  0.0918
13530TIP3    H162005   0.788   5.622   2.708 -1.0877  0.7281  0.4741
13530TIP3    H262006   0.758   5.505   2.616  1.5746  1.5857 -1.5977
13531TIP3   OH262007   2.289   4.357  15.195  0.3637 -0.3415  0.2316
13531TIP3    H162008   2.289   4.423  15.264 -0.8446 -0.6093  0.4976
13531TIP3    H262009   2.227   4.291  15.224  0.6613 -1.0103 -0.5978
13532TIP3   OH262010   5.804   4.028   0.157 -0.0568  0.3406 -0.3260
13532TIP3    H162011   5.710   4.044   0.158  0.2608  2.5854  0.4694
13532TIP3    H262012   5.836   4.066   0.239  1.4345 -1.3421 -0.0656
13533TIP3   OH262013   1.289   0.806   2.825 -1.2451 -0.3445 -0.1228
13533TIP3    H162014   1.196   0.790   2.841 -1.7815  1.7478 -0.8503
13533TIP3    H262015   1.314   0.867   2.894 -0.3867 -0.8815  0.0532
13534TIP3   OH262016   5.116   0.372   2.198 -0.1616  0.1310  0.3400
13534TIP3    H162017   5.171   0.413   2.264 -0.8358  1.4413  0.1209
13534TIP3    H262018   5.083   0.445   2.145 -0.5672 -0.7857 -0.7183
13535TIP3   OH262019   1.728   1.895  12.414 -0.0770  0.2042 -0.2866
13535TIP3    H162020   1.801   1.949  12.386  0.0358 -0.4336 -1.2958
13535TIP3    H262021   1.748   1.808  12.378 -1.2507 -0.0109 -0.4557
13536TIP3   OH262022   2.494   3.438  12.470 -0.3307  0.0648 -0.3636
13536TIP3    H162023   2.467   3.360  12.422  0.4047 -0.6715  0.3889
13536TIP3    H262024   2.480   3.416  12.562 -0.8302  1.1063 -0.1712
13537TIP3   OH262025   5.702   3.177  16.224  0.0434 -0.0579 -0.1591
13537TIP3    H162026   5.680   3.249  16.283 -2.6359 -0.3351 -0.7059
13537TIP3    H262027   5.696   3.099  16.278  1.9011 -0.0151  0.1749
13538TIP3   OH262028   0.929   5.362  12.455 -0.1837  0.4728 -0.4909
13538TIP3    H162029   0.859   5.319  12.504  0.5959  1.0108  1.1542
13538TIP3    H262030   0.887   5.440  12.418 -0.3725  1.0119  0.8267
13539TIP3   OH262031   0.849   4.147  12.066  0.8178  0.1639  0.5041
13539TIP3    H162032   0.873   4.078  12.004  0.3966  0.5422 -0.0896
13539TIP3    H262033   0.845   4.226  12.013 -2.7739 -0.0174  0.3181
13540TIP3   OH262034   1.067   0.806   5.660  0.0326 -0.0554  0.2221
13540TIP3    H162035   1.024   0.832   5.578 -0.2157 -0.6570  0.1592
13540TIP3    H262036   1.082   0.889   5.706 -0.4980  0.2240 -0.0962
13541TIP3   OH262037   4.021   5.680   6.155  0.7506  0.5956  0.0016
13541TIP3    H162038   4.047   5.646   6.240  1.5320  2.4636  0.5538
13541TIP3    H262039   3.985   5.766   6.173  0.1089  0.6709 -1.4763
13542TIP3   OH262040   5.715   0.253  11.543  0.0777  0.0501 -0.5123
13542TIP3    H162041   5.706   0.159  11.552  1.5180  0.0514  1.6391
13542TIP3    H262042   5.809   0.268  11.532 -0.1648  1.2205 -1.2582
13543TIP3   OH262043   4.006   3.793  10.771 -0.0176 -0.3819 -0.0501
13543TIP3    H162044   4.053   3.819  10.851  0.7971  0.2745 -0.7201
13543TIP3    H262045   4.033   3.857  10.706 -0.2829 -1.1969 -0.9867
13544TIP3   OH262046   6.675   5.761  13.323  1.1395  0.6435  0.2940
13544TIP3    H162047   6.648   5.710  13.399  1.6600 -0.8815 -0.4996
13544TIP3    H262048   6.754   5.718  13.292  0.6837  0.9399 -1.3869
13545TIP3   OH262049   0.009   3.987   5.504  0.0401 -0.7145  0.1129
13545TIP3    H162050   0.082   3.933   5.473  1.2082  0.9852 -0.2327
13545TIP3    H262051   0.049   4.049   5.565 -1.1379  0.1950 -0.0066
13546TIP3   OH262052   2.436   2.431  12.004  0.2926  0.0552  0.0275
13546TIP3    H162053   2.493   2.496  12.048  0.4138  0.0959 -0.1899
13546TIP3    H262054   2.466   2.430  11.913 -1.1274  1.2757 -0.4911
13547TIP3   OH262055   0.797   0.880  12.922  0.0943  0.0597 -0.4539
13547TIP3    H162056   0.728   0.891  12.987 -0.2313 -0.3217 -0.7314
13547TIP3    H262057   0.811   0.785  12.917 -0.4097  0.0327 -1.4825
13548TIP3   OH262058   4.495   2.887  14.683  0.4183  0.1622  0.0472
13548TIP3    H162059   4.481   2.887  14.589  1.8005 -0.7397 -0.2005
13548TIP3    H262060   4.566   2.950  14.697  1.8926 -1.4124  0.1274
13549TIP3   OH262061   4.564   1.804  12.952  0.0114 -0.3835 -0.1949
13549TIP3    H162062   4.624   1.760  13.012  1.2174  1.2249 -0.1518
13549TIP3    H262063   4.478   1.770  12.975  0.6144 -0.8999  1.4699
13550TIP3   OH262064   4.504   1.039  10.787 -0.0492 -0.4728 -0.3488
13550TIP3    H162065   4.596   1.035  10.760 -0.1100  0.2220 -0.6923
13550TIP3    H262066   4.502   0.997  10.873  1.0046  1.5066  0.7180
13551TIP3   OH262067   3.568   4.250   0.290 -0.4276  0.1575  0.5109
13551TIP3    H162068   3.559   4.179   0.226  2.4736 -0.9197  1.1350
13551TIP3    H262069   3.492   4.241   0.347 -1.5971 -0.6241 -1.0919
13552TIP3   OH262070   5.370   3.921  13.054 -0.1034  0.0166  0.0976
13552TIP3    H162071   5.364   4.009  13.090  0.7199 -0.2459  0.8913
13552TIP3    H262072   5.396   3.934  12.962  2.7452  0.5379  0.8891
13553TIP3   OH262073   0.425   2.743  17.113 -0.2399 -0.4236  0.7991
13553TIP3    H162074   0.350   2.771  17.060 -0.1872 -1.1898  0.3170
13553TIP3    H262075   0.413   2.649  17.124  2.2205 -1.1787 -1.8663
13554TIP3   OH262076   1.615   4.754  11.024 -0.7192  0.1132  0.3903
13554TIP3    H162077   1.533   4.704  11.021 -0.0494 -0.9966 -2.2974
13554TIP3    H262078   1.683   4.687  11.029  0.1870  0.6115 -2.8152
13555TIP3   OH262079   3.957   6.014   5.762 -0.3392 -0.1214  0.1480
13555TIP3    H162080   3.952   6.036   5.855 -1.2635 -2.6861  0.7761
13555TIP3    H262081   3.866   5.999   5.736  0.0408 -1.0714 -0.7033
13556TIP3   OH262082   1.830   3.091   5.117  0.2818  0.0545  0.1059
13556TIP3    H162083   1.845   3.185   5.108  1.2839 -0.1267 -0.2107
13556TIP3    H262084   1.912   3.051   5.089 -0.2503 -0.9290 -0.0861
13557TIP3   OH262085   1.481   1.666   0.387  0.2353  0.6417 -0.0483
13557TIP3    H162086   1.478   1.753   0.428  0.7527  0.4338  0.4512
13557TIP3    H262087   1.564   1.666   0.339  0.8126  0.0207  0.9068
13558TIP3   OH262088   5.457   5.328  15.423 -0.0507 -0.0199  0.2139
13558TIP3    H162089   5.496   5.413  15.446  1.9687 -0.3829 -1.5307
13558TIP3    H262090   5.421   5.341  15.335 -2.8279 -0.0993  1.2355
13559TIP3   OH262091   2.697   4.738   4.644 -0.3848  0.4683  0.4410
13559TIP3    H162092   2.702   4.720   4.738 -1.3089 -0.7814  0.2724
13559TIP3    H262093   2.736   4.825   4.634  1.0823  0.0151  1.7809
13560TIP3   OH262094   4.117   4.857  12.971  0.5037  0.1689  0.1999
13560TIP3    H162095   4.209   4.839  12.993  0.2455 -1.8849 -0.2751
13560TIP3    H262096   4.118   4.949  12.943  2.0146  0.8521  2.2372
13561TIP3   OH262097   6.743   2.319   1.204 -0.1227  0.3500  0.8032
13561TIP3    H162098   6.803   2.275   1.265  0.4128 -1.4976 -0.9659
13561TIP3    H262099   6.655   2.295   1.236  0.1163  0.6580  1.7168
13562TIP3   OH262100   2.481   1.958  15.357  0.4670 -0.9324 -0.1764
13562TIP3    H162101   2.454   1.869  15.336 -1.5576  0.2457 -3.4080
13562TIP3    H262102   2.542   1.982  15.287 -0.0145  0.5507 -0.1417
13563TIP3   OH262103   5.434   5.867  12.330 -0.1327  0.4368 -1.0443
13563TIP3    H162104   5.413   5.910  12.413  3.6753  0.6602 -0.0328
13563TIP3    H262105   5.404   5.928  12.263 -0.1927  1.8752  0.2505
13564TIP3   OH262106   4.102   3.351   4.231 -0.0146  0.2459 -0.3802
13564TIP3    H162107   4.114   3.445   4.244  0.9391 -0.0231  0.8989
13564TIP3    H262108   4.161   3.328   4.160 -0.6288  0.6948 -1.0417
13565TIP3   OH262109   0.079   3.549  12.177 -0.0444 -0.0193  0.3170
13565TIP3    H162110   0.154   3.545  12.118  0.3248 -0.1368  0.7961
13565TIP3    H262111   0.023   3.617  12.138 -0.0527 -0.4497 -0.4508
13566TIP3   OH262112   6.753   4.247   0.552  0.1712  0.2076 -0.0522
13566TIP3    H162113   6.703   4.166   0.550 -1.0250  0.8842  0.6040
13566TIP3    H262114   6.707   4.305   0.491  0.9960  0.4165 -0.4969
13567TIP3   OH262115   0.312   2.106   4.946 -0.0502  0.0759 -0.4249
13567TIP3    H162116   0.406   2.095   4.929 -0.3965 -1.9871 -1.4328
13567TIP3    H262117   0.289   2.029   4.998 -0.8005  1.7145  1.7863
13568TIP3   OH262118   4.355   2.266  15.611  0.2292  0.1685 -0.0668
13568TIP3    H162119   4.339   2.211  15.535  0.3652  2.2779 -1.7113
13568TIP3    H262120   4.271   2.311  15.626  0.7796  1.3035 -0.2959
13569TIP3   OH262121   2.204   5.810  15.081 -0.1410  0.6142  1.1028
13569TIP3    H162122   2.280   5.775  15.127  0.8744 -1.7819 -1.9996
13569TIP3    H262123   2.239   5.881  15.027 -0.0432 -0.3823 -0.2068
13570TIP3   OH262124   3.110   1.074  11.367  0.0461  0.7286  0.1910
13570TIP3    H162125   3.112   0.990  11.320 -2.6459  0.3583  0.5643
13570TIP3    H262126   3.136   1.051  11.457 -0.6501  0.2800  0.2850
13571TIP3   OH262127   1.492   4.459  13.732 -0.6297 -0.1729 -0.0780
13571TIP3    H162128   1.486   4.364  13.724  1.0492 -0.3362  0.3052
13571TIP3    H262129   1.512   4.490  13.643 -1.4135 -0.1322 -0.2510
13572TIP3   OH262130   4.473   1.322  15.437  0.8063  0.2058  0.3395
13572TIP3    H162131   4.419   1.243  15.424  0.2283  0.5778  0.4492
13572TIP3    H262132   4.499   1.348  15.349 -1.1602  1.3731  0.0493
13573TIP3   OH262133   1.590   1.809   3.261  0.0226  0.3265 -0.5539
13573TIP3    H162134   1.595   1.714   3.269 -2.0486  0.3297  2.8190
13573TIP3    H262135   1.655   1.841   3.324 -2.3472  0.9270  1.7810
13574TIP3   OH262136   2.201   5.809  14.653 -0.2859  0.3251 -0.0638
13574TIP3    H162137   2.115   5.834  14.686  0.4424  0.9412  1.4807
13574TIP3    H262138   2.236   5.890  14.614  0.0385  0.3771  0.3308
13575TIP3   OH262139   6.309   1.511  14.127 -0.1769 -0.1645  0.0825
13575TIP3    H162140   6.301   1.505  14.032 -1.5573  2.4419 -0.0577
13575TIP3    H262141   6.220   1.502  14.159 -0.2018  2.1393  0.8265
13576TIP3   OH262142   1.849   4.507  11.372 -0.1430  0.2605 -0.4483
13576TIP3    H162143   1.844   4.559  11.453 -0.5302  0.7670 -0.7876
13576TIP3    H262144   1.867   4.571  11.303 -3.9295  0.5463 -1.3927
13577TIP3   OH262145   4.808   3.658  14.207 -0.2641 -0.1080  0.0830
13577TIP3    H162146   4.889   3.686  14.252 -0.1383  0.9875 -0.7785
13577TIP3    H262147   4.799   3.566  14.230  1.9609 -0.6375 -0.8337
13578TIP3   OH262148   6.268   0.453   4.500 -0.0696  0.3702  0.1753
13578TIP3    H162149   6.292   0.532   4.452 -0.1767  0.0973 -0.3265
13578TIP3    H262150   6.193   0.480   4.554 -1.4609  0.1039 -1.5345
13579TIP3   OH262151   3.388   1.060  15.495 -0.1877  0.9180 -0.5363
13579TIP3    H162152   3.480   1.039  15.509 -0.4794  0.1262  0.2946
13579TIP3    H262153   3.358   0.997  15.429 -0.5387  0.0274  0.4353
13580TIP3   OH262154   1.984   2.031   6.767 -0.2177  0.1191  0.0704
13580TIP3    H162155   2.070   2.004   6.798 -2.3195 -2.8248  4.4706
13580TIP3    H262156   1.951   1.954   6.720 -1.5058 -0.0516  1.1967
13581TIP3   OH262157   5.473   0.368  12.013 -0.0183 -0.0834 -0.3792
13581TIP3    H162158   5.416   0.314  12.068 -0.1375 -0.5791 -0.9753
13581TIP3    H262159   5.532   0.411  12.074  1.0434 -2.0130  0.0203
13582TIP3   OH262160   4.931   1.705  16.498 -0.0516  0.2411  0.5361
13582TIP3    H162161   4.961   1.766  16.565  1.0563  0.2864  0.0267
13582TIP3    H262162   4.836   1.704  16.507  0.1000 -0.1682  2.4642
13583TIP3   OH262163   0.744   4.881  11.927 -0.1599  0.1074 -0.2212
13583TIP3    H162164   0.678   4.936  11.885  1.0347 -0.2937 -2.8365
13583TIP3    H262165   0.694   4.822  11.983 -1.6885  1.9762  0.4846
13584TIP3   OH262166   3.419   1.605   5.963 -0.5200 -0.1962 -0.3905
13584TIP3    H162167   3.378   1.651   6.036  0.8333 -0.7964  0.7791
13584TIP3    H262168   3.513   1.620   5.974 -0.2330 -1.0883 -1.4598
13585TIP3   OH262169   4.287   1.456  16.760 -0.2627  0.1486 -0.0195
13585TIP3    H162170   4.358   1.454  16.824  0.8342  1.2338 -1.1262
13585TIP3    H262171   4.272   1.364  16.738  1.4160 -0.0904 -0.3521
13586TIP3   OH262172   4.862   3.218   5.735 -0.5318 -0.3544  0.3202
13586TIP3    H162173   4.768   3.229   5.728 -0.4754 -0.2612 -0.3447
13586TIP3    H262174   4.894   3.302   5.767 -0.5455  0.0582 -0.7033
13587TIP3   OH262175   3.025   3.991  13.508  0.0889 -0.1873 -0.3540
13587TIP3    H162176   2.969   4.066  13.526 -0.4935 -0.7234  0.1213
13587TIP3    H262177   3.015   3.976  13.414  0.6734  0.6836 -0.5655
13588TIP3   OH262178   1.117   5.626   0.529 -0.5575  0.1881 -0.0652
13588TIP3    H162179   1.189   5.629   0.591 -0.8827 -0.8667  0.4002
13588TIP3    H262180   1.106   5.533   0.510 -1.3356  0.3910 -0.6710
13589TIP3   OH262181   3.540   0.987   0.999 -0.3220 -0.3128  0.1830
13589TIP3    H162182   3.547   0.891   0.999  0.2436 -0.2832  1.3502
13589TIP3    H262183   3.453   1.004   1.035 -0.1084 -0.3863  0.7505
13590TIP3   OH262184   3.002   4.776   4.472 -0.2026  0.9088  0.0837
13590TIP3    H162185   2.967   4.739   4.552 -0.4836 -3.5289 -1.8110
13590TIP3    H262186   2.940   4.749   4.404  1.6397  1.7448 -2.0692
13591TIP3   OH262187   2.193   5.754  12.929 -0.2761 -0.3493 -0.2786
13591TIP3    H162188   2.238   5.761  13.013  0.3896  0.5063 -0.6866
13591TIP3    H262189   2.263   5.745  12.865 -0.7766 -0.9620 -0.7466
13592TIP3   OH262190   6.255   1.691  12.613 -0.0217  0.2876  0.1173
13592TIP3    H162191   6.338   1.728  12.641 -0.0574  1.3346 -1.0681
13592TIP3    H262192   6.211   1.665  12.694  1.3008  0.0335  0.7766
13593TIP3   OH262193   4.127   5.554  15.911 -0.3620 -0.1059 -0.1301
13593TIP3    H162194   4.162   5.634  15.872  0.2045 -0.9402 -1.4044
13593TIP3    H262195   4.182   5.484  15.876 -1.8843 -1.2228 -0.3907
13594TIP3   OH262196   5.097   5.632  13.755 -0.5783  0.1447 -0.2873
13594TIP3    H162197   5.079   5.711  13.805 -0.2224  0.4280 -0.6040
13594TIP3    H262198   5.014   5.584  13.755 -0.4887 -0.0465  0.8965
13595TIP3   OH262199   3.580   3.537  16.168  0.6750 -0.4939 -0.4156
13595TIP3    H162200   3.594   3.613  16.113 -1.1825 -0.1274 -0.4183
13595TIP3    H262201   3.529   3.569  16.242  1.2278 -1.4274  0.4027
13596TIP3   OH262202   4.294   1.056   4.526  0.4128  0.1023 -0.0083
13596TIP3    H162203   4.329   0.967   4.521  0.4907  0.1785 -1.0826
13596TIP3    H262204   4.278   1.081   4.435 -3.3325 -0.2988  0.3565
13597TIP3   OH262205   3.961   3.594  15.474 -0.1470  0.1997 -0.8278
13597TIP3    H162206   3.960   3.504  15.441 -0.4945 -0.5050  0.9547
13597TIP3    H262207   4.053   3.619  15.474  0.0289 -0.4276 -0.7027
13598TIP3   OH262208   2.547   3.848   2.038  0.3767 -0.2719  0.0306
13598TIP3    H162209   2.596   3.779   1.994  0.0014 -0.6775  0.2476
13598TIP3    H262210   2.464   3.808   2.061 -0.0214  0.3807 -0.2313
13599TIP3   OH262211   6.196   5.992  14.693 -0.2950 -0.5734  0.1763
13599TIP3    H162212   6.185   5.897  14.687  2.4979 -1.0166  0.7239
13599TIP3    H262213   6.281   6.004  14.735  0.4136  2.1612 -1.7163
13600TIP3   OH262214   3.861   3.174  14.491 -0.8251  0.3533  0.6924
13600TIP3    H162215   3.854   3.079  14.479 -0.7190  0.4091  0.1274
13600TIP3    H262216   3.775   3.208  14.468 -0.3541  0.5486 -0.9207
13601TIP3   OH262217   6.172   5.518   5.790 -0.2555  0.1180  0.3256
13601TIP3    H162218   6.089   5.495   5.749 -1.0771  0.5729  1.6863
13601TIP3    H262219   6.216   5.433   5.803 -0.8971 -0.2131  0.3964
13602TIP3   OH262220   5.257   2.367   4.186 -0.2610  0.1253 -0.9630
13602TIP3    H162221   5.240   2.324   4.270  2.5649  1.0661  0.2307
13602TIP3    H262222   5.306   2.302   4.135 -0.5549  0.1320 -1.2604
13603TIP3   OH262223   2.988   4.886   3.013 -0.0064 -0.3662 -0.3991
13603TIP3    H162224   2.984   4.883   2.918  1.3673 -0.7196 -0.4541
13603TIP3    H262225   2.991   4.980   3.034 -0.6974 -0.2753 -0.6636
13604TIP3   OH262226   4.035   4.751  12.304  0.0468 -0.0502 -0.1966
13604TIP3    H162227   4.127   4.778  12.294  0.4376 -0.8234  1.1650
13604TIP3    H262228   4.008   4.727  12.215  1.1784  0.1141 -0.6039
13605TIP3   OH262229   5.836   6.045   2.976 -0.2031  0.2034 -0.4657
13605TIP3    H162230   5.772   6.059   2.906 -0.3103  0.5500 -0.3005
13605TIP3    H262231   5.854   6.132   3.010  0.4762  0.1226 -0.6093
13606TIP3   OH262232   2.322   2.730  12.680  0.2067  0.0929  0.0817
13606TIP3    H162233   2.370   2.733  12.763  0.4119  1.1603 -0.0694
13606TIP3    H262234   2.389   2.735  12.613 -0.0643  0.7697 -0.1386
13607TIP3   OH262235   2.425   5.548  11.531 -0.1448 -0.2343  0.6680
13607TIP3    H162236   2.466   5.513  11.452  1.3348  0.7498  0.9619
13607TIP3    H262237   2.341   5.502  11.537  0.0827 -0.9360 -1.0002
13608TIP3   OH262238   3.770   4.623  14.613 -0.3097  0.3331 -0.1703
13608TIP3    H162239   3.695   4.565  14.625 -0.7975  0.6941 -1.3855
13608TIP3    H262240   3.773   4.640  14.519  1.6820 -0.1851 -0.2629
13609TIP3   OH262241   1.935   5.071   2.659  0.2310  0.2975  0.2624
13609TIP3    H162242   1.859   5.056   2.604 -0.1340 -0.4243  0.9423
13609TIP3    H262243   1.950   4.987   2.704  0.1088  1.0366  1.7456
13610TIP3   OH262244   3.647   1.614  12.560 -0.4821 -0.4779 -0.5401
13610TIP3    H162245   3.713   1.661  12.509  0.3655 -0.9328  0.1209
13610TIP3    H262246   3.577   1.678  12.572 -0.3276 -0.0979 -1.5499
13611TIP3   OH262247   4.562   3.232  16.177 -0.1355 -0.0014 -0.8818
13611TIP3    H162248   4.502   3.167  16.214  1.5555  0.3690  3.0321
13611TIP3    H262249   4.634   3.180  16.141 -0.3012 -0.3595 -0.7048
13612TIP3   OH262250   3.280   3.771  16.129  0.0793 -0.3328  0.4161
13612TIP3    H162251   3.285   3.675  16.125 -0.3883 -0.3851  0.9282
13612TIP3    H262252   3.191   3.790  16.099  0.2284 -0.0496  0.1628
13613TIP3   OH262253   2.655   2.849  12.444 -0.6538  0.7054 -0.4534
13613TIP3    H162254   2.690   2.835  12.356  0.0472 -0.1866 -0.0473
13613TIP3    H262255   2.645   2.761  12.481  0.1299  1.0955  0.7569
13614TIP3   OH262256   4.628   4.418  15.314  0.4663 -0.8228  0.3088
13614TIP3    H162257   4.577   4.498  15.300  1.0578 -0.5403 -0.3062
13614TIP3    H262258   4.692   4.441  15.381  0.8584 -0.6683 -0.1115
13615TIP3   OH262259   6.258   6.102   3.476  0.2000  0.1541 -0.0547
13615TIP3    H162260   6.351   6.087   3.461  0.3285  1.3604 -0.5898
13615TIP3    H262261   6.253   6.133   3.566  0.2382 -0.4625  0.1647
13616TIP3   OH262262   4.557   1.716   2.264  0.0144 -0.1670  0.0414
13616TIP3    H162263   4.541   1.741   2.173 -1.4725  2.4921  0.9345
13616TIP3    H262264   4.653   1.715   2.271  0.1951 -1.5059 -1.7631
13617TIP3   OH262265   1.116   4.819  11.733  0.3935 -0.4824 -0.0909
13617TIP3    H162266   1.050   4.882  11.704  2.3378  1.4142 -0.6479
13617TIP3    H262267   1.085   4.789  11.819 -1.1327  0.4060 -0.2995
13618TIP3   OH262268   6.730   0.604   0.002 -0.4205  0.0001  0.7906
13618TIP3    H162269   6.635   0.613  -0.001 -0.6371 -1.9790 -0.6213
13618TIP3    H262270   6.749   0.565   0.087 -0.8906  0.1897  0.9816
13619TIP3   OH262271   3.024   2.559   3.510 -0.0955  0.6060 -0.0012
13619TIP3    H162272   2.958   2.490   3.520  0.0573  0.2817 -1.0944
13619TIP3    H262273   3.055   2.575   3.599  2.1336 -2.9947  0.0445
13620TIP3   OH262274   3.117   5.717  12.661 -0.2426 -0.1956 -0.0128
13620TIP3    H162275   3.052   5.786  12.677  0.6409  0.6456  0.0810
13620TIP3    H262276   3.180   5.726  12.732  0.3437 -0.5464 -0.4759
13621TIP3   OH262277   1.775   2.772  14.162  0.4685 -0.3034 -0.1064
13621TIP3    H162278   1.681   2.770  14.175  0.7688  0.1198  2.5904
13621TIP3    H262279   1.796   2.686  14.124 -0.7228 -1.3904  1.5697
13622TIP3   OH262280   3.609   2.155   1.141  0.1898 -0.2951  0.5774
13622TIP3    H162281   3.528   2.107   1.159 -0.0311 -0.3136 -0.3979
13622TIP3    H262282   3.679   2.093   1.162 -0.0879 -0.8904 -0.1904
13623TIP3   OH262283   5.506   2.590  16.148 -0.0390 -0.8974 -0.3677
13623TIP3    H162284   5.601   2.602  16.153 -0.0077 -1.2313 -0.0860
13623TIP3    H262285   5.471   2.677  16.128  0.2900 -0.6845 -0.0230
13624TIP3   OH262286   0.945   3.828   0.876 -0.0435  0.0077  0.3817
13624TIP3    H162287   0.862   3.870   0.898 -0.5863 -1.3099  0.9975
13624TIP3    H262288   0.951   3.755   0.938  2.4307  1.0917  1.5594
13625TIP3   OH262289   0.391   2.228   0.875  0.0237  0.0754 -0.3863
13625TIP3    H162290   0.325   2.289   0.841 -0.4903 -0.1706  0.1446
13625TIP3    H262291   0.422   2.270   0.955 -0.0694 -0.1859 -0.2126
13626TIP3   OH262292   1.832   2.341  13.373  0.5637  0.1273  0.4133
13626TIP3    H162293   1.907   2.282  13.371 -0.2219 -0.9064 -1.3578
13626TIP3    H262294   1.817   2.358  13.466  2.0696 -0.8081  0.8635
13627TIP3   OH262295   1.129   1.133  17.001 -0.2095  0.7945 -0.1935
13627TIP3    H162296   1.035   1.146  17.004 -0.1234  1.3104  0.4840
13627TIP3    H262297   1.141   1.039  17.017 -0.6062  0.7009 -0.4405
13628TIP3   OH262298   1.227   0.792  15.978 -0.3985  0.2242  0.3171
13628TIP3    H162299   1.167   0.866  15.983  0.2300  0.7139  0.7963
13628TIP3    H262300   1.213   0.756  15.890  0.9575  2.3967 -0.9066
13629TIP3   OH262301   2.410   1.950   5.897  0.1407 -0.2619 -0.0391
13629TIP3    H162302   2.466   1.918   5.826 -0.3776 -0.1297 -0.5093
13629TIP3    H262303   2.387   1.872   5.947 -0.9011 -0.6056 -1.0253
13630TIP3   OH262304   3.728   4.720  14.952 -0.0243  0.1433  0.0521
13630TIP3    H162305   3.808   4.667  14.957  0.8199  1.2583 -1.1478
13630TIP3    H262306   3.746   4.785  14.885 -0.8644  2.2580  1.7438
13631TIP3   OH262307   0.255   1.830  15.841 -0.0858  0.5226  0.1823
13631TIP3    H162308   0.321   1.899  15.838 -0.1612  0.6337  0.9602
13631TIP3    H262309   0.222   1.825  15.751  1.1945  0.2381 -0.2948
13632TIP3   OH262310   2.637   2.272   0.167  0.0142 -0.4211 -0.1155
13632TIP3    H162311   2.552   2.317   0.166 -0.4167 -1.1414  1.4203
13632TIP3    H262312   2.621   2.193   0.219  1.5970 -0.6519  0.0450
13633TIP3   OH262313   1.890   2.683   5.412 -0.3435  0.0952 -0.4196
13633TIP3    H162314   1.803   2.661   5.445  0.7490 -1.5646  1.5865
13633TIP3    H262315   1.924   2.601   5.376  0.2148  0.8578 -1.7313
13634TIP3   OH262316   5.353   4.178   2.557  0.3577 -0.1337  0.6382
13634TIP3    H162317   5.370   4.180   2.651  0.6092  2.5905  0.6152
13634TIP3    H262318   5.439   4.161   2.518  0.4629 -0.1666  0.8798
13635TIP3   OH262319   0.293   0.413   3.840 -0.0356 -0.0138 -0.4025
13635TIP3    H162320   0.284   0.324   3.873 -0.6102 -0.1862 -0.9989
13635TIP3    H262321   0.203   0.443   3.828  0.0012  1.8704  2.9229
13636TIP3   OH262322   5.761   1.184  10.477  0.4497 -0.5474  0.1108
13636TIP3    H162323   5.699   1.256  10.468 -0.7890 -1.8198 -2.2140
13636TIP3    H262324   5.842   1.218  10.438 -0.4421 -0.7325 -1.9842
13637TIP3   OH262325   6.184   5.134  13.695  1.0367 -0.2471 -0.3541
13637TIP3    H162326   6.270   5.123  13.737  1.1905 -1.0698 -0.8594
13637TIP3    H262327   6.122   5.094  13.756  1.2427 -1.3104 -0.8212
13638TIP3   OH262328   5.431   1.263   0.998 -0.2430 -0.0427 -0.2624
13638TIP3    H162329   5.430   1.169   0.979 -0.5363  0.0240 -0.5922
13638TIP3    H262330   5.338   1.286   1.007 -0.1392  0.0596  0.6062
13639TIP3   OH262331   6.267   4.732   1.631 -0.2129  0.2926  0.2992
13639TIP3    H162332   6.207   4.696   1.696 -0.1073 -2.2923 -0.9194
13639TIP3    H262333   6.210   4.758   1.559 -0.0546 -0.3330 -0.0594
13640TIP3   OH262334   5.435   0.411  16.546  0.4635  0.0666 -0.0549
13640TIP3    H162335   5.363   0.462  16.509  1.4580 -0.3501 -2.7434
13640TIP3    H262336   5.392   0.346  16.602 -1.2137  0.1352 -1.1841
13641TIP3   OH262337   0.328   0.461   1.756 -0.1469 -0.0603  0.0561
13641TIP3    H162338   0.256   0.417   1.711  0.5007 -1.3163  0.1873
13641TIP3    H262339   0.395   0.473   1.689 -0.3617  0.8798 -0.0080
13642TIP3   OH262340   6.691   3.820   0.213  0.4852  0.1179  0.2754
13642TIP3    H162341   6.601   3.801   0.188  0.5020  1.5505 -1.0918
13642TIP3    H262342   6.710   3.760   0.285 -2.6785  2.0001  2.9441
13643TIP3   OH262343   6.201   3.430   2.486  0.1173  0.3372 -0.0853
13643TIP3    H162344   6.158   3.470   2.411  0.3266 -2.7043 -1.9783
13643TIP3    H262345   6.294   3.432   2.465  0.1282 -1.1113 -0.2764
13644TIP3   OH262346   0.526   0.127  15.896  0.8375  0.2850 -0.4021
13644TIP3    H162347   0.604   0.086  15.934  1.5683 -0.6740 -2.7430
13644TIP3    H262348   0.460   0.058  15.895  0.4655  0.6284  0.1153
13645TIP3   OH262349   2.046   5.440   5.470  0.0917  0.8171  0.1977
13645TIP3    H162350   2.026   5.531   5.488 -0.6821  0.9377 -1.1485
13645TIP3    H262351   2.108   5.443   5.397  0.8079  0.2739  0.7593
13646TIP3   OH262352   0.573   0.726   3.060  0.1037 -0.0785  0.0074
13646TIP3    H162353   0.514   0.664   3.103 -2.1470  1.8295 -0.1362
13646TIP3    H262354   0.597   0.788   3.129 -2.8250  2.4898 -1.0457
13647TIP3   OH262355   0.088   1.827   3.225  0.0279  0.1579  0.0172
13647TIP3    H162356   0.133   1.894   3.173  0.4334 -0.2212 -0.1265
13647TIP3    H262357  -0.005   1.843   3.210  0.1374 -0.7176 -1.8229
13648TIP3   OH262358   0.294   1.711  13.405 -0.1677  0.5711  0.2024
13648TIP3    H162359   0.355   1.783  13.387  0.5601 -0.1670 -0.3317
13648TIP3    H262360   0.333   1.664  13.479 -0.9873  1.0923  0.9978
13649TIP3   OH262361   1.909   0.941  10.734 -0.6550  0.2743 -0.0732
13649TIP3    H162362   1.846   0.968  10.667 -0.5175  0.6865 -0.0416
13649TIP3    H262363   1.976   1.009  10.732  0.3263 -0.6993 -0.8279
13650TIP3   OH262364   0.186   1.885  15.582 -0.1841  0.4763 -0.0319
13650TIP3    H162365   0.149   1.972  15.567 -0.4038  0.5128  0.6852
13650TIP3    H262366   0.264   1.882  15.526 -1.8356 -0.0304 -2.4955
13651TIP3   OH262367   1.852   2.632  16.599  0.1947  0.0236  0.3508
13651TIP3    H162368   1.909   2.700  16.635 -1.9934  2.1817 -0.0216
13651TIP3    H262369   1.782   2.680  16.556  0.5245 -2.4586 -3.3494
13652TIP3   OH262370   3.239   3.219   2.794 -0.3717 -0.3715  0.0550
13652TIP3    H162371   3.267   3.145   2.740 -0.8854 -0.6282  0.1358
13652TIP3    H262372   3.168   3.259   2.744  0.3145  0.4582 -0.2951
13653TIP3   OH262373   4.849   1.055  12.824  0.4294  0.1114 -0.9423
13653TIP3    H162374   4.846   1.058  12.728  1.3302  0.4496 -0.9698
13653TIP3    H262375   4.846   1.147  12.851 -0.6145 -0.0136 -0.6094
13654TIP3   OH262376   3.977   6.034  11.118  0.4165  0.0657 -0.0745
13654TIP3    H162377   3.947   6.009  11.031  1.4086 -0.4819 -0.2662
13654TIP3    H262378   4.061   6.077  11.103  2.0243 -2.5419  0.8064
13655TIP3   OH262379   5.210   1.171  10.425  1.0087 -0.5738 -0.3186
13655TIP3    H162380   5.257   1.151  10.506 -2.5149  0.3729  2.2124
13655TIP3    H262381   5.184   1.086  10.390  0.3950 -0.9705  1.0309
13656TIP3   OH262382   6.607   6.571  14.842 -0.1282 -0.2713  0.3190
13656TIP3    H162383   6.570   6.627  14.774  1.3129  1.2635  0.7370
13656TIP3    H262384   6.531   6.539  14.891 -0.9957  1.9839  0.5566
13657TIP3   OH262385   4.420   3.399  14.077  0.4646 -0.3055  0.0540
13657TIP3    H162386   4.463   3.363  14.154  1.0723  1.3717  0.5425
13657TIP3    H262387   4.418   3.494  14.092 -2.4881 -0.1903 -0.4106
13658TIP3   OH262388   2.195   4.510  16.947 -0.0164 -0.5845 -0.7014
13658TIP3    H162389   2.198   4.596  16.989 -0.1165 -1.4144  1.0669
13658TIP3    H262390   2.285   4.495  16.917  1.0898 -1.5302  2.6166
13659TIP3   OH262391   0.763   2.290   1.249  0.0209 -0.4841 -0.3243
13659TIP3    H162392   0.771   2.215   1.308 -2.2026 -0.1121  0.5670
13659TIP3    H262393   0.829   2.353   1.280  0.3598 -1.1721  0.3731
13660TIP3   OH262394   3.201   0.651  12.599  0.0236  0.1765  0.5218
13660TIP3    H162395   3.121   0.671  12.646 -1.2397 -0.7443 -1.1356
13660TIP3    H262396   3.183   0.568  12.556  1.7891  0.0730 -0.0859
13661TIP3   OH262397   3.839   2.845   3.083 -0.3217  0.4631 -0.4842
13661TIP3    H162398   3.782   2.801   3.146  0.1721  1.1103  0.4363
13661TIP3    H262399   3.780   2.876   3.015 -0.8812 -0.1283 -0.2812
13662TIP3   OH262400   6.702   1.939   4.946 -0.1379  0.4863  0.4731
13662TIP3    H162401   6.698   1.886   4.866 -0.6184 -0.2281  0.9591
13662TIP3    H262402   6.775   1.903   4.996 -0.8069 -0.0911  1.0516
13663TIP3   OH262403   5.229   0.001   2.163  0.1950  0.5652 -0.0272
13663TIP3    H162404   5.183  -0.071   2.207  1.7639 -0.6757 -0.3458
13663TIP3    H262405   5.268  -0.039   2.086 -0.7863  2.2749 -1.4963
13664TIP3   OH262406   5.592   6.619   2.550  0.2413 -0.2902 -0.2686
13664TIP3    H162407   5.653   6.675   2.502  0.6724 -0.4875  0.0461
13664TIP3    H262408   5.559   6.675   2.621  0.2698 -0.2740 -0.2681
13665TIP3   OH262409   0.688   5.159  13.593 -0.2122 -0.0432  0.4751
13665TIP3    H162410   0.663   5.149  13.501 -1.1657  1.6870  0.4932
13665TIP3    H262411   0.783   5.149  13.594 -0.3221 -1.5517 -0.4422
13666TIP3   OH262412   4.495   4.903   1.774  0.1270 -0.3269  0.4316
13666TIP3    H162413   4.416   4.951   1.799  0.2196  0.9078 -1.4420
13666TIP3    H262414   4.466   4.812   1.764 -0.0945 -0.7705  3.8813
13667TIP3   OH262415   4.226   0.322  12.638  0.0308 -0.1503  0.6820
13667TIP3    H162416   4.221   0.393  12.574  0.5740 -0.8228 -0.1212
13667TIP3    H262417   4.150   0.336  12.694 -1.5205 -0.5625 -1.1940
13668TIP3   OH262418   1.473   5.539   3.741  0.0693 -0.0870  0.1520
13668TIP3    H162419   1.436   5.453   3.760  0.7513 -0.5287 -0.4869
13668TIP3    H262420   1.548   5.522   3.684 -1.1813  1.0949 -1.9719
13669TIP3   OH262421   0.583   6.265   2.129 -0.2487 -0.0508  0.1584
13669TIP3    H162422   0.675   6.286   2.110  0.4403 -1.7977  1.3614
13669TIP3    H262423   0.555   6.210   2.056 -0.7710  1.4239 -0.8239
13670TIP3   OH262424   5.547   5.712   1.468  0.0072 -0.4796  0.1001
13670TIP3    H162425   5.614   5.725   1.535  0.8207  2.8943 -1.1494
13670TIP3    H262426   5.466   5.742   1.509  0.5674  1.9352 -0.4224
13671TIP3   OH262427   2.652   5.778  12.308 -0.5035  0.2659  0.3451
13671TIP3    H162428   2.689   5.730  12.382 -0.2059 -0.1951 -0.0933
13671TIP3    H262429   2.725   5.785  12.245 -0.8798  0.2311 -0.1027
13672TIP3   OH262430   4.814   3.841  17.220  0.1385 -0.3819 -0.3045
13672TIP3    H162431   4.837   3.854  17.312  1.3374 -0.0372 -0.6285
13672TIP3    H262432   4.886   3.787  17.186 -0.0661 -0.1363 -1.1392
13673TIP3   OH262433   3.104   0.386   4.848  0.2006 -0.4665 -0.7294
13673TIP3    H162434   3.047   0.362   4.921  1.0935  1.2967  0.6440
13673TIP3    H262435   3.176   0.323   4.853  0.1713 -0.4654 -0.1603
13674TIP3   OH262436   1.375   4.420   4.623  0.5174 -0.7903  0.7659
13674TIP3    H162437   1.431   4.349   4.588  0.2823  1.1072 -4.3705
13674TIP3    H262438   1.287   4.384   4.619  0.7301 -1.5916  2.5080
13675TIP3   OH262439   1.148   6.381  12.995 -0.5425 -0.2500  0.5787
13675TIP3    H162440   1.091   6.338  12.931 -0.1752 -0.9882  0.7369
13675TIP3    H262441   1.108   6.467  13.009 -1.7125 -0.8220  0.8183
13676TIP3   OH262442   5.212   4.077  12.301 -0.4085  0.0535  0.4375
13676TIP3    H162443   5.285   4.112  12.250 -0.2054  0.6078  1.0857
13676TIP3    H262444   5.156   4.033  12.237 -0.5272  1.3328 -0.3634
13677TIP3   OH262445   0.624   1.804  11.471 -0.1571  0.5733  0.1811
13677TIP3    H162446   0.650   1.766  11.555 -0.0772 -0.9488 -0.5024
13677TIP3    H262447   0.633   1.899  11.483 -0.2592  0.3845  1.9168
13678TIP3   OH262448   1.599   5.606   6.389 -0.1273 -0.4614 -0.7508
13678TIP3    H162449   1.658   5.674   6.356  0.1956 -1.0623 -1.4489
13678TIP3    H262450   1.568   5.640   6.472 -1.6252  1.5149 -2.0181
13679TIP3   OH262451   5.490   4.706   4.718  0.1713 -0.1943  0.4027
13679TIP3    H162452   5.494   4.797   4.748 -1.2593 -0.3343  1.0966
13679TIP3    H262453   5.566   4.664   4.758  0.5311  0.5650  0.5299
13680TIP3   OH262454   0.811   3.224  10.689 -0.2609 -0.2718  0.4962
13680TIP3    H162455   0.802   3.317  10.666  2.6377  0.6595  2.5118
13680TIP3    H262456   0.723   3.188  10.681 -1.3999  2.5214 -0.8021
13681TIP3   OH262457   0.228   3.419  13.158  0.1198  0.2555  0.4756
13681TIP3    H162458   0.211   3.329  13.131 -3.7715  0.9794 -0.0389
13681TIP3    H262459   0.223   3.417  13.253 -1.7391  0.1259  0.4122
13682TIP3   OH262460   0.842   5.300  12.964  0.0197 -0.0227  0.4138
13682TIP3    H162461   0.836   5.222  12.909  1.9367 -0.2487  0.4674
13682TIP3    H262462   0.925   5.291  13.010  1.1267  2.8209 -0.7918
13683TIP3   OH262463   6.578   5.368   0.569 -0.0483  0.1196 -0.3406
13683TIP3    H162464   6.514   5.316   0.616 -0.2016 -0.8049 -1.5255
13683TIP3    H262465   6.535   5.453   0.555 -0.4080  0.0337  0.2077
13684TIP3   OH262466   4.957   6.306   0.038 -0.1489 -0.1394  0.3897
13684TIP3    H162467   4.983   6.398   0.029 -1.3305  0.2856  1.1124
13684TIP3    H262468   4.887   6.307   0.103  1.0851 -1.7924  1.8305
13685TIP3   OH262469   3.344   6.513  11.303 -0.5969 -0.2590  0.1610
13685TIP3    H162470   3.286   6.526  11.228 -2.7537  0.6749  1.8951
13685TIP3    H262471   3.289   6.529  11.380  1.0476 -2.8464  2.0580
13686TIP3   OH262472   5.877   5.825   4.506 -0.0523 -0.3540  0.4238
13686TIP3    H162473   5.811   5.846   4.440 -0.5661  0.2233  1.1101
13686TIP3    H262474   5.959   5.818   4.456 -0.0908  1.8633 -0.0677
13687TIP3   OH262475   5.376   4.664  15.295 -0.2662  0.1850  0.3034
13687TIP3    H162476   5.456   4.688  15.248 -0.1709 -0.1122  0.3153
13687TIP3    H262477   5.382   4.710  15.378  0.1831 -0.3235  0.5552
13688TIP3   OH262478   3.212   3.351   3.217  0.3304  0.3071 -0.1190
13688TIP3    H162479   3.263   3.297   3.157  1.6439 -0.0860  1.2880
13688TIP3    H262480   3.121   3.328   3.200  0.8404 -2.7047  0.6847
13689TIP3   OH262481   2.722   2.651  15.616 -0.0032  0.0110 -0.0295
13689TIP3    H162482   2.753   2.591  15.684  0.7963 -0.9282 -1.1700
13689TIP3    H262483   2.639   2.614  15.588  0.3257 -0.3866 -0.4963
13690TIP3   OH262484   4.253   6.201  15.285 -0.1558 -0.5141 -0.3422
13690TIP3    H162485   4.248   6.207  15.381 -2.0259  0.8070 -0.4655
13690TIP3    H262486   4.342   6.229  15.263  0.5926 -1.6718  1.0343
13691TIP3   OH262487   3.663   4.407   6.514  0.4033 -0.1763  0.5481
13691TIP3    H162488   3.756   4.387   6.507  0.1894 -0.7171 -1.3540
13691TIP3    H262489   3.658   4.502   6.503  0.7040 -0.2084  0.0983
13692TIP3   OH262490   5.562   2.583  10.718 -0.6673 -0.0994  0.0244
13692TIP3    H162491   5.492   2.586  10.653 -0.0966 -1.5339 -0.6873
13692TIP3    H262492   5.583   2.490  10.727 -0.1216  0.1504  1.6125
13693TIP3   OH262493   5.407   4.245  13.841 -0.4439  0.0890  0.2299
13693TIP3    H162494   5.494   4.219  13.812 -1.2034 -1.7760 -0.4902
13693TIP3    H262495   5.420   4.280  13.929  0.7271 -2.5508  1.1771
13694TIP3   OH262496   5.015   4.827  14.387 -0.4870  0.2203  0.3218
13694TIP3    H162497   5.050   4.870  14.309 -0.3867 -0.6258 -0.1106
13694TIP3    H262498   5.091   4.791  14.432 -0.7137 -1.1753 -0.3510
13695TIP3   OH262499   4.927   4.876  16.807  0.4105 -0.6114  0.0679
13695TIP3    H162500   4.899   4.893  16.717  0.1966 -0.6081  0.1350
13695TIP3    H262501   4.851   4.836  16.848  0.7700 -1.3620  0.0268
13696TIP3   OH262502   3.905   3.800   4.264  0.0469  0.1776 -0.5916
13696TIP3    H162503   3.867   3.887   4.253 -1.7944 -0.6164 -0.7994
13696TIP3    H262504   3.896   3.782   4.358 -1.5690 -0.6084 -0.8546
13697TIP3   OH262505   4.364   2.760   0.395  0.4043  0.2986  0.7966
13697TIP3    H162506   4.365   2.666   0.379 -2.7849  0.3132 -0.1328
13697TIP3    H262507   4.295   2.773   0.460 -0.7067  2.0909 -0.6233
13698TIP3   OH262508   4.526   5.917   3.334  0.2154  0.1528 -0.5582
13698TIP3    H162509   4.449   5.975   3.331  0.5862  0.6759 -0.1741
13698TIP3    H262510   4.563   5.931   3.421 -0.5016 -1.7458  0.0978
13699TIP3   OH262511   5.435   5.318   1.192  0.4365  0.2924 -0.1267
13699TIP3    H162512   5.375   5.330   1.265  1.8096  3.2522  0.6548
13699TIP3    H262513   5.519   5.297   1.233  0.4697 -1.8489 -1.1182
13700TIP3   OH262514   2.175   1.512  12.266 -0.8960  0.0326  0.4408
13700TIP3    H162515   2.085   1.524  12.237 -1.5564 -2.8418  1.0159
13700TIP3    H262516   2.227   1.515  12.186 -1.6469  0.4476 -0.0378
13701TIP3   OH262517   4.173   3.776   6.200  0.1464 -0.3061 -0.1424
13701TIP3    H162518   4.243   3.775   6.265 -0.0333  1.2244  0.1253
13701TIP3    H262519   4.096   3.745   6.247  0.4667 -1.2906 -0.2384
13702TIP3   OH262520   2.064   0.439  12.257 -0.0203 -0.1217  0.0987
13702TIP3    H162521   2.122   0.469  12.187  0.5778  1.1267  1.0885
13702TIP3    H262522   1.993   0.394  12.211  0.6138  0.2179 -1.2785
13703TIP3   OH262523   5.404   3.399  16.228  0.4719  0.2613  0.4277
13703TIP3    H162524   5.341   3.460  16.190  0.6739  0.7660  0.9031
13703TIP3    H262525   5.371   3.313  16.204  0.1472  0.5520 -0.1916
13704TIP3   OH262526   3.971   0.876  13.443 -0.7792  0.6026 -0.3322
13704TIP3    H162527   3.982   0.936  13.369  3.0406 -0.3772 -0.7637
13704TIP3    H262528   3.941   0.794  13.403 -0.5335  0.6145 -0.5450
13705TIP3   OH262529   4.491   2.625   1.633 -0.1025  0.3289 -0.0955
13705TIP3    H162530   4.544   2.620   1.712  0.5053 -0.6357 -0.5534
13705TIP3    H262531   4.490   2.535   1.599  0.9504  0.9933 -2.0232
13706TIP3   OH262532   2.171   4.782   6.137  0.0350  0.3702  0.1495
13706TIP3    H162533   2.230   4.798   6.211  0.3697 -0.3237  0.0435
13706TIP3    H262534   2.144   4.691   6.148 -0.5870  0.5199 -0.1114
13707TIP3   OH262535   4.715   2.120   3.687 -0.6558 -0.0774  0.1735
13707TIP3    H162536   4.781   2.052   3.705  0.5334  0.5388 -1.5902
13707TIP3    H262537   4.654   2.078   3.627 -1.4220 -0.3826  1.1483
13708TIP3   OH262538   1.545   5.650   0.619 -0.7723  0.7232 -0.1070
13708TIP3    H162539   1.550   5.738   0.656  1.3558  1.6016 -2.1907
13708TIP3    H262540   1.636   5.620   0.617 -1.2993 -0.9464 -0.7901
13709TIP3   OH262541   5.858   2.979  16.616 -0.5897  0.4120  0.2020
13709TIP3    H162542   5.866   3.031  16.696  1.1586 -0.6170  0.7622
13709TIP3    H262543   5.946   2.941  16.603 -1.9968 -3.5204  0.6710
13710TIP3   OH262544   2.847   4.439   4.330 -0.2468 -0.3842  0.4776
13710TIP3    H162545   2.782   4.385   4.286  0.4281 -1.7304  1.0564
13710TIP3    H262546   2.922   4.440   4.270 -1.1085  2.0942 -0.7122
13711TIP3   OH262547   2.457   2.097  16.245  0.0576  0.4502 -0.1821
13711TIP3    H162548   2.453   2.019  16.300 -0.4994 -0.0537 -0.9143
13711TIP3    H262549   2.529   2.079  16.184  0.9905  1.2103  0.6610
13712TIP3   OH262550   5.934   3.407   5.557 -0.3507 -0.0151 -0.0777
13712TIP3    H162551   5.926   3.347   5.630 -0.9058 -1.3404 -1.1922
13712TIP3    H262552   5.903   3.358   5.481 -0.2448  1.4711 -1.1373
13713TIP3   OH262553   0.091   5.254  13.443  0.1263 -0.2128 -0.3210
13713TIP3    H162554   0.161   5.250  13.378  0.4721 -3.7759  0.0295
13713TIP3    H262555   0.015   5.217  13.397 -0.8436  1.2120  0.0860
13714TIP3   OH262556   0.257   6.248  15.312  0.2069 -0.6080 -0.1966
13714TIP3    H162557   0.319   6.228  15.241 -0.1629  0.6150 -0.9016
13714TIP3    H262558   0.207   6.167  15.323 -1.1017 -0.2729 -2.7771
13715TIP3   OH262559   2.355   4.483  14.640 -0.3434 -0.4210  0.3041
13715TIP3    H162560   2.337   4.406  14.586 -0.9811  0.2574 -0.4763
13715TIP3    H262561   2.326   4.557  14.587  0.0404  0.3468  1.1369
13716TIP3   OH262562   0.978   2.469   0.611 -0.1306 -0.1132  0.3969
13716TIP3    H162563   0.980   2.556   0.570  0.7281 -0.0269  0.6035
13716TIP3    H262564   0.924   2.416   0.552 -1.4477  0.7820  0.7416
13717TIP3   OH262565   0.746   0.846  15.102 -0.2333  0.1292 -0.0693
13717TIP3    H162566   0.737   0.889  15.017 -0.9395  0.1231  0.0002
13717TIP3    H262567   0.657   0.827  15.129 -0.1653  1.7276  1.4924
13718TIP3   OH262568   5.847   3.792  16.754 -0.3025  0.0136  0.1589
13718TIP3    H162569   5.817   3.882  16.739 -1.0503 -0.3603 -0.6327
13718TIP3    H262570   5.938   3.793  16.725 -0.0329  0.7304  0.9826
13719TIP3   OH262571   0.864   1.121  13.357  0.0497 -0.3852  0.0515
13719TIP3    H162572   0.835   1.135  13.448 -1.7921 -1.7455 -0.2712
13719TIP3    H262573   0.882   1.209  13.324  0.9911  0.1283  1.7702
13720TIP3   OH262574   5.164   1.464  11.521  0.1496  0.1417  0.0146
13720TIP3    H162575   5.255   1.492  11.506  0.4733 -0.7754  0.2107
13720TIP3    H262576   5.131   1.526  11.586 -0.3178  2.3020 -2.1217
13721TIP3   OH262577   0.450   4.798   1.570 -0.5157 -0.4696  0.3985
13721TIP3    H162578   0.455   4.764   1.480 -2.9896 -0.8553  0.3495
13721TIP3    H262579   0.427   4.890   1.559  2.0545  0.2782  0.6394
13722TIP3   OH262580   5.619   1.444   4.582  1.1089  0.3235  0.6701
13722TIP3    H162581   5.615   1.349   4.597  1.6133  0.1702 -0.1413
13722TIP3    H262582   5.646   1.453   4.491 -0.2138  1.2522  0.3374
13723TIP3   OH262583   1.806   4.428   2.751 -0.2050  0.0067 -0.0722
13723TIP3    H162584   1.780   4.517   2.726 -2.5205 -0.5243  0.2520
13723TIP3    H262585   1.790   4.376   2.673  0.2889 -0.2857  0.0187
13724TIP3   OH262586   0.677   4.134  14.532 -0.2396 -0.1530 -0.0042
13724TIP3    H162587   0.765   4.118  14.499  0.3367  1.2620  0.7103
13724TIP3    H262588   0.682   4.110  14.625 -0.7739 -0.6298 -0.0992
13725TIP3   OH262589   1.380   0.999  14.481 -0.1745  0.2823  0.4417
13725TIP3    H162590   1.403   0.950  14.402 -0.0123  0.1584  0.5672
13725TIP3    H262591   1.458   0.995  14.536 -0.0116  1.0425  0.2759
13726TIP3   OH262592   4.265   2.561  12.533 -0.1428 -0.0852 -0.5958
13726TIP3    H162593   4.228   2.562  12.621 -1.6981  0.4612 -1.2126
13726TIP3    H262594   4.241   2.646  12.496  0.9837 -0.0774 -1.3537
13727TIP3   OH262595   5.174   3.187   0.560 -0.4291  0.1432 -0.2185
13727TIP3    H162596   5.249   3.137   0.525  0.4541  1.0925  0.2658
13727TIP3    H262597   5.160   3.257   0.496 -0.5582  0.2824 -0.0378
13728TIP3   OH262598   5.259   0.441   5.792 -0.8296  0.0624  0.5402
13728TIP3    H162599   5.272   0.531   5.821 -0.2784  0.3021 -0.4220
13728TIP3    H262600   5.252   0.391   5.873  0.5411  0.7252  1.1047
13729TIP3   OH262601   3.714   6.337   2.270 -0.0171 -0.2938 -0.2636
13729TIP3    H162602   3.724   6.318   2.177 -1.9097 -2.8532 -0.0229
13729TIP3    H262603   3.620   6.334   2.286  0.3319 -1.5136  2.0173
13730TIP3   OH262604   4.315   4.141   6.245  0.1330 -0.0371 -0.2205
13730TIP3    H162605   4.361   4.222   6.225  0.6526 -0.2825 -0.0291
13730TIP3    H262606   4.383   4.080   6.273 -0.3066 -0.3969  0.0912
13731TIP3   OH262607   1.130   4.776   3.432 -0.0825 -0.3485  0.2564
13731TIP3    H162608   1.126   4.681   3.447 -0.4101 -0.5328 -0.9519
13731TIP3    H262609   1.078   4.813   3.504  0.1962 -1.0611  0.8429
13732TIP3   OH262610   4.960   3.790  14.969  0.2001  0.0067  0.5516
13732TIP3    H162611   4.897   3.803  15.040 -0.7550  0.5495 -0.3637
13732TIP3    H262612   5.030   3.852  14.987 -1.4774  2.3955 -0.5450
13733TIP3   OH262613   3.605   3.050   5.773 -0.4802 -0.1890  0.0924
13733TIP3    H162614   3.639   3.032   5.861 -0.6589 -1.2667 -0.0444
13733TIP3    H262615   3.666   3.114   5.736 -0.0712 -0.1676  0.7915
13734TIP3   OH262616   1.882   5.305  15.381  0.5238  0.0227  0.0304
13734TIP3    H162617   1.897   5.374  15.317  2.1100 -1.2247 -1.0077
13734TIP3    H262618   1.798   5.267  15.357 -0.4161  1.6147  0.6759
13735TIP3   OH262619   2.469   0.573   2.429  0.7626 -0.4022  0.3859
13735TIP3    H162620   2.525   0.533   2.363  0.2464 -2.8038  1.3076
13735TIP3    H262621   2.397   0.613   2.379 -1.1429 -4.5097 -0.6049
13736TIP3   OH262622   4.425   0.748  16.711 -0.2289  0.3686 -0.0589
13736TIP3    H162623   4.510   0.760  16.670 -0.4009 -1.3765 -1.0338
13736TIP3    H262624   4.439   0.772  16.803  0.8175  1.8488 -0.5742
13737TIP3   OH262625   4.057   1.453   3.426 -0.0941 -0.1930 -0.5222
13737TIP3    H162626   4.095   1.531   3.385  1.4287 -0.1748  0.8301
13737TIP3    H262627   4.007   1.487   3.500 -1.5487 -0.3381 -1.4110
13738TIP3   OH262628   0.139   4.912   2.009  0.3023 -0.2463  0.4983
13738TIP3    H162629   0.156   4.823   2.041 -1.2396 -1.1746 -1.0733
13738TIP3    H262630   0.087   4.953   2.078  0.1657 -0.9292  0.8094
13739TIP3   OH262631   0.892   3.008  11.231  0.6427  0.2384 -0.1377
13739TIP3    H162632   0.909   2.992  11.138  3.2084  0.6124  0.2006
13739TIP3    H262633   0.920   3.098  11.245 -0.0232  0.2880  0.9374
13740TIP3   OH262634   4.838   1.516   2.789  0.2800  0.0049 -0.4902
13740TIP3    H162635   4.805   1.517   2.879 -2.0716 -0.2233 -1.2852
13740TIP3    H262636   4.875   1.428   2.777  0.8650  0.1308  0.3005
13741TIP3   OH262637   1.009   0.188   3.849  0.1399 -0.4588  0.3701
13741TIP3    H162638   1.034   0.267   3.897  0.8356 -0.4514  0.0037
13741TIP3    H262639   0.923   0.209   3.811 -0.0171 -0.1553  0.8913
13742TIP3   OH262640   1.961   3.245  15.688 -0.2883  0.3677  0.4044
13742TIP3    H162641   1.917   3.291  15.616  0.4880  1.9736  0.9040
13742TIP3    H262642   1.897   3.246  15.759 -1.0257 -1.1472 -0.1935
13743TIP3   OH262643   0.886   0.456  14.459  0.7973  0.3215  0.2093
13743TIP3    H162644   0.981   0.457  14.470  0.7706  1.6079  0.4893
13743TIP3    H262645   0.872   0.447  14.365  1.1339 -2.7722  0.3731
13744TIP3   OH262646   1.764   1.129   1.545 -0.2281  0.0779  0.0017
13744TIP3    H162647   1.723   1.216   1.538 -0.2022 -0.0089 -1.5539
13744TIP3    H262648   1.717   1.075   1.481  1.7587 -0.2323 -1.2898
13745TIP3   OH262649   6.179   3.639   1.813 -0.2583 -0.8521 -0.0359
13745TIP3    H162650   6.185   3.672   1.723  1.3125  0.7463  0.5912
13745TIP3    H262651   6.088   3.655   1.839 -0.2563  0.4451 -0.7308
13746TIP3   OH262652   1.933   4.551  14.464  0.3190  0.5031  0.0562
13746TIP3    H162653   1.999   4.488  14.434 -1.2495 -1.6526  0.8763
13746TIP3    H262654   1.969   4.637  14.440  2.5387 -0.6763 -1.1580
13747TIP3   OH262655   5.166   5.895  15.803  0.5206 -0.1012  0.0051
13747TIP3    H162656   5.134   5.810  15.833  0.6543  0.1682  0.9473
13747TIP3    H262657   5.119   5.911  15.721  2.3866 -2.2409 -1.5928
13748TIP3   OH262658   1.170   1.504  13.379  0.6296  0.1279 -0.2113
13748TIP3    H162659   1.132   1.590  13.398  1.6061  0.6282 -0.4584
13748TIP3    H262660   1.099   1.454  13.340 -0.2834  0.4310  0.9975
13749TIP3   OH262661   0.445   2.434  12.237  0.1312  0.2644 -0.4737
13749TIP3    H162662   0.431   2.486  12.316  0.1652  0.9068 -0.8852
13749TIP3    H262663   0.535   2.403  12.243  0.6258  1.5504 -0.9699
13750TIP3   OH262664   2.878   2.229   2.938  0.2399  0.1532  0.8081
13750TIP3    H162665   2.812   2.176   2.893  0.6403  1.7903 -1.9084
13750TIP3    H262666   2.958   2.218   2.886  0.8075  1.9779  1.2236
13751TIP3   OH262667   3.573   3.406   4.591  0.7580 -0.3157  0.7174
13751TIP3    H162668   3.568   3.319   4.630  0.5009 -1.4933 -1.7556
13751TIP3    H262669   3.656   3.442   4.623  0.8294 -1.4164  1.8484
13752TIP3   OH262670   1.277   2.721   3.347  0.9340  0.8100  0.2409
13752TIP3    H162671   1.229   2.796   3.383  0.3244  1.4886 -1.7939
13752TIP3    H262672   1.227   2.697   3.269  0.6488 -2.3104  1.2819
13753TIP3   OH262673   3.358   1.099  14.556  0.6441  0.0495 -0.1943
13753TIP3    H162674   3.377   1.098  14.462 -0.7104 -1.0025 -0.4801
13753TIP3    H262675   3.275   1.146  14.564  1.4495  1.4085  0.6548
13754TIP3   OH262676   1.719   1.478   2.511 -0.0057 -0.2185  0.0638
13754TIP3    H162677   1.771   1.440   2.440  0.4128  0.3832  0.0375
13754TIP3    H262678   1.749   1.569   2.516  0.6159 -0.4835  1.5983
13755TIP3   OH262679   4.890   2.997   4.930  0.3486 -0.0765  0.1057
13755TIP3    H162680   4.855   3.069   4.982 -0.6389 -1.3561  1.2691
13755TIP3    H262681   4.955   3.039   4.873 -0.6523  1.8189  0.2759
13756TIP3   OH262682   1.582   5.319   1.632 -0.1236 -0.8542  0.2544
13756TIP3    H162683   1.620   5.250   1.687  2.0621  1.6069  2.1120
13756TIP3    H262684   1.543   5.381   1.694 -1.9002 -0.2852 -1.3222
13757TIP3   OH262685   0.130   0.129  15.077  0.2078 -0.0539 -0.2997
13757TIP3    H162686   0.080   0.201  15.037  1.1899  2.1374  2.1118
13757TIP3    H262687   0.163   0.079  15.003  0.9041  3.0058 -2.2677
13758TIP3   OH262688   5.389   4.352   4.726  0.0459 -0.1357  0.4063
13758TIP3    H162689   5.349   4.390   4.804 -0.9747 -1.2250  0.4457
13758TIP3    H262690   5.315   4.326   4.671  0.6216  3.2251 -2.3506
13759TIP3   OH262691   5.819   2.917  13.879 -0.2015 -0.6224  0.0884
13759TIP3    H162692   5.746   2.979  13.887  0.3767  0.2820 -1.2098
13759TIP3    H262693   5.777   2.832  13.865 -1.0150 -0.2412  0.1568
13760TIP3   OH262694   4.644   2.582   1.345  0.4343  0.0114 -0.9421
13760TIP3    H162695   4.715   2.537   1.299 -0.6279 -0.9472 -1.7408
13760TIP3    H262696   4.623   2.525   1.419  2.2204  1.6120  0.9130
13761TIP3   OH262697   3.231   5.323   4.636  0.1711 -0.4164  0.2468
13761TIP3    H162698   3.189   5.340   4.720 -1.9759 -1.2880 -0.5912
13761TIP3    H262699   3.162   5.336   4.571  1.7534  0.1606 -1.4087
13762TIP3   OH262700   3.570   2.574  13.477 -0.0104  0.0477  0.2126
13762TIP3    H162701   3.496   2.558  13.534 -0.1314  1.6581  0.5320
13762TIP3    H262702   3.583   2.669  13.478  2.5425 -0.2279  0.8004
13763TIP3   OH262703   3.635   5.326  12.399 -0.0429 -0.2735  0.2303
13763TIP3    H162704   3.703   5.268  12.366  1.8612  0.6737  2.2015
13763TIP3    H262705   3.675   5.413  12.399 -2.8117  1.1808 -2.6636
13764TIP3   OH262706   2.504   5.979   3.421  1.0766  0.7549  0.0580
13764TIP3    H162707   2.427   6.011   3.375  0.0751 -2.2913 -0.6203
13764TIP3    H262708   2.497   6.017   3.508 -1.9357 -0.3089  0.4075
13765TIP3   OH262709   2.278   0.475  16.265  0.2156  0.3207 -0.0354
13765TIP3    H162710   2.330   0.536  16.317  1.5503 -0.5253 -0.3135
13765TIP3    H262711   2.240   0.415  16.329  0.3175  0.4039  0.1046
13766TIP3   OH262712   5.234   1.660   3.734  0.3118  0.1412  0.0328
13766TIP3    H162713   5.299   1.626   3.672 -1.0731  1.1441 -2.0741
13766TIP3    H262714   5.211   1.584   3.788  1.9216 -0.6476 -0.3050
13767TIP3   OH262715   6.669   4.607   1.210 -1.0206 -0.3738  0.0458
13767TIP3    H162716   6.625   4.611   1.125  0.4748 -0.2847 -0.7666
13767TIP3    H262717   6.624   4.672   1.263 -0.8577  0.8506 -1.2501
13768TIP3   OH262718   1.118   0.659  13.433 -0.4805  0.1321  0.1235
13768TIP3    H162719   1.170   0.739  13.439 -1.6518  0.8235  1.6303
13768TIP3    H262720   1.132   0.615  13.517 -1.2937 -0.3293  0.0238
13769TIP3   OH262721   4.099   1.796   4.182 -0.1711 -0.1872  0.1135
13769TIP3    H162722   4.107   1.707   4.147  0.6912 -0.1189  0.1190
13769TIP3    H262723   4.062   1.784   4.269  0.6464 -0.6063  0.4097
13770TIP3   OH262724   1.101   3.496  13.221  0.0434 -0.2531 -0.2899
13770TIP3    H162725   1.006   3.486  13.209  0.1554 -1.9994 -0.0514
13770TIP3    H262726   1.116   3.590  13.222 -1.7640  0.0659  0.1478
13771TIP3   OH262727   3.428   4.758   6.437 -0.3464 -0.1858  0.5137
13771TIP3    H162728   3.434   4.853   6.440  0.7858 -0.2379  0.2892
13771TIP3    H262729   3.503   4.727   6.489  0.3928 -0.9407 -0.9350
13772TIP3   OH262730   4.435   2.710  13.142  0.2387  0.5521  0.1602
13772TIP3    H162731   4.394   2.795  13.155 -3.6259 -1.1152  0.2801
13772TIP3    H262732   4.421   2.690  13.050 -1.3453 -0.9721  0.6706
13773TIP3   OH262733   1.454   2.456   2.770 -0.2572  0.3788 -0.0277
13773TIP3    H162734   1.475   2.413   2.687  1.5413 -1.3106  1.2119
13773TIP3    H262735   1.371   2.417   2.797  0.3993 -0.9545  0.1440
13774TIP3   OH262736   5.433   5.460   5.132 -0.6001  0.3189  0.8341
13774TIP3    H162737   5.508   5.457   5.073  0.5302  0.9402  2.1584
13774TIP3    H262738   5.389   5.542   5.110 -0.4334  0.3444  0.5876
13775TIP3   OH262739   3.006   2.457   0.674 -0.2056  0.2913  0.0404
13775TIP3    H162740   3.059   2.537   0.672 -0.7855  0.7043  0.7851
13775TIP3    H262741   2.960   2.461   0.757 -1.5415  0.0170 -0.6624
13776TIP3   OH262742   4.769   3.557   0.232  0.2600 -0.2186 -0.7353
13776TIP3    H162743   4.836   3.624   0.225  0.0493 -0.1070 -1.9330
13776TIP3    H262744   4.699   3.598   0.282  0.1814  0.4245 -1.3593
13777TIP3   OH262745   0.336   0.354   0.322  0.6098 -0.1600  0.7951
13777TIP3    H162746   0.309   0.383   0.235 -0.8845  0.5450  1.4424
13777TIP3    H262747   0.431   0.358   0.321  0.5915  0.5386 -0.5675
13778TIP3   OH262748   2.359   1.517  12.033  0.0937 -0.3688 -0.2051
13778TIP3    H162749   2.321   1.524  11.945 -0.8280 -0.4755  0.1713
13778TIP3    H262750   2.436   1.575  12.031 -0.2886  0.1318 -0.8853
13779TIP3   OH262751   2.144   5.393  14.995 -0.1500  0.0095  0.0047
13779TIP3    H162752   2.106   5.364  14.912  0.4872 -0.0757 -0.2642
13779TIP3    H262753   2.203   5.464  14.970 -0.7134  0.6625  0.5094
13780TIP3   OH262754   5.508   6.565  11.251  0.1116  0.2738 -0.6419
13780TIP3    H162755   5.510   6.511  11.330 -1.9899 -0.2981 -0.9038
13780TIP3    H262756   5.531   6.653  11.282  1.4158 -0.3276  0.1837
13781TIP3   OH262757   4.057   6.387  11.988  0.3415  0.3010  0.1605
13781TIP3    H162758   4.148   6.396  12.017  0.7686  0.2997 -1.1283
13781TIP3    H262759   4.028   6.304  12.028  1.5645 -0.7375 -1.0002
13782TIP3   OH262760   1.331   5.057  13.502  1.1116 -0.3701 -0.2856
13782TIP3    H162761   1.262   5.015  13.554  0.0124 -0.4789 -1.7712
13782TIP3    H262762   1.407   5.001  13.514  1.0582 -0.0814  1.6362
13783TIP3   OH262763   5.087   5.031   4.618  0.0278  0.6881  0.0002
13783TIP3    H162764   5.016   5.094   4.629 -0.6821  0.3928 -2.4711
13783TIP3    H262765   5.044   4.951   4.589  1.0163 -0.7360  2.1598
13784TIP3   OH262766   6.323   0.400   4.862  0.0791  0.0949  0.0676
13784TIP3    H162767   6.363   0.400   4.949 -1.1275 -0.3481  0.6447
13784TIP3    H262768   6.341   0.487   4.828  2.0923 -0.2832  0.0063
13785TIP3   OH262769   1.140   0.276   0.606 -0.2166  0.2522  0.3109
13785TIP3    H162770   1.220   0.278   0.658 -0.7271 -2.5186  1.3771
13785TIP3    H262771   1.070   0.263   0.671 -1.3776  0.9322 -0.7494
13786TIP3   OH262772   3.772   5.041  14.111 -0.3368  0.2354  0.3864
13786TIP3    H162773   3.766   5.136  14.102 -1.4115  0.1009 -0.5459
13786TIP3    H262774   3.693   5.017  14.159  0.1662 -0.1457  1.0330
13787TIP3   OH262775   4.976   4.044   1.495  0.0883  0.6276  0.5833
13787TIP3    H162776   4.932   4.036   1.411 -0.9486 -0.1099  1.1728
13787TIP3    H262777   4.981   4.139   1.511  2.0861  0.8857 -1.1828
13788TIP3   OH262778   1.950   5.714  17.039  0.3849 -0.0807 -0.4920
13788TIP3    H162779   1.959   5.742  17.130  0.2361 -0.8323 -0.2419
13788TIP3    H262780   2.015   5.643  17.029  0.7542  0.3322 -1.1103
13789TIP3   OH262781   3.269   6.732  14.327  0.3688  0.1967  0.0800
13789TIP3    H162782   3.184   6.757  14.363  0.4071  0.9747 -0.3554
13789TIP3    H262783   3.278   6.639  14.350 -1.4086 -0.4291 -1.4133
13790TIP3   OH262784   3.416   0.380   3.286 -0.4666 -0.1936 -0.3004
13790TIP3    H162785   3.473   0.454   3.268  0.2261 -0.4192  0.8668
13790TIP3    H262786   3.335   0.420   3.318  0.4630  0.0715  1.8820
13791TIP3   OH262787   5.054   2.035   0.237 -0.3064  0.1360 -0.3111
13791TIP3    H162788   4.993   2.022   0.309 -1.0620 -0.8745 -1.1153
13791TIP3    H262789   5.013   2.102   0.182 -0.4920 -0.2376 -0.6296
13792TIP3   OH262790   5.065   4.780   1.505 -0.4416 -0.4795 -0.1668
13792TIP3    H162791   5.004   4.785   1.578 -0.6394 -0.8703 -0.2994
13792TIP3    H262792   5.139   4.730   1.540  0.2405  0.7955  0.2826
13793TIP3   OH262793   1.396   0.331  17.038  0.5394  0.6011 -0.3799
13793TIP3    H162794   1.455   0.306  16.966  0.2547  2.7375 -1.4241
13793TIP3    H262795   1.454   0.344  17.113  0.7982 -2.1121  0.0089
13794TIP3   OH262796   6.507   4.661   2.661 -0.6887 -0.0221 -0.7484
13794TIP3    H162797   6.548   4.728   2.716 -2.5447  1.0477 -0.5637
13794TIP3    H262798   6.458   4.607   2.723 -1.1277 -0.0749 -1.1371
13795TIP3   OH262799   1.715   6.698   3.789  0.2438  0.0109 -0.2085
13795TIP3    H162800   1.784   6.736   3.735  0.3611  1.1172  0.6801
13795TIP3    H262801   1.637   6.750   3.768  0.9515  2.6599  2.9024
13796TIP3   OH262802   0.099   2.297   4.709  0.2777 -0.6241 -0.2019
13796TIP3    H162803   0.107   2.201   4.714 -2.1674 -0.9022 -0.5899
13796TIP3    H262804   0.012   2.312   4.673 -0.0813  1.7761  1.4538
13797TIP3   OH262805   1.079   3.401  17.011 -0.3878 -0.1422  0.8892
13797TIP3    H162806   1.038   3.339  17.071 -1.4778 -0.8051 -0.4665
13797TIP3    H262807   1.072   3.486  17.054 -1.5559 -0.5369  1.5063
13798TIP3   OH262808   2.465   2.771  10.926  0.1102 -0.0343  0.3013
13798TIP3    H162809   2.538   2.735  10.976 -0.6538 -2.1043  0.0706
13798TIP3    H262810   2.397   2.789  10.992  0.2245  0.2180  0.3465
13799TIP3   OH262811   4.600   0.269   4.265 -0.5327  0.2490  0.0758
13799TIP3    H162812   4.505   0.258   4.260 -0.7037  1.8878 -0.7297
13799TIP3    H262813   4.613   0.338   4.330  0.2010 -0.7727  1.0601
13800TIP3   OH262814   0.424   4.278  11.532  0.0367 -0.1521 -0.1278
13800TIP3    H162815   0.513   4.295  11.563 -0.4184  0.8845  0.6911
13800TIP3    H262816   0.409   4.186  11.552  0.1497  0.2064  1.8182
13801TIP3   OH262817   2.567   1.382   0.821 -0.4052 -0.2073 -0.4403
13801TIP3    H162818   2.497   1.439   0.854 -0.6083  0.1777 -1.4883
13801TIP3    H262819   2.648   1.427   0.845 -0.5512  0.1799 -0.6730
13802TIP3   OH262820   2.904   3.852  15.020  0.1621  0.5783  0.5102
13802TIP3    H162821   2.931   3.761  15.007 -0.6206  0.5062 -0.8257
13802TIP3    H262822   2.986   3.902  15.016  0.9755 -0.2127  3.8685
13803TIP3   OH262823   4.911   5.873   3.772  0.2835 -0.3694 -0.1752
13803TIP3    H162824   4.995   5.864   3.818  1.2783  0.6337 -1.6887
13803TIP3    H262825   4.910   5.801   3.709  1.0301  0.8076 -1.5970
13804TIP3   OH262826   5.873   5.605   0.037  0.2621 -0.3441  0.2014
13804TIP3    H162827   5.824   5.538  -0.010 -0.5513  1.3021 -1.4434
13804TIP3    H262828   5.923   5.650  -0.032 -0.4643  1.7536  0.9570
13805TIP3   OH262829   4.628   4.859  16.628 -0.3081 -0.5283  0.0694
13805TIP3    H162830   4.651   4.770  16.653 -1.0403 -0.7676 -0.0642
13805TIP3    H262831   4.572   4.891  16.699 -0.1928 -0.2437  0.0329
13806TIP3   OH262832   5.991   4.589  12.197 -0.3152  0.1614  0.0039
13806TIP3    H162833   6.044   4.632  12.130  0.0637 -1.5531 -0.8687
13806TIP3    H262834   5.940   4.660  12.237  1.2890  1.5886 -0.3677
13807TIP3   OH262835   1.963   4.979  12.518 -0.2067  0.1297 -0.1670
13807TIP3    H162836   1.897   4.928  12.472  0.8712 -1.3682 -0.1361
13807TIP3    H262837   2.029   4.999  12.452  0.0377  0.3031  0.1246
13808TIP3   OH262838   4.085   1.032   2.384  0.3741 -0.6980 -0.0525
13808TIP3    H162839   4.049   1.045   2.297  1.0789 -0.8313 -0.3745
13808TIP3    H262840   4.143   1.107   2.398  0.3560 -0.7379  0.2521
13809TIP3   OH262841   3.781   0.416  16.998 -0.0179  0.0986 -0.5521
13809TIP3    H162842   3.787   0.329  16.958 -2.0361 -0.5344  0.4093
13809TIP3    H262843   3.795   0.401  17.092  0.7711  1.0073 -0.5018
13810TIP3   OH262844   4.631   5.951  13.344  0.1501  0.0658  0.3518
13810TIP3    H162845   4.641   5.858  13.323  0.6544  0.2051 -0.0607
13810TIP3    H262846   4.658   5.958  13.435  2.4245  0.1548 -0.2582
13811TIP3   OH262847   1.916   1.797  15.410 -0.4099  0.1747  0.5017
13811TIP3    H162848   1.841   1.761  15.363  0.3573 -0.6934 -0.0920
13811TIP3    H262849   1.879   1.832  15.491 -1.4780 -0.0400  0.1289
13812TIP3   OH262850   4.015   2.038  13.660 -0.2979  0.0583 -0.4172
13812TIP3    H162851   3.965   1.966  13.698  0.9123 -0.2781  0.6013
13812TIP3    H262852   4.105   2.020  13.685  0.3121  0.8156 -1.9451
13813TIP3   OH262853   5.807   5.606   0.372 -0.5311 -0.2286 -0.0211
13813TIP3    H162854   5.792   5.565   0.457 -1.2057  0.3211  0.1292
13813TIP3    H262855   5.720   5.615   0.333 -0.1285 -1.6993 -1.3626
13814TIP3   OH262856   1.178   0.560  16.571 -0.2115  0.1763  0.1679
13814TIP3    H162857   1.249   0.624  16.574  0.9578 -1.0549  3.3786
13814TIP3    H262858   1.192   0.514  16.488  2.2218  0.5793  0.2633
13815TIP3   OH262859   2.792   5.354   1.264  1.2519  0.3408 -0.1543
13815TIP3    H162860   2.813   5.278   1.210 -0.6922 -0.0457 -0.4463
13815TIP3    H262861   2.807   5.325   1.354 -1.0924 -1.0676 -0.1188
13816TIP3   OH262862   1.301   1.508   3.633  0.1643  0.7286  0.0618
13816TIP3    H162863   1.233   1.463   3.582 -0.7385  1.2799  0.7451
13816TIP3    H262864   1.265   1.511   3.722  0.6084  1.9891  0.2043
13817TIP3   OH262865   2.204   2.111   1.677  0.4459  1.0016  0.0043
13817TIP3    H162866   2.285   2.062   1.692 -0.7664 -0.7467  1.2371
13817TIP3    H262867   2.207   2.182   1.741  1.3299  1.3997 -0.4633
13818TIP3   OH262868   2.953   6.264  15.745 -0.2672 -0.2646 -0.2725
13818TIP3    H162869   3.021   6.325  15.716  1.7148 -2.1061  0.2400
13818TIP3    H262870   2.999   6.201  15.801 -2.7483 -0.5698  1.6131
13819TIP3   OH262871   1.736   2.314   6.466 -0.0890 -0.5907 -0.0765
13819TIP3    H162872   1.753   2.220   6.469  0.3204 -0.4929  1.5045
13819TIP3    H262873   1.810   2.350   6.417  1.8332 -0.7172  2.5203
13820TIP3   OH262874   3.798   4.359   4.283 -0.6148  0.0381 -0.3361
13820TIP3    H162875   3.833   4.373   4.195 -2.0749 -1.6316 -1.2457
13820TIP3    H262876   3.864   4.398   4.342  0.8593  0.3345 -2.1011
13821TIP3   OH262877   0.185   2.213  16.829  0.1868 -0.1947  0.2169
13821TIP3    H162878   0.203   2.133  16.878  2.2102 -0.2289 -0.5008
13821TIP3    H262879   0.252   2.216  16.761 -0.0566  1.9315 -0.0077
13822TIP3   OH262880   3.600   3.903  13.767  0.4302 -0.0083  0.4483
13822TIP3    H162881   3.545   3.911  13.845 -1.6576  2.2090 -1.1032
13822TIP3    H262882   3.650   3.985  13.765  0.9342 -0.3225 -0.2210
13823TIP3   OH262883   2.237   5.413   0.881 -0.0623  0.3205 -0.0481
13823TIP3    H162884   2.223   5.506   0.866 -0.8518  0.4393  1.2918
13823TIP3    H262885   2.315   5.392   0.830 -2.0283  0.7989 -3.5651
13824TIP3   OH262886   2.326   6.388  12.818  0.0041 -0.2987 -0.9414
13824TIP3    H162887   2.417   6.368  12.844  0.4473  0.3011 -1.9670
13824TIP3    H262888   2.273   6.346  12.886  1.0762  1.3969  1.0891
13825TIP3   OH262889   3.813   3.698  14.258  0.1398  0.0424 -0.0034
13825TIP3    H162890   3.870   3.774  14.244 -1.2584  1.4169  1.4160
13825TIP3    H262891   3.770   3.685  14.173  1.9757 -0.5806 -0.8916
13826TIP3   OH262892   6.392   0.780   1.244 -0.4810  0.0517 -0.5272
13826TIP3    H162893   6.329   0.708   1.245 -1.0815  0.5736  0.3886
13826TIP3    H262894   6.420   0.787   1.153 -2.4251  0.3955 -1.1300
13827TIP3   OH262895   2.920   6.490   2.004  0.1203  0.5378 -0.0484
13827TIP3    H162896   2.963   6.411   1.973  0.1979 -0.0047  1.3539
13827TIP3    H262897   2.848   6.504   1.942 -0.1095 -0.8324 -0.1301
13828TIP3   OH262898   4.215   1.602   3.697 -0.2151  0.1322 -0.2676
13828TIP3    H162899   4.282   1.536   3.679  1.4816  1.6131  0.3464
13828TIP3    H262900   4.148   1.555   3.747 -0.0820 -1.5812 -1.5830
13829TIP3   OH262901   0.733   4.901   3.513  0.1509 -0.3079  0.5188
13829TIP3    H162902   0.713   4.968   3.578 -2.0484 -1.0266  0.6387
13829TIP3    H262903   0.776   4.831   3.562 -1.3232 -0.7650  1.1998
13830TIP3   OH262904   5.083   5.852  11.083  0.0802  0.0925 -0.1065
13830TIP3    H162905   5.010   5.910  11.062 -0.0846  0.1364  0.5876
13830TIP3    H262906   5.153   5.879  11.023 -1.1920 -1.5214 -2.5155
13831TIP3   OH262907   3.280   2.571  11.672 -0.2099 -0.2636  0.1159
13831TIP3    H162908   3.257   2.554  11.763  1.0137 -2.3052  0.1093
13831TIP3    H262909   3.349   2.637  11.677 -0.4842 -0.0109  0.6233
13832TIP3   OH262910   3.172   0.804   2.013  0.7347 -0.6584  0.2035
13832TIP3    H162911   3.090   0.764   1.985  1.0221 -0.8820 -0.3321
13832TIP3    H262912   3.237   0.735   2.005  1.3489  0.0333 -1.2897
13833TIP3   OH262913   4.632   5.030   1.047 -0.1876 -0.5002  0.4099
13833TIP3    H162914   4.645   4.972   0.971 -1.2867 -0.0335 -0.1454
13833TIP3    H262915   4.543   5.013   1.075 -0.4145  0.6850  0.4429
13834TIP3   OH262916   6.033   2.037   2.177  0.2855 -0.0706  0.7276
13834TIP3    H162917   6.029   1.968   2.111  0.3430  0.9160 -0.3252
13834TIP3    H262918   6.080   2.108   2.135 -1.7923  1.5208  0.9337
13835TIP3   OH262919   0.674   2.024  13.256  0.3753  0.2491 -0.0158
13835TIP3    H162920   0.667   2.118  13.272 -2.1163 -0.0319  0.9120
13835TIP3    H262921   0.704   1.988  13.339  0.7644  0.1452 -0.1980
13836TIP3   OH262922   5.445   3.271   1.604  0.1813 -0.7144  0.0732
13836TIP3    H162923   5.540   3.283   1.602 -0.0182  1.6338 -2.4339
13836TIP3    H262924   5.432   3.183   1.641  3.1153 -0.1283  2.9289
13837TIP3   OH262925   4.786   3.282  15.431 -0.4069 -0.2393 -0.1865
13837TIP3    H162926   4.731   3.209  15.460  0.0365 -0.1429  0.9434
13837TIP3    H262927   4.726   3.342  15.388 -0.8865 -0.9570 -0.5358
13838TIP3   OH262928   3.461   0.021  15.844 -0.0744 -0.6878  0.5770
13838TIP3    H162929   3.444  -0.017  15.931 -0.3322 -0.2551  0.7148
13838TIP3    H262930   3.469   0.115  15.860 -4.2056  0.0325 -0.3824
13839TIP3   OH262931   3.239   5.309   5.374  0.5245  0.4117  0.0846
13839TIP3    H162932   3.266   5.381   5.430 -2.2642  0.9084  0.9191
13839TIP3    H262933   3.159   5.340   5.331  1.8599 -0.4024 -3.3323
13840TIP3   OH262934   4.888   4.210   2.767  0.3083  0.3775  0.3327
13840TIP3    H162935   4.798   4.240   2.755  0.2490  0.5969  1.2725
13840TIP3    H262936   4.880   4.126   2.813  0.5781  0.2801  0.2052
13841TIP3   OH262937   4.661   2.851   1.068  0.5931 -0.0630  0.1109
13841TIP3    H162938   4.687   2.831   1.158  0.8149 -1.7295 -0.2836
13841TIP3    H262939   4.606   2.929   1.075  2.6396  1.3569  1.3966
13842TIP3   OH262940   2.370   6.758  14.788  0.0196  0.4681  0.5771
13842TIP3    H162941   2.281   6.792  14.776  0.0386 -0.4476 -4.1090
13842TIP3    H262942   2.422   6.804  14.723  2.5408 -0.6714  1.6562
13843TIP3   OH262943   1.252   0.196  12.271  0.4054 -0.0536  0.0940
13843TIP3    H162944   1.336   0.221  12.233  0.7247  0.0499  0.8458
13843TIP3    H262945   1.187   0.245  12.220  0.6665 -1.1502 -1.3836
13844TIP3   OH262946   0.312   4.109   4.457 -0.2154  0.3103  0.0840
13844TIP3    H162947   0.310   4.053   4.535  0.6946 -0.0799 -0.1545
13844TIP3    H262948   0.268   4.056   4.389  1.0060 -0.3083 -0.2478
13845TIP3   OH262949   2.395   0.866   1.977 -0.2050  0.4308 -0.2052
13845TIP3    H162950   2.420   0.932   2.042 -0.8175  0.2304  0.2417
13845TIP3    H262951   2.375   0.917   1.898 -0.2257  0.7402 -0.0039
13846TIP3   OH262952   5.935   6.687   3.402  0.3209  0.9212  0.1498
13846TIP3    H162953   5.950   6.644   3.487 -1.5450  2.0860  1.1440
13846TIP3    H262954   6.023   6.696   3.365  1.0779 -0.7171  1.3924
13847TIP3   OH262955   0.168   6.038  17.095  0.7298 -0.2884 -0.2023
13847TIP3    H162956   0.177   6.096  17.170  3.4680  1.5725 -1.7683
13847TIP3    H262957   0.250   5.988  17.095  0.3696 -0.8993 -1.4193
13848TIP3   OH262958   5.197   2.268   4.915 -0.1455 -0.0694 -0.0191
13848TIP3    H162959   5.159   2.190   4.955 -0.6998 -0.5245 -1.3870
13848TIP3    H262960   5.251   2.234   4.844  1.1945  0.6997  0.6053
13849TIP3   OH262961   6.624   2.529   3.590 -0.2799  0.3532  0.1050
13849TIP3    H162962   6.634   2.435   3.577 -1.2105  0.2040  0.4074
13849TIP3    H262963   6.632   2.567   3.503 -1.9149 -0.2051 -0.3166
13850TIP3   OH262964   1.793   3.932  14.051 -0.0701  0.2204 -0.4391
13850TIP3    H162965   1.788   3.930  13.955 -0.0821  0.1713 -0.4372
13850TIP3    H262966   1.720   3.877  14.079 -0.5586  0.8839 -0.3875
13851TIP3   OH262967   5.248   0.534   0.572  0.7512  0.0866  0.0683
13851TIP3    H162968   5.301   0.454   0.571  2.8513  1.4421 -0.0417
13851TIP3    H262969   5.165   0.505   0.611  1.3737 -2.1778 -0.1045
13852TIP3   OH262970   4.530   3.720  15.077 -0.0926  0.2738 -0.0175
13852TIP3    H162971   4.615   3.700  15.117 -1.0264 -0.8696  1.5172
13852TIP3    H262972   4.527   3.815  15.073  2.0508  0.3729 -1.9868
13853TIP3   OH262973   0.304   5.894  14.478  0.2749 -1.0462  0.5047
13853TIP3    H162974   0.368   5.833  14.442  0.2301 -1.2601  0.7817
13853TIP3    H262975   0.356   5.970  14.506  0.2485 -0.6266 -0.5211
13854TIP3   OH262976   4.686   1.267  16.201  0.6939 -0.0931 -0.4251
13854TIP3    H162977   4.687   1.280  16.296  1.0062 -1.3599 -0.2379
13854TIP3    H262978   4.601   1.301  16.173 -0.3228 -1.6352  0.6242
13855TIP3   OH262979   2.596   0.984  15.258  0.3123 -0.0223  0.3645
13855TIP3    H162980   2.550   1.059  15.221 -1.0567 -1.0570 -0.1261
13855TIP3    H262981   2.636   0.941  15.183  0.0747 -0.4494  0.4792
13856TIP3   OH262982   2.421   4.466   3.924 -0.6397 -0.0962 -0.4388
13856TIP3    H162983   2.416   4.545   3.978  0.2394 -0.1327 -0.2786
13856TIP3    H262984   2.511   4.465   3.892 -0.0387 -1.9799  1.0644
13857TIP3   OH262985   3.415   4.617  13.644  0.6550 -0.1269 -0.6398
13857TIP3    H162986   3.466   4.544  13.679  2.1135  1.2161  0.2286
13857TIP3    H262987   3.422   4.608  13.549  1.7535 -0.5211 -0.5426
13858TIP3   OH262988   3.133   1.098   5.016 -0.0558  0.3746  0.1612
13858TIP3    H162989   3.221   1.088   5.052  0.0322  1.5486  0.3142
13858TIP3    H262990   3.136   1.180   4.966 -0.1877 -1.1641 -2.5154
13859TIP3   OH262991   3.134   4.229   3.391 -0.2340  0.1394  0.0125
13859TIP3    H162992   3.060   4.170   3.398 -0.3370  0.3326  0.5964
13859TIP3    H262993   3.098   4.316   3.411 -0.0874  0.4073 -0.8299
13860TIP3   OH262994   4.548   2.994  11.467 -0.9669 -0.1683  0.0254
13860TIP3    H162995   4.459   2.998  11.431 -1.5193  1.1503  1.3808
13860TIP3    H262996   4.536   2.957  11.555 -0.1665 -0.0665  0.1816
13861TIP3   OH262997   5.863   2.108   6.219  0.4411 -0.8010 -0.2934
13861TIP3    H162998   5.845   2.025   6.263 -0.4612 -1.1905 -1.3663
13861TIP3    H262999   5.803   2.110   6.145  0.8089  0.5813 -0.5855
13862TIP3   OH263000   3.732   5.014   4.193  0.2085 -0.1970 -0.0588
13862TIP3    H163001   3.749   4.976   4.106 -0.0928 -0.3468 -0.0512
13862TIP3    H263002   3.746   5.108   4.180  2.8339 -0.4352  0.3571
13863TIP3   OH263003   4.257   2.863   2.651 -0.2117  0.2758  0.4343
13863TIP3    H163004   4.268   2.792   2.588  0.3773 -1.3907  2.3135
13863TIP3    H263005   4.184   2.914   2.617 -0.0117 -0.6250 -1.4953
13864TIP3   OH263006   3.947   2.247   3.584 -0.4641 -0.0198  0.7883
13864TIP3    H163007   3.852   2.252   3.578 -0.3881  1.0356  0.1224
13864TIP3    H263008   3.977   2.335   3.564  0.7144 -0.6632 -0.4695
13865TIP3   OH263009   0.275   1.693   2.863  0.4450 -0.3980  0.3752
13865TIP3    H163010   0.181   1.710   2.865  0.6331  0.7183  2.2614
13865TIP3    H263011   0.283   1.604   2.828 -1.2475 -0.2167 -0.5433
13866TIP3   OH263012   3.746   1.234   5.959  0.2542 -0.3035 -0.5401
13866TIP3    H163013   3.786   1.172   5.898  1.0467 -0.3724  0.0403
13866TIP3    H263014   3.815   1.297   5.977  0.5291 -1.1097  1.4387
13867TIP3   OH263015   5.427   5.347  11.424  0.1097 -0.6940  0.5081
13867TIP3    H163016   5.522   5.350  11.440  0.3782 -2.4909 -0.4507
13867TIP3    H263017   5.392   5.299  11.499  0.3139 -2.1722 -0.3112
13868TIP3   OH263018   4.562   5.191  15.026 -0.1685  0.1596  0.7623
13868TIP3    H163019   4.622   5.245  15.078  0.1211  0.8743 -0.2720
13868TIP3    H263020   4.525   5.252  14.963 -0.7417 -0.6269  0.3250
13869TIP3   OH263021   3.561   0.136   1.313 -0.2518  0.1660  0.0348
13869TIP3    H163022   3.514   0.075   1.371  0.0763  1.1750  1.4289
13869TIP3    H263023   3.552   0.221   1.356  0.7427  0.8067 -0.9790
13870TIP3   OH263024   6.014   1.800   4.231 -0.0771  0.3965 -0.0509
13870TIP3    H163025   6.109   1.802   4.224 -0.0557  1.3569  0.4661
13870TIP3    H263026   5.991   1.711   4.202  0.9093  0.3584 -0.8026
13871TIP3   OH263027   5.979   1.825  17.171 -0.4024  0.2872 -0.4002
13871TIP3    H163028   5.898   1.829  17.120 -0.3904 -0.2414 -0.4614
13871TIP3    H263029   5.986   1.912  17.212 -0.7705  0.4780 -0.7430
13872TIP3   OH263030   4.606   3.082   3.350 -0.3744 -0.4000 -0.0001
13872TIP3    H163031   4.664   3.107   3.279  0.2316 -0.2223  0.5516
13872TIP3    H263032   4.532   3.039   3.307 -0.7598  1.0439 -0.8620
13873TIP3   OH263033   0.485   0.010  16.828 -0.1079 -0.1485  0.2200
13873TIP3    H163034   0.548   0.066  16.783  1.1056 -2.5528 -1.3005
13873TIP3    H263035   0.399   0.044  16.803  0.3898  3.2498  2.3804
13874TIP3   OH263036   3.162   4.764  15.365 -0.2676  0.5969  0.1098
13874TIP3    H163037   3.145   4.728  15.452  0.9921  3.5171  1.7218
13874TIP3    H263038   3.119   4.704  15.305 -0.5578 -1.9785  2.6718
13875TIP3   OH263039   3.391   6.569  13.544  0.0355 -0.7080 -0.2522
13875TIP3    H163040   3.323   6.626  13.580 -1.0229 -1.9856 -0.1320
13875TIP3    H263041   3.391   6.588  13.450  0.5223  0.3092 -0.0563
13876TIP3   OH263042   4.728   0.226   2.322  0.2704 -0.1432  0.2873
13876TIP3    H163043   4.747   0.229   2.415 -0.3967 -0.7895  0.4498
13876TIP3    H263044   4.812   0.205   2.281  0.0664 -2.6080  0.9582
13877TIP3   OH263045   1.378   2.148   5.492  0.9392  0.0592  0.1864
13877TIP3    H163046   1.406   2.137   5.583  0.0345 -1.5904  0.3048
13877TIP3    H263047   1.319   2.223   5.495 -0.5003 -1.0442  1.3455
13878TIP3   OH263048   4.825   4.885  11.415 -0.0368 -0.0338  0.4346
13878TIP3    H163049   4.768   4.939  11.360  0.9148  1.3911  0.7915
13878TIP3    H263050   4.773   4.807  11.434 -1.0355  0.2279 -1.0357
13879TIP3   OH263051   2.186   3.964  14.415  0.3111 -0.2785 -0.5068
13879TIP3    H163052   2.277   3.955  14.389  0.3845  1.0843 -0.7897
13879TIP3    H263053   2.177   3.909  14.493  1.1528 -1.0770 -0.9623
13880TIP3   OH263054   5.863   4.772  13.091 -0.0927 -0.0542 -0.0316
13880TIP3    H163055   5.922   4.817  13.151 -1.5570  0.4566  1.0753
13880TIP3    H263056   5.779   4.770  13.136 -1.3128  0.5225 -2.1311
13881TIP3   OH263057   2.854   6.769  11.277 -0.2542 -0.1919 -0.4221
13881TIP3    H163058   2.765   6.793  11.301 -1.1080 -0.9067 -2.6336
13881TIP3    H263059   2.904   6.778  11.358 -2.6364 -1.3063  1.2983
13882TIP3   OH263060   0.189   5.266  16.087 -0.1014  0.6704 -0.3118
13882TIP3    H163061   0.238   5.224  16.158  0.3214  0.5422 -0.6741
13882TIP3    H263062   0.102   5.227  16.091  0.3150 -0.3428 -0.7126
13883TIP3   OH263063   6.127   4.581   1.856 -0.2537  0.2095 -0.2382
13883TIP3    H163064   6.091   4.511   1.909 -1.9474  2.0972  1.2631
13883TIP3    H263065   6.052   4.636   1.834  0.9229  1.2972 -1.7921
13884TIP3   OH263066   6.309   6.152   5.518 -0.0151  0.0118 -0.0915
13884TIP3    H163067   6.389   6.160   5.465 -0.0817 -0.8673 -0.3545
13884TIP3    H263068   6.323   6.071   5.567 -0.7094 -0.0936 -0.0692
13885TIP3   OH263069   3.833   3.924  13.258 -0.0026 -0.1924  0.2938
13885TIP3    H163070   3.767   3.898  13.323 -2.4574  3.5454 -0.3869
13885TIP3    H263071   3.893   3.980  13.307  1.4630 -1.7757  0.4047
13886TIP3   OH263072   3.750   4.434  11.333 -0.6039  0.0315  0.0449
13886TIP3    H163073   3.711   4.443  11.246  0.4079 -2.0026 -0.6794
13886TIP3    H263074   3.835   4.478  11.326  0.1691 -1.4741 -0.5393
13887TIP3   OH263075   3.199   2.587   3.770 -0.7495  0.3006  0.5526
13887TIP3    H163076   3.260   2.531   3.818 -1.5952  0.6177  2.0466
13887TIP3    H263077   3.256   2.649   3.723  0.1128 -0.0659  1.0897
13888TIP3   OH263078   3.379   4.689  11.004 -0.2870 -0.0429  0.1284
13888TIP3    H163079   3.370   4.599  10.972  0.4087 -0.0157 -0.1649
13888TIP3    H263080   3.442   4.683  11.076 -0.0485  0.2391 -0.0528
13889TIP3   OH263081   3.194   1.251  15.486  0.1409  0.9185  0.0631
13889TIP3    H163082   3.263   1.185  15.478  0.4561  1.3079 -0.4578
13889TIP3    H263083   3.239   1.335  15.476  0.0419  1.3375  2.4675
13890TIP3   OH263084   3.755   6.087  16.519 -0.2801  0.2366  0.1758
13890TIP3    H163085   3.820   6.138  16.470 -0.8605 -0.6766 -1.6247
13890TIP3    H263086   3.806   6.021  16.564  0.4596  2.1330  2.3238
13891TIP3   OH263087   1.389   4.960   3.603 -0.6687  0.3981  0.1813
13891TIP3    H163088   1.305   5.003   3.619 -1.9400 -1.3052 -1.5287
13891TIP3    H263089   1.380   4.874   3.644  0.2146  0.1529 -0.1120
13892TIP3   OH263090   4.101   4.903  10.464  0.0810 -0.4792 -0.1252
13892TIP3    H163091   4.158   4.850  10.520  1.4697 -0.3293 -1.3294
13892TIP3    H263092   4.156   4.976  10.436 -1.7158  1.5272  1.2817
13893TIP3   OH263093   4.806   6.545  15.989  0.3908 -0.0247  0.3121
13893TIP3    H163094   4.848   6.587  15.915  0.4046 -0.7787 -0.1175
13893TIP3    H263095   4.716   6.529  15.960 -0.3240  1.8267  1.3200
13894TIP3   OH263096   0.591   6.399  15.315 -0.4810 -0.0062  0.1793
13894TIP3    H163097   0.663   6.438  15.265 -0.0037  0.9412  1.5348
13894TIP3    H263098   0.525   6.376  15.250  1.3756 -1.6889 -1.2093
13895TIP3   OH263099   3.843   1.387   1.242 -0.6032  0.2341 -0.1105
13895TIP3    H163100   3.828   1.431   1.326 -0.3638  0.0643  0.0222
13895TIP3    H263101   3.763   1.337   1.226 -0.2310 -0.5752  0.5333
13896TIP3   OH263102   0.840   6.532   4.652 -0.6354  0.0102 -0.2744
13896TIP3    H163103   0.754   6.528   4.611 -0.7389  0.9539 -0.1614
13896TIP3    H263104   0.879   6.446   4.634 -1.4775 -0.3207 -0.5754
13897TIP3   OH263105   1.094   2.233  14.092  0.2016  0.3088 -0.2092
13897TIP3    H163106   1.040   2.239  14.013 -1.0196 -1.0057  0.4907
13897TIP3    H263107   1.060   2.301  14.150  0.2593  0.4340 -0.3213
13898TIP3   OH263108   5.183   0.383   4.567 -0.2955 -0.4603  0.2640
13898TIP3    H163109   5.180   0.288   4.558  0.0882 -0.4344 -0.2136
13898TIP3    H263110   5.262   0.400   4.619  0.3442 -0.3484 -0.7108
13899TIP3   OH263111   3.664   6.765   2.087  0.5330 -0.4685 -0.5033
13899TIP3    H163112   3.584   6.713   2.088  0.5597 -0.5423 -1.1648
13899TIP3    H263113   3.729   6.711   2.132 -0.0686  0.0886  1.0868
13900TIP3   OH263114   2.704   0.212  16.887 -0.2410 -0.2129 -0.3119
13900TIP3    H163115   2.689   0.148  16.817 -0.4401  1.4044 -1.8257
13900TIP3    H263116   2.633   0.275  16.878  0.6042  0.8824  0.3466
13901TIP3   OH263117   3.659   3.750  12.386  0.5201  0.1596  0.1291
13901TIP3    H163118   3.639   3.813  12.455  1.5404  0.7020 -0.0376
13901TIP3    H263119   3.575   3.735  12.342  0.1695  1.0911  0.4396
13902TIP3   OH263120   0.544   1.598  13.009  0.5788  0.0446 -0.4460
13902TIP3    H163121   0.510   1.652  13.081  2.3990  1.3341 -0.4918
13902TIP3    H263122   0.484   1.615  12.936 -0.5981 -0.3625  0.3762
13903TIP3   OH263123   4.111   0.102   2.530 -0.3189 -0.4748  0.5871
13903TIP3    H163124   4.097   0.018   2.574  0.7684 -0.9831 -0.0020
13903TIP3    H263125   4.163   0.153   2.592  0.6093 -0.9308  0.1964
13904TIP3   OH263126   6.075   3.980   2.741  0.1713  0.6201  0.0382
13904TIP3    H163127   6.098   3.907   2.684 -0.8504  0.8212 -0.6570
13904TIP3    H263128   6.159   4.013   2.773  0.6391 -1.0177  0.5849
13905TIP3   OH263129   3.298   2.684  11.399  0.5288  0.0506  0.3181
13905TIP3    H163130   3.311   2.645  11.486  0.0318  1.5363  1.0795
13905TIP3    H263131   3.226   2.634  11.361 -0.2156  0.3036  1.3505
13906TIP3   OH263132   4.192   2.386  15.887 -0.1568  0.4150 -0.0985
13906TIP3    H163133   4.130   2.411  15.818 -1.1900  1.1925  1.0727
13906TIP3    H263134   4.137   2.365  15.962  0.9425 -0.5716  0.4690
13907TIP3   OH263135   1.012   2.833  10.713 -0.0339  0.4306 -0.5021
13907TIP3    H163136   1.006   2.759  10.653  1.4442 -0.4670  0.4113
13907TIP3    H263137   1.106   2.849  10.722 -0.2937  3.3748 -1.7734
13908TIP3   OH263138   1.055   1.604  12.997 -0.5874  0.4724 -0.8556
13908TIP3    H163139   1.034   1.657  13.074  0.9871 -0.6734  0.4283
13908TIP3    H263140   1.128   1.650  12.956  0.2880 -0.2572 -0.1599
13909TIP3   OH263141   1.654   1.516  11.497 -0.1319 -0.0353 -0.4633
13909TIP3    H163142   1.576   1.519  11.442 -0.2742  0.5649 -0.2389
13909TIP3    H263143   1.663   1.423  11.521 -1.3506  0.0220  0.3149
13910TIP3   OH263144   2.303   5.796  10.649  0.3909  0.0364  0.2506
13910TIP3    H163145   2.332   5.795  10.740 -0.2709 -0.1832  0.4632
13910TIP3    H263146   2.385   5.801  10.598  0.9172 -1.9577  0.7989
13911TIP3   OH263147   1.370   5.105   5.619  0.3793 -0.0845 -0.9244
13911TIP3    H163148   1.387   5.068   5.533 -0.2999  1.0456 -1.5616
13911TIP3    H263149   1.295   5.056   5.652  3.0709 -3.4738  0.9120
13912TIP3   OH263150   5.851   0.626   3.302 -0.1782  0.2883 -0.1111
13912TIP3    H163151   5.854   0.676   3.220  0.0119 -0.0161 -0.2890
13912TIP3    H263152   5.899   0.546   3.284  2.4906  1.4698  1.1599
13913TIP3   OH263153   1.795   5.591  16.206  0.2068 -0.4520  0.3738
13913TIP3    H163154   1.725   5.653  16.228  0.4375  0.8060 -2.1139
13913TIP3    H263155   1.852   5.592  16.283 -2.0619 -0.9608  2.1786
13914TIP3   OH263156   4.731   6.640   6.011 -0.2672 -0.0335 -0.2323
13914TIP3    H163157   4.648   6.593   6.007  0.9524 -2.2828 -0.8270
13914TIP3    H263158   4.706   6.732   6.013 -2.7727 -0.6373  0.2087
13915TIP3   OH263159   2.725   0.245  12.766  0.2215 -0.3079  0.3492
13915TIP3    H163160   2.644   0.278  12.727 -0.7842  1.1135  3.3646
13915TIP3    H263161   2.723   0.151  12.750 -0.9104 -0.0212 -1.4854
13916TIP3   OH263162   3.122   6.465   0.156  0.1253 -0.2560 -0.5910
13916TIP3    H163163   3.029   6.464   0.179  0.1946  0.5895 -0.2628
13916TIP3    H263164   3.153   6.378   0.182 -1.1648 -1.6657 -3.2651
13917TIP3   OH263165   2.837   6.543  13.976 -0.1493 -0.1807  0.4425
13917TIP3    H163166   2.846   6.451  13.998  1.3143 -0.5850 -1.5075
13917TIP3    H263167   2.773   6.544  13.905  2.2751 -0.2488 -1.9396
13918TIP3   OH263168   1.611   3.985  13.039  0.2216 -0.2240 -0.1442
13918TIP3    H163169   1.642   3.896  13.059  1.0782  0.1584  0.2732
13918TIP3    H263170   1.621   3.993  12.944  1.1311 -0.2172 -0.0541
13919TIP3   OH263171   4.359   5.082   6.099 -0.2445  0.2201 -0.3736
13919TIP3    H163172   4.398   5.065   6.185  1.4600  1.9398 -0.7449
13919TIP3    H263173   4.313   5.001   6.078  0.1708 -0.6246  1.6952
13920TIP3   OH263174   5.692   2.820  15.634  1.0061  0.6123 -0.1622
13920TIP3    H163175   5.681   2.753  15.701  2.2652  0.4779 -0.0694
13920TIP3    H263176   5.603   2.850  15.615  0.4676 -0.6971  0.1802
13921TIP3   OH263177   1.460   5.125  15.606  0.5352 -0.3368 -0.1989
13921TIP3    H163178   1.376   5.086  15.629  0.8387  0.7060  3.2934
13921TIP3    H263179   1.437   5.209  15.566 -0.0996 -0.3721  0.0803
13922TIP3   OH263180   5.056   2.244  14.438  0.3668 -0.5225  0.1797
13922TIP3    H163181   5.084   2.187  14.367  2.4326 -0.8366  1.1695
13922TIP3    H263182   4.980   2.291  14.403  0.1717 -2.0080 -1.5400
13923TIP3   OH263183   6.097   0.012  15.143 -0.2260 -0.8063  0.3432
13923TIP3    H163184   6.112   0.063  15.063  3.5319 -0.6963  0.9148
13923TIP3    H263185   6.034   0.063  15.193 -1.5897 -0.1608 -1.9102
13924TIP3   OH263186   0.383   6.664  15.857 -1.0045 -0.1466  0.1496
13924TIP3    H163187   0.387   6.580  15.903  1.6633 -0.8218 -1.1162
13924TIP3    H263188   0.403   6.642  15.766 -0.2129  1.8600 -0.2063
13925TIP3   OH263189   3.805   5.184   1.408  0.4359  0.1460  0.6370
13925TIP3    H163190   3.736   5.154   1.349  1.0832 -4.2108  1.7039
13925TIP3    H263191   3.761   5.194   1.492  0.3518  1.8476  0.4159
13926TIP3   OH263192   1.261   0.144   0.908 -0.1969  0.3830 -0.3545
13926TIP3    H163193   1.264   0.224   0.960 -0.4138  0.2517 -0.1383
13926TIP3    H263194   1.285   0.172   0.820  0.6384  0.5225 -0.0857
13927TIP3   OH263195   2.509   1.232   1.170 -0.4816 -0.2838  0.0509
13927TIP3    H163196   2.486   1.325   1.172 -0.6552 -0.3067 -0.8287
13927TIP3    H263197   2.552   1.219   1.086  2.4941 -0.3214  1.4718
13928TIP3   OH263198   1.121   6.338   4.541 -0.0465  0.6556 -0.3967
13928TIP3    H163199   1.027   6.318   4.541 -0.0189  0.5052  0.0908
13928TIP3    H263200   1.156   6.287   4.468  0.4271 -3.1945  2.2314
13929TIP3   OH263201   2.875   1.719   0.870 -0.4184 -0.0017  0.1816
13929TIP3    H163202   2.928   1.794   0.842 -2.0881  0.6986 -1.3163
13929TIP3    H263203   2.846   1.679   0.788  0.0674 -2.0606  0.9573
13930TIP3   OH263204   6.085   0.099  11.711  0.5975 -0.3251  0.2816
13930TIP3    H163205   6.159   0.156  11.690  1.4943 -1.2295  0.8721
13930TIP3    H263206   6.103   0.019  11.662  1.5087 -1.6001  2.5394
13931TIP3   OH263207   2.625   4.161  15.928 -0.4384  0.0891 -0.7451
13931TIP3    H163208   2.542   4.130  15.891  0.7506 -3.4554 -0.8563
13931TIP3    H263209   2.692   4.108  15.884  1.4643 -0.6106  2.6659
13932TIP3   OH263210   0.656   4.036   3.409  0.1480 -0.3119  0.2130
13932TIP3    H163211   0.670   3.952   3.452  0.3129 -0.4956 -0.1920
13932TIP3    H263212   0.629   4.095   3.479  1.2420 -0.3921  0.7220
13933TIP3   OH263213   5.671   3.300   1.204 -0.5549  0.3758 -0.7180
13933TIP3    H163214   5.578   3.316   1.222 -0.5579 -0.7889  0.4539
13933TIP3    H263215   5.682   3.325   1.112 -1.5908  2.3296 -0.3740
13934TIP3   OH263216   0.168   4.689   1.391 -0.3569  0.1023  0.1479
13934TIP3    H163217   0.162   4.782   1.411 -1.3412  0.1193 -0.1855
13934TIP3    H263218   0.200   4.649   1.472 -0.5898  0.6423  0.5081
13935TIP3   OH263219   4.079   0.061  14.618  0.3077  0.5786 -1.2273
13935TIP3    H163220   4.113   0.037  14.532 -1.5710 -0.2934 -1.7832
13935TIP3    H263221   3.988   0.029  14.618 -0.3226  2.1671  0.3935
13936TIP3   OH263222   4.748   5.723  15.383  0.1581  0.7002  0.5763
13936TIP3    H163223   4.821   5.699  15.439 -0.8065 -1.3183  1.0668
13936TIP3    H263224   4.671   5.713  15.439 -0.6793  0.4260 -0.5881
13937TIP3   OH263225   1.806   4.543   4.864 -0.4456 -0.4321 -0.4816
13937TIP3    H163226   1.713   4.521   4.861 -0.0481 -2.1676 -2.8879
13937TIP3    H263227   1.847   4.484   4.801  2.5916 -0.9674  1.7565
13938TIP3   OH263228   2.762   2.140  12.838 -0.3376 -0.5690  0.0931
13938TIP3    H163229   2.838   2.127  12.781 -1.0545 -0.8618 -0.8117
13938TIP3    H263230   2.687   2.137  12.779 -0.9399  2.3785  0.5726
13939TIP3   OH263231   3.553   2.228  16.964  0.0953 -0.3270  0.1331
13939TIP3    H163232   3.608   2.164  16.919  0.4730 -0.6330  1.0057
13939TIP3    H263233   3.607   2.308  16.967 -0.7420  0.3839 -1.8222
13940TIP3   OH263234   1.678   1.493  13.240  0.1261  0.1391 -0.3833
13940TIP3    H163235   1.587   1.463  13.242  0.8233 -2.1903  0.0678
13940TIP3    H263236   1.672   1.586  13.219 -2.2085 -0.5802 -3.8933
13941TIP3   OH263237   5.775   3.773   3.248  0.7639 -0.2250 -0.4880
13941TIP3    H163238   5.803   3.702   3.190  0.5356  0.1783 -1.1047
13941TIP3    H263239   5.830   3.763   3.326 -0.0669 -1.7867 -0.0630
13942TIP3   OH263240   3.295   2.935   3.455  0.1369  0.2314  0.5449
13942TIP3    H163241   3.282   2.933   3.550  0.1780  3.1949  0.7047
13942TIP3    H263242   3.287   3.027   3.431 -0.0421 -0.4356 -2.3939
13943TIP3   OH263243   6.229   4.747  17.140  0.0057 -0.3305  0.4586
13943TIP3    H163244   6.246   4.653  17.137 -1.2227 -0.5327 -1.0198
13943TIP3    H263245   6.304   4.785  17.094 -0.4227 -0.7520 -0.6253
13944TIP3   OH263246   4.649   5.309   6.151 -0.4713 -0.3788  0.6384
13944TIP3    H163247   4.592   5.236   6.173  0.1685 -1.7417 -1.7667
13944TIP3    H263248   4.732   5.290   6.196 -0.8447 -0.1981  1.4099
13945TIP3   OH263249   1.521   5.256   2.169  0.0619 -0.3436  0.4967
13945TIP3    H163250   1.548   5.195   2.101  1.6113 -0.7706  1.4501
13945TIP3    H263251   1.554   5.218   2.250  1.1569  1.7743  1.1248
13946TIP3   OH263252   1.726   3.380   1.008 -0.0707  0.4647 -0.0873
13946TIP3    H163253   1.680   3.383   1.092 -0.1475  0.9607 -0.1453
13946TIP3    H263254   1.690   3.303   0.964  0.2271 -0.0100  0.4810
13947TIP3   OH263255   3.608   4.944  12.336  0.0896 -0.5022 -0.3786
13947TIP3    H163256   3.636   4.968  12.425 -0.9724  0.7710 -0.3525
13947TIP3    H263257   3.661   5.000  12.279 -2.0007  1.6833 -0.3415
13948TIP3   OH263258   3.103   0.990   0.723 -0.0836 -0.4284  0.9729
13948TIP3    H163259   3.180   1.030   0.682 -0.7697 -1.0350 -1.0230
13948TIP3    H263260   3.122   0.896   0.722 -0.8410 -0.5869  0.4148
13949TIP3   OH263261   4.155   2.955  11.703 -0.6450 -0.4263  0.0383
13949TIP3    H163262   4.134   2.964  11.610  2.3745  2.2387 -0.5537
13949TIP3    H263263   4.070   2.942  11.746 -2.7294  2.7525 -2.6506
13950TIP3   OH263264   6.115   4.704  13.836  0.0403  0.1875 -0.2353
13950TIP3    H163265   6.138   4.614  13.815  1.7588  0.3442  0.7912
13950TIP3    H263266   6.045   4.696  13.901  1.3313 -0.4910  1.1422
13951TIP3   OH263267   3.833   4.864  17.169  0.2902 -0.1114  0.3674
13951TIP3    H163268   3.881   4.862  17.086 -0.6326 -0.2396 -0.1756
13951TIP3    H263269   3.827   4.772  17.195 -0.3006 -0.1652  0.0523
13952TIP3   OH263270   4.759   2.373   4.011  0.0842  0.0616 -0.3887
13952TIP3    H163271   4.808   2.415   3.941  2.3673 -0.9545  0.5141
13952TIP3    H263272   4.733   2.444   4.069 -1.1078  0.8137 -1.7736
13953TIP3   OH263273   4.626   2.034  14.105 -0.0033  0.6328 -0.1592
13953TIP3    H163274   4.702   2.076  14.065  1.0753 -2.4180 -1.6580
13953TIP3    H263275   4.561   2.030  14.034 -0.4479  0.6187  0.2441
13954TIP3   OH263276   3.054   1.624   5.376  0.2944  0.0854 -0.3617
13954TIP3    H163277   2.987   1.556   5.372 -1.3418  1.5436  1.0710
13954TIP3    H263278   3.120   1.589   5.436  0.5271 -1.0727 -1.2484
13955TIP3   OH263279   0.354   4.875   0.956  0.2942 -0.3542 -0.0718
13955TIP3    H163280   0.342   4.919   0.872 -0.0393  0.2399  0.2853
13955TIP3    H263281   0.423   4.811   0.939  0.3116 -0.1636 -0.7682
13956TIP3   OH263282   6.489   6.604   2.864 -0.1106 -0.2731  0.4485
13956TIP3    H163283   6.565   6.630   2.916 -0.7100 -0.5718  1.5070
13956TIP3    H263284   6.501   6.647   2.780  1.8634 -1.3314  0.1472
13957TIP3   OH263285   2.268   1.772   0.373  0.3554  0.1553  1.2073
13957TIP3    H163286   2.296   1.834   0.305  1.0147 -1.7384 -0.3325
13957TIP3    H263287   2.175   1.758   0.355  0.9201 -1.7741 -0.6131
13958TIP3   OH263288   2.897   1.218  11.438  0.0344  0.3779 -0.3902
13958TIP3    H163289   2.848   1.180  11.511  1.5572  2.2195  1.7568
13958TIP3    H263290   2.977   1.166  11.433  0.6159  1.1789  0.3168
13959TIP3   OH263291   3.075   4.992   5.015 -0.0187 -0.0236 -0.6035
13959TIP3    H163292   3.165   4.962   4.997  0.9879  2.4720 -0.0404
13959TIP3    H263293   3.075   5.014   5.108 -1.3582 -0.3092 -0.5131
13960TIP3   OH263294   3.835   5.671   0.874  0.9007 -0.2144  0.3304
13960TIP3    H163295   3.831   5.766   0.866  2.8315 -0.0817  0.4324
13960TIP3    H263296   3.913   5.646   0.825  0.4105 -1.7587  0.2802
13961TIP3   OH263297   1.187   5.680  17.138  0.1187  0.1209  0.4259
13961TIP3    H163298   1.196   5.666  17.044  0.3036 -0.0720  0.4730
13961TIP3    H263299   1.277   5.686  17.170  0.0918 -1.1052  0.7822
13962TIP3   OH263300   4.738   5.441   2.456  0.4530 -0.2059 -0.1996
13962TIP3    H163301   4.832   5.424   2.443  0.4036 -0.9096  0.3051
13962TIP3    H263302   4.698   5.417   2.372  0.3886 -2.7124  0.4609
13963TIP3   OH263303   5.617   2.316  12.911 -0.6598  0.1417  0.6036
13963TIP3    H163304   5.526   2.288  12.909  0.1317 -2.6915 -0.1554
13963TIP3    H263305   5.636   2.341  12.820 -0.6279  0.5832  0.7294
13964TIP3   OH263306   0.631   1.294  13.259  0.2908 -0.5234 -0.2290
13964TIP3    H163307   0.653   1.366  13.200 -1.0143  0.2966  0.2486
13964TIP3    H263308   0.675   1.315  13.341  0.2071 -0.4702 -0.1987
13965TIP3   OH263309   1.092   2.029   5.987 -0.6068  0.3516 -0.0212
13965TIP3    H163310   1.095   2.095   6.057 -0.6727  0.5203 -0.1777
13965TIP3    H263311   1.180   1.992   5.984 -0.7828 -0.1520  0.6288
13966TIP3   OH263312   1.176   2.795  11.184  0.1355  0.5081 -0.1869
13966TIP3    H163313   1.100   2.763  11.136  0.1221  0.2804 -0.0169
13966TIP3    H263314   1.161   2.765  11.274 -0.0876  1.3632  0.0628
13967TIP3   OH263315   1.693   3.731  12.599  0.4385 -0.1584 -0.3160
13967TIP3    H163316   1.624   3.736  12.533  1.1601 -2.3275 -1.3205
13967TIP3    H263317   1.766   3.780  12.562 -0.1901  1.3058  0.3160
13968TIP3   OH263318   5.235   1.290  16.830 -0.4240  0.1034 -0.3709
13968TIP3    H163319   5.160   1.234  16.847 -1.4380  1.5770  0.2594
13968TIP3    H263320   5.280   1.297  16.914 -0.2218  0.1313 -0.4784
13969TIP3   OH263321   5.858   1.977  12.705 -0.6615 -0.1432 -0.1097
13969TIP3    H163322   5.874   1.950  12.795  0.5608 -0.6192 -0.4489
13969TIP3    H263323   5.763   1.987  12.699 -0.9236 -1.8912  0.7169
13970TIP3   OH263324   6.086   0.329   3.301  0.2493  0.3260 -0.1130
13970TIP3    H163325   6.172   0.371   3.298  0.4182  0.1239  1.1071
13970TIP3    H263326   6.104   0.236   3.286  0.2914  0.2492  0.3724
13971TIP3   OH263327   1.584   6.650  13.328  0.0739  0.0031  0.5951
13971TIP3    H163328   1.648   6.585  13.300 -1.0947 -1.7258  1.7250
13971TIP3    H263329   1.627   6.699  13.397  0.9874  0.4990 -0.2993
13972TIP3   OH263330   5.226   4.812   5.356  0.1651  0.6081  0.1758
13972TIP3    H163331   5.212   4.767   5.439 -1.6412 -0.6024 -0.7224
13972TIP3    H263332   5.153   4.874   5.350  0.9395  1.5161  0.0131
13973TIP3   OH263333   3.146   3.511  16.818  0.1744 -0.4309 -0.1430
13973TIP3    H163334   3.219   3.569  16.796 -0.8020  1.3442  1.0380
13973TIP3    H263335   3.152   3.440  16.754  1.9098  0.5369 -1.1513
13974TIP3   OH263336   2.350   4.185   0.925 -0.0921  0.1926  0.0392
13974TIP3    H163337   2.357   4.118   0.993  1.2036  3.0594  3.0334
13974TIP3    H263338   2.265   4.226   0.941  0.1595  0.7977 -0.1330
13975TIP3   OH263339   6.621   0.891   5.847 -0.3576 -0.0103 -0.3613
13975TIP3    H163340   6.611   0.826   5.917 -0.7542  0.1600 -0.2549
13975TIP3    H263341   6.679   0.849   5.783 -0.8995 -0.6122 -0.4675
13976TIP3   OH263342   5.868   4.498  15.053 -0.1888 -0.9901 -0.0737
13976TIP3    H163343   5.828   4.411  15.051  3.4294 -2.8382 -0.2997
13976TIP3    H263344   5.962   4.481  15.062  0.7866  2.8928 -1.0450
13977TIP3   OH263345   0.737   0.490  16.520 -0.2763  0.1707 -0.6998
13977TIP3    H163346   0.768   0.463  16.434  0.6892 -1.8716  0.2128
13977TIP3    H263347   0.663   0.432  16.538  0.3621 -0.3493  0.3596
13978TIP3   OH263348   0.688   0.707  12.296  0.6150 -0.1242 -0.0404
13978TIP3    H163349   0.713   0.724  12.387 -1.0248  2.1570  0.0653
13978TIP3    H263350   0.697   0.792  12.252  0.1676 -0.8998 -1.7220
13979TIP3   OH263351   5.838   5.189  14.299  0.1339  0.1253  0.1738
13979TIP3    H163352   5.825   5.212  14.391 -0.3333  0.5654  0.0035
13979TIP3    H263353   5.753   5.153  14.272 -0.2896  1.5998 -0.5494
13980TIP3   OH263354   5.762   1.390   0.763 -0.4296  0.2738 -0.2148
13980TIP3    H163355   5.681   1.439   0.755 -0.2878  0.8400  1.3451
13980TIP3    H263356   5.739   1.314   0.816  0.3514  1.3447  1.7821
13981TIP3   OH263357   4.647   3.573   0.794 -0.6501 -0.1080 -0.6931
13981TIP3    H163358   4.573   3.635   0.795 -1.5274 -1.0975 -1.6371
13981TIP3    H263359   4.701   3.603   0.720  0.8510  1.6101  0.9693
13982TIP3   OH263360   3.701   3.282   4.173  0.1068 -0.2559  0.2553
13982TIP3    H163361   3.743   3.364   4.197  0.3392 -0.3047  0.0198
13982TIP3    H263362   3.691   3.286   4.078 -0.0524 -0.4178  0.2633
13983TIP3   OH263363   5.932   2.719  13.552  0.3051  0.0977  0.0538
13983TIP3    H163364   5.961   2.682  13.635  1.6098  0.7321 -0.0972
13983TIP3    H263365   6.008   2.713  13.494 -0.8276 -1.1162 -1.3985
13984TIP3   OH263366   2.795   1.321   0.335  0.2576  0.0189  0.0132
13984TIP3    H163367   2.794   1.414   0.314  0.2383  0.2641  1.0552
13984TIP3    H263368   2.724   1.310   0.399  0.2953 -0.7012 -0.0548
13985TIP3   OH263369   4.980   2.523   2.619 -0.0601  0.5451 -0.2993
13985TIP3    H163370   4.978   2.433   2.652  0.0681  0.7989  0.3970
13985TIP3    H263371   4.913   2.524   2.551  2.7760 -1.2935 -3.4844
13986TIP3   OH263372   1.889   1.331  14.608 -0.0829 -0.1565  0.0501
13986TIP3    H163373   1.905   1.321  14.514 -1.3249 -1.1750 -0.0883
13986TIP3    H263374   1.898   1.243  14.643  1.5682  0.4103  1.1239
13987TIP3   OH263375   5.498   5.114  15.592  0.1364  0.1789  0.3902
13987TIP3    H163376   5.480   5.179  15.524  2.6337  0.4500 -0.0810
13987TIP3    H263377   5.513   5.166  15.671 -1.0129 -0.0403  0.7697
13988TIP3   OH263378   3.402   5.489  11.551 -0.2935  0.4397  0.8413
13988TIP3    H163379   3.379   5.536  11.470 -0.0636 -1.0000 -0.0891
13988TIP3    H263380   3.374   5.548  11.621  0.2895  2.1138 -0.2694
13989TIP3   OH263381   1.431   3.529  13.656  0.3100  0.3155  0.0479
13989TIP3    H163382   1.365   3.506  13.591 -1.3164  0.4669  1.5872
13989TIP3    H263383   1.387   3.519  13.740  2.4155 -0.0986  1.1762
13990TIP3   OH263384   4.385   0.392  17.156 -0.0753  0.1558  0.2579
13990TIP3    H163385   4.433   0.310  17.143 -2.5882 -1.3363 -0.3651
13990TIP3    H263386   4.327   0.398  17.080 -0.2860  2.2897  0.5325
13991TIP3   OH263387   6.531   2.598   1.397 -0.3815 -0.4609 -0.5408
13991TIP3    H163388   6.603   2.564   1.343  0.6128 -0.1805  0.5454
13991TIP3    H263389   6.454   2.595   1.341  0.4282 -1.0617 -1.6464
13992TIP3   OH263390   6.440   5.330   2.327  0.0748  0.1018 -0.2005
13992TIP3    H163391   6.495   5.260   2.293 -1.4093 -1.2639  0.0992
13992TIP3    H263392   6.352   5.294   2.327 -0.5996  1.6199  0.9290
13993TIP3   OH263393   1.560   6.501   5.853 -0.4707 -0.0630 -0.5612
13993TIP3    H163394   1.538   6.423   5.802 -0.3488  0.1684 -0.9698
13993TIP3    H263395   1.647   6.484   5.887 -0.7783 -0.4574  0.0415
13994TIP3   OH263396   6.228   4.967  11.098  0.2234  0.1024  0.0505
13994TIP3    H163397   6.322   4.956  11.087  0.2480  1.2576 -1.0535
13994TIP3    H263398   6.208   5.049  11.053 -1.4346 -0.5087 -0.3860
13995TIP3   OH263399   1.502   2.895  11.208  0.1102  0.6698  0.4784
13995TIP3    H163400   1.419   2.917  11.251  0.2840 -0.4312  1.4257
13995TIP3    H263401   1.482   2.818  11.155  0.3191  0.9783 -0.0636
13996TIP3   OH263402   1.444   2.755  12.622 -0.8459  0.0230  0.5099
13996TIP3    H163403   1.412   2.753  12.532  1.3744 -1.7927 -0.3278
13996TIP3    H263404   1.527   2.802  12.617  0.6132 -2.3190  1.0390
13997TIP3   OH263405   2.192   5.148   2.916  0.1957 -0.2576 -0.1516
13997TIP3    H163406   2.178   5.090   2.992  3.3789  2.0038  2.4678
13997TIP3    H263407   2.263   5.107   2.868  0.1232 -0.2579 -0.2573
13998TIP3   OH263408   2.129   4.457  11.203  0.5619 -0.4013  0.7181
13998TIP3    H163409   2.216   4.418  11.215  0.9098 -0.1275 -0.6742
13998TIP3    H263410   2.085   4.399  11.141  0.6148  0.6682 -0.3641
13999TIP3   OH263411   3.455   3.404  14.944 -0.6182 -0.7920 -0.6290
13999TIP3    H163412   3.524   3.432  15.004 -0.6744  2.1211 -1.7961
13999TIP3    H263413   3.479   3.314  14.921  1.2397 -0.8220  1.1041
14000TIP3   OH263414   2.842   0.004  12.288  0.0405 -0.0073 -0.5739
14000TIP3    H163415   2.789   0.008  12.209  1.0649  1.3894 -1.2371
14000TIP3    H263416   2.908  -0.063  12.270  1.6482  1.8109 -1.8653
14001TIP3   OH263417   0.768   0.530   5.451  0.4562 -0.3891  0.1857
14001TIP3    H163418   0.781   0.585   5.374 -1.9517  0.8801  0.5938
14001TIP3    H263419   0.844   0.472   5.452  1.2320  0.4534 -2.3572
14002TIP3   OH263420   2.556   2.090   1.918  0.2155 -0.2534 -0.5137
14002TIP3    H163421   2.585   2.181   1.924 -2.1070  0.4899  0.3956
14002TIP3    H263422   2.600   2.056   1.840  1.3206  1.5673 -0.7250
14003TIP3   OH263423   4.274   0.043  12.092  0.4947  0.1586  0.2205
14003TIP3    H163424   4.330   0.026  12.168  0.3451  1.5125  0.6464
14003TIP3    H263425   4.320   0.111  12.043  2.5659 -3.1895 -3.0265
14004TIP3   OH263426   1.747   1.610  12.432 -0.6172  0.1365 -0.2353
14004TIP3    H163427   1.814   1.595  12.499 -1.1523  1.8784  0.7270
14004TIP3    H263428   1.670   1.563  12.464 -0.4913 -0.1099 -0.2895
14005TIP3   OH263429   0.994   0.268   1.045  0.3322  0.5645  0.4290
14005TIP3    H163430   1.009   0.213   1.122 -1.3098  0.3561  0.6389
14005TIP3    H263431   0.961   0.351   1.080 -0.1057  0.5899 -0.0225
14006TIP3   OH263432   2.423   4.135   2.629  0.0613  0.3780  0.2465
14006TIP3    H163433   2.515   4.108   2.628  0.0065  0.1998 -0.2013
14006TIP3    H263434   2.426   4.230   2.636  0.2957  0.4330 -0.5349
14007TIP3   OH263435   4.982   0.144   2.260  0.4868 -0.3777 -0.1098
14007TIP3    H163436   4.942   0.127   2.174 -0.0164 -3.5715  0.6420
14007TIP3    H263437   5.057   0.201   2.240 -0.1396 -0.2584 -2.5131
14008TIP3   OH263438   4.199   4.726   0.869 -0.3164 -0.5098  0.0322
14008TIP3    H163439   4.153   4.810   0.859  1.6053  0.7515  0.9842
14008TIP3    H263440   4.130   4.662   0.886 -1.8088  0.9796 -0.1401
14009TIP3   OH263441   0.480   3.506  16.942  0.2299 -0.3967  0.2968
14009TIP3    H163442   0.502   3.437  17.005 -0.0129 -0.5352  0.2287
14009TIP3    H263443   0.510   3.586  16.985  0.7276 -0.5638  0.2740
14010TIP3   OH263444   5.418   2.642   4.861  0.0248  1.0997 -0.4392
14010TIP3    H163445   5.405   2.734   4.885 -1.5888  1.8045 -3.5472
14010TIP3    H263446   5.330   2.604   4.863  0.5785 -0.2355  0.0864
14011TIP3   OH263447   6.358   2.163   5.542 -0.2265  0.4666 -0.3988
14011TIP3    H163448   6.418   2.196   5.475  0.8491 -1.7758 -0.6478
14011TIP3    H263449   6.352   2.233   5.606  1.2565  1.4366 -1.2677
14012TIP3   OH263450   4.375   4.912   5.532  0.2065  0.4006  0.1131
14012TIP3    H163451   4.304   4.932   5.593  0.3491 -1.0707  0.8075
14012TIP3    H263452   4.444   4.975   5.554 -1.2610  2.6945 -1.4025
14013TIP3   OH263453   4.653   2.272  13.270  0.5188 -0.5040  0.0286
14013TIP3    H163454   4.605   2.276  13.187  1.2298 -1.5867 -0.4600
14013TIP3    H263455   4.725   2.335  13.259  0.7290 -0.7931 -0.2528
14014TIP3   OH263456   6.519   4.675   3.948  0.3109 -0.0586 -0.5353
14014TIP3    H163457   6.575   4.752   3.935  0.4776  0.3417  2.1365
14014TIP3    H263458   6.435   4.710   3.978 -0.4946 -0.8316 -1.7453
14015TIP3   OH263459   3.742   0.048  15.429  0.3871 -0.1425  0.3052
14015TIP3    H163460   3.681   0.003  15.370  0.4831 -1.2741  1.0330
14015TIP3    H263461   3.823   0.054  15.379 -0.2837  1.4058 -0.6862
14016TIP3   OH263462   3.732   3.630  11.572 -0.1884  0.0012  0.2130
14016TIP3    H163463   3.658   3.662  11.623 -0.0316  1.1007 -0.2211
14016TIP3    H263464   3.695   3.614  11.485 -0.1467 -0.4977  0.2844
14017TIP3   OH263465   4.547   5.367   3.567  0.3461 -0.4447 -0.4752
14017TIP3    H163466   4.456   5.392   3.583  0.4073  0.4807 -1.4399
14017TIP3    H263467   4.598   5.420   3.628  0.3751  0.7920 -1.5344
14018TIP3   OH263468   4.411   5.898  12.279 -0.7077 -0.1678  0.0520
14018TIP3    H163469   4.369   5.970  12.327  1.1418 -0.1422  1.7711
14018TIP3    H263470   4.409   5.825  12.340 -0.0831 -0.7554 -0.6168
14019TIP3   OH263471   4.819   4.816  16.327 -0.2328 -0.2338  0.1795
14019TIP3    H163472   4.895   4.768  16.359 -1.7370 -2.7110  0.2961
14019TIP3    H263473   4.849   4.858  16.247  0.7174 -3.1281 -1.1203
14020TIP3   OH263474   0.884   1.445   1.615  0.2973 -0.1077 -0.3800
14020TIP3    H163475   0.949   1.376   1.604  0.2786  0.0019 -1.2743
14020TIP3    H263476   0.929   1.524   1.586 -0.2507 -0.0452 -1.0845
14021TIP3   OH263477   3.296   5.061  13.407  0.4992  0.3868 -0.2946
14021TIP3    H163478   3.363   4.995  13.387  0.5506 -0.5076  2.3781
14021TIP3    H263479   3.345   5.133  13.448  0.1390  0.9886 -0.9036
14022TIP3   OH263480   3.959   5.139  12.928 -0.3310  0.2521  0.5110
14022TIP3    H163481   3.903   5.061  12.930 -0.7437  0.4732 -1.0641
14022TIP3    H263482   4.031   5.114  12.870  0.2664  0.5871  1.0994
14023TIP3   OH263483   4.201   4.942   1.879 -0.7232  0.1620  1.1319
14023TIP3    H163484   4.202   4.846   1.880  0.9168  0.1393  2.7026
14023TIP3    H263485   4.157   4.966   1.961 -0.0484  0.7350  1.3312
14024TIP3   OH263486   6.411   0.755  11.953  0.1466 -0.3182  0.1804
14024TIP3    H163487   6.361   0.685  11.911 -0.3591  0.3463 -0.3603
14024TIP3    H263488   6.385   0.752  12.045 -0.4098 -0.3809  0.0226
14025TIP3   OH263489   4.144   3.463  15.706  0.3216  0.0283 -0.3192
14025TIP3    H163490   4.156   3.419  15.791  1.9247  0.6422 -0.1953
14025TIP3    H263491   4.065   3.515  15.717 -0.4396 -1.1980  0.2250
14026TIP3   OH263492   0.481   5.363   1.668 -0.1941  0.1636 -0.4799
14026TIP3    H163493   0.464   5.275   1.701  0.0635  0.1654 -0.3385
14026TIP3    H263494   0.412   5.417   1.706  0.5088  0.2998  0.6374
14027TIP3   OH263495   0.720   3.176   4.464 -0.4157  0.0930  0.4757
14027TIP3    H163496   0.774   3.110   4.421 -1.7740 -1.8640  1.6014
14027TIP3    H263497   0.651   3.195   4.401 -0.1712  0.2417  0.2508
14028TIP3   OH263498   5.895   2.772  16.346  0.2198 -0.2053  0.2565
14028TIP3    H163499   5.881   2.707  16.415 -0.3226 -1.0218 -0.5921
14028TIP3    H263500   5.984   2.756  16.315  0.3306 -0.0819  0.5051
14029TIP3   OH263501   4.066   4.240  14.478  0.1775 -0.0111  0.4110
14029TIP3    H163502   4.043   4.299  14.550 -0.0941 -0.9382  1.0994
14029TIP3    H263503   4.098   4.161  14.521 -1.0784 -1.0243 -0.4403
14030TIP3   OH263504   0.735   4.685  14.627  0.2830 -0.0352  0.8708
14030TIP3    H163505   0.724   4.743  14.552 -1.0334 -0.2620  0.8696
14030TIP3    H263506   0.818   4.639  14.610  1.2071  1.6146  0.7438
14031TIP3   OH263507   2.938   3.267  15.034  0.4363 -0.0199  0.3245
14031TIP3    H163508   3.017   3.312  15.005  0.2070 -1.1550 -2.4119
14031TIP3    H263509   2.872   3.336  15.042  0.8582  0.5336 -0.7881
14032TIP3   OH263510   0.710   5.698   1.073  0.2638 -0.2673  0.8966
14032TIP3    H163511   0.779   5.764   1.087 -1.3292  1.9782 -0.9886
14032TIP3    H263512   0.645   5.718   1.140 -0.4931  0.5146 -0.0495
14033TIP3   OH263513   3.597   3.102  10.789 -0.1929  0.1271  0.2184
14033TIP3    H163514   3.644   3.062  10.863 -0.0076  0.6608  0.3938
14033TIP3    H263515   3.604   3.037  10.719 -0.6133 -0.5122  0.7528
14034TIP3   OH263516   0.451   6.541  11.261 -0.0189  0.2398 -0.4906
14034TIP3    H163517   0.530   6.496  11.230  1.6334  0.9987  2.2771
14034TIP3    H263518   0.460   6.630  11.227  0.9488  0.6316  0.7240
14035TIP3   OH263519   3.746   4.879   2.678 -0.1100 -0.4498  0.1845
14035TIP3    H163520   3.830   4.868   2.722  0.7817 -1.0680 -1.5702
14035TIP3    H263521   3.752   4.964   2.635 -0.3601 -0.5380 -0.0260
14036TIP3   OH263522   3.061   1.581  11.319  0.4499 -0.1889  0.3628
14036TIP3    H163523   2.976   1.545  11.345  0.0103 -0.3132 -1.1355
14036TIP3    H263524   3.060   1.578  11.223  1.8404  0.5319  0.2968
14037TIP3   OH263525   5.145   0.660  15.711 -0.1015 -0.5323  0.0179
14037TIP3    H163526   5.135   0.654  15.806 -0.5533 -0.1923 -0.0069
14037TIP3    H263527   5.082   0.596  15.677  0.8865 -1.5070 -0.0262
14038TIP3   OH263528   3.941   5.645   2.497 -0.0212  0.2391  0.3890
14038TIP3    H163529   3.974   5.582   2.561 -0.3496 -0.0160  0.3097
14038TIP3    H263530   4.017   5.697   2.474  0.1037  0.3310  0.9844
14039TIP3   OH263531   2.575   5.199  16.422 -0.3510 -0.5617  0.3992
14039TIP3    H163532   2.633   5.269  16.392  0.0385 -1.1325 -0.2084
14039TIP3    H263533   2.631   5.144  16.477 -0.2371 -1.2543 -0.3894
14040TIP3   OH263534   4.522   5.628  15.503 -0.5975 -0.6171 -0.1242
14040TIP3    H163535   4.561   5.550  15.542 -0.8262 -0.2773  0.8031
14040TIP3    H263536   4.459   5.659  15.568  0.1238  0.8427 -0.0874
14041TIP3   OH263537   0.730   3.498   3.868 -0.3007  0.2227  0.3230
14041TIP3    H163538   0.727   3.478   3.775 -0.0640  1.1662  0.0989
14041TIP3    H263539   0.702   3.590   3.874 -0.1856  0.2145  1.1640
14042TIP3   OH263540   1.862   5.632  14.726  0.0633 -0.0694 -0.6560
14042TIP3    H163541   1.773   5.664  14.709 -0.1815 -1.5591 -2.5320
14042TIP3    H263542   1.915   5.712  14.734 -1.3610  0.8344  0.2181
14043TIP3   OH263543   1.452   1.366   3.261  0.2386  0.5333 -0.0372
14043TIP3    H163544   1.385   1.417   3.307  0.7027  1.3527 -0.2566
14043TIP3    H263545   1.531   1.419   3.267  0.7355 -0.1642 -0.2743
14044TIP3   OH263546   3.059   3.318  16.184  0.8758  0.3468 -0.1441
14044TIP3    H163547   3.090   3.322  16.094 -2.2108 -0.4104 -1.3570
14044TIP3    H263548   3.030   3.407  16.204  0.2640  0.2084 -0.4116
14045TIP3   OH263549   1.953   4.302   0.195  0.2273 -0.3421  0.5520
14045TIP3    H163550   1.982   4.359   0.267 -0.5703 -1.1096  1.5112
14045TIP3    H263551   1.979   4.349   0.116 -1.7747  2.1642  1.2390
14046TIP3   OH263552   0.461   4.638  16.288  0.0839 -0.0446  0.1607
14046TIP3    H163553   0.448   4.567  16.351  1.5239 -2.0645 -1.6620
14046TIP3    H263554   0.544   4.677  16.313 -1.5133  2.2634  2.2103
14047TIP3   OH263555   1.801   5.608   5.860 -0.0033  0.6468 -0.0637
14047TIP3    H163556   1.859   5.664   5.808  1.1032 -0.6466 -0.2557
14047TIP3    H263557   1.786   5.531   5.806 -0.3187  0.0996  0.7761
14048TIP3   OH263558   5.252   0.858  15.028 -0.1739  0.2467  0.1408
14048TIP3    H163559   5.193   0.828  15.098 -0.7446 -0.5116 -0.6490
14048TIP3    H263560   5.311   0.785  15.013 -0.5909  0.0732 -0.7355
14049TIP3   OH263561   2.251   3.962  13.364 -0.0407  0.0986  0.3430
14049TIP3    H163562   2.167   3.933  13.329  0.1420 -0.8762  0.6620
14049TIP3    H263563   2.229   4.034  13.423 -0.6961 -0.3686  0.6858
14050TIP3   OH263564   3.122   4.902   0.228 -0.5368 -0.3104  0.4153
14050TIP3    H163565   3.212   4.921   0.202 -1.3502  1.4142 -1.3838
14050TIP3    H263566   3.116   4.806   0.225  0.5516 -0.3754 -2.0787
14051TIP3   OH263567   6.389   2.548   1.843 -0.2408 -0.3915 -0.1338
14051TIP3    H163568   6.421   2.462   1.814  0.9587 -0.4124  1.1426
14051TIP3    H263569   6.419   2.608   1.775  0.9489 -0.6870  0.0926
14052TIP3   OH263570   3.372   1.394  14.164 -0.0342 -0.0980 -0.6994
14052TIP3    H163571   3.397   1.340  14.089 -1.7952  0.0521 -1.4453
14052TIP3    H263572   3.277   1.398  14.160 -0.1527  0.1588  1.4071
14053TIP3   OH263573   3.407   1.011   3.256 -0.3206  0.0150  0.5607
14053TIP3    H163574   3.433   1.095   3.218 -1.3455  0.4286  0.7233
14053TIP3    H263575   3.319   1.027   3.290 -0.8521 -1.3496 -0.1025
14054TIP3   OH263576   0.762   1.428  11.723 -0.0036  0.7443 -0.4785
14054TIP3    H163577   0.804   1.512  11.744 -1.4457  1.1462  0.9862
14054TIP3    H263578   0.730   1.396  11.806 -0.8346 -0.5319 -1.2621
14055TIP3   OH263579   3.548   0.391   1.951  0.0167  0.4217  0.0334
14055TIP3    H163580   3.606   0.428   2.018  3.3547 -1.1879 -1.6939
14055TIP3    H263581   3.524   0.466   1.896  0.3495  1.1646  0.8760
14056TIP3   OH263582   1.658   0.698  12.359  0.0398  0.0108  0.0668
14056TIP3    H163583   1.734   0.639  12.354 -0.1373 -0.4203  1.9441
14056TIP3    H263584   1.591   0.648  12.405 -0.7571  1.0582  0.0863
14057TIP3   OH263585   2.477   5.383   0.710 -0.1347  0.1470 -0.0510
14057TIP3    H163586   2.531   5.412   0.783  2.0766 -0.0218 -1.4954
14057TIP3    H263587   2.496   5.289   0.702 -1.1531 -0.0545 -0.2136
14058TIP3   OH263588   5.582   5.049   1.550 -0.1494  0.1839 -0.1301
14058TIP3    H163589   5.606   5.137   1.581  0.3338  0.6431 -1.7047
14058TIP3    H263590   5.487   5.054   1.537 -0.4816 -0.2509  1.9016
14059TIP3   OH263591   5.328   5.319  13.759 -0.2428  0.7057  0.0304
14059TIP3    H163592   5.351   5.252  13.694  0.1905 -0.2670  1.1566
14059TIP3    H263593   5.381   5.395  13.735  0.0223  0.3093 -0.6633
14060TIP3   OH263594   5.803   3.153   2.658  0.0689  0.0337  0.1245
14060TIP3    H163595   5.736   3.100   2.614  0.3395 -0.9277  0.8425
14060TIP3    H263596   5.758   3.190   2.733 -0.1802  1.0377 -0.4991
14061TIP3   OH263597   3.223   3.507  11.660 -0.5565  0.1503  0.5581
14061TIP3    H163598   3.302   3.500  11.608 -1.3560  0.7527 -0.8092
14061TIP3    H263599   3.232   3.590  11.707  0.6565 -0.9133  2.2950
14062TIP3   OH263600   6.210   0.477  16.316  0.4046 -0.1112  0.1206
14062TIP3    H163601   6.235   0.501  16.227  0.0496  1.6295  0.4477
14062TIP3    H263602   6.177   0.558  16.354 -3.1007 -1.5808  0.6121
14063TIP3   OH263603   5.927   4.172   1.714 -0.2752 -0.2412 -0.0269
14063TIP3    H163604   5.855   4.139   1.768  0.0398  0.2375  0.7046
14063TIP3    H263605   5.964   4.244   1.765 -0.0087  0.2714 -0.9138
14064TIP3   OH263606   4.153   3.894  12.147 -0.0453  0.3333  0.2526
14064TIP3    H163607   4.205   3.974  12.155  1.1839 -0.1242 -2.1584
14064TIP3    H263608   4.211   3.824  12.179 -0.7075  0.2374  1.3062
14065TIP3   OH263609   4.497   4.660  15.310 -0.0213 -0.1107 -0.9743
14065TIP3    H163610   4.488   4.753  15.332  1.3852 -0.5423  1.9101
14065TIP3    H263611   4.407   4.626  15.312 -0.3559  0.7537  0.4257
14066TIP3   OH263612   2.644   0.962   2.067  0.0580 -0.3988  0.2410
14066TIP3    H163613   2.640   1.040   2.012 -2.1663 -0.8668 -0.3266
14066TIP3    H263614   2.582   0.979   2.138  1.6826 -0.4899  1.7770
14067TIP3   OH263615   1.285   1.284   5.530 -0.4846  0.0789 -0.9554
14067TIP3    H163616   1.294   1.377   5.552  1.1625 -0.5153  1.2907
14067TIP3    H263617   1.351   1.269   5.463  1.5987 -0.0537  1.0023
14068TIP3   OH263618   2.695   1.724   4.950 -0.0154  0.1644  0.5384
14068TIP3    H163619   2.743   1.788   4.898  1.4790 -1.4235 -0.1202
14068TIP3    H263620   2.603   1.740   4.927  0.2617  2.2624  0.6709
14069TIP3   OH263621   0.761   0.801  15.426  0.0894  0.5575 -0.0410
14069TIP3    H163622   0.676   0.771  15.394 -0.4932  1.1366  0.9122
14069TIP3    H263623   0.753   0.897  15.428  0.4147  0.5716  0.9644
14070TIP3   OH263624   4.917   3.962   2.111  0.9287  0.4141 -0.1725
14070TIP3    H163625   4.914   3.906   2.188 -0.5428  1.3805  0.5201
14070TIP3    H263626   4.849   4.028   2.127 -0.3709 -0.1444 -2.9027
14071TIP3   OH263627   2.604   3.120  12.500  0.0623 -0.2239 -0.2267
14071TIP3    H163628   2.612   3.150  12.409  0.6869 -1.0466 -0.4443
14071TIP3    H263629   2.611   3.025  12.495  0.6429 -0.2402  0.7475
14072TIP3   OH263630   1.837   1.420   1.193  0.2622 -0.2378 -0.3091
14072TIP3    H163631   1.840   1.334   1.152 -0.1476 -0.8239  0.8392
14072TIP3    H263632   1.770   1.412   1.261 -1.4381  1.6611 -1.6451
14073TIP3   OH263633   0.414   1.222  13.045  0.2088  0.5275  0.1632
14073TIP3    H163634   0.495   1.173  13.034  0.5193  0.8215  1.0157
14073TIP3    H263635   0.410   1.241  13.139 -1.4174 -0.4525  0.3271
14074TIP3   OH263636   3.355   5.302  16.271  0.1891  0.0619  0.2247
14074TIP3    H163637   3.406   5.368  16.225 -0.8574 -0.6761 -2.1754
14074TIP3    H263638   3.413   5.226  16.276  0.4875  0.3136  0.5988
14075TIP3   OH263639   5.997   3.955   0.444 -0.7405  0.0734  0.3396
14075TIP3    H163640   5.984   4.049   0.455 -1.5322 -0.1087  1.0188
14075TIP3    H263641   6.056   3.948   0.369 -0.6374  1.1098  0.3107
14076TIP3   OH263642   2.961   2.429   1.292  0.7675  0.0170  0.9181
14076TIP3    H163643   2.915   2.462   1.369 -1.5774  0.8421 -0.7037
14076TIP3    H263644   2.993   2.507   1.247  0.4529 -0.2964  0.1277
14077TIP3   OH263645   6.614   3.667  12.055  0.3223  0.3254  0.2869
14077TIP3    H163646   6.537   3.684  12.109 -0.4476 -1.4262 -0.2015
14077TIP3    H263647   6.579   3.649  11.968  1.4688  1.8143 -0.5410
14078TIP3   OH263648   6.747   1.893   1.466 -0.6181  0.0878 -1.0538
14078TIP3    H163649   6.819   1.916   1.526 -0.9404 -1.2034 -0.1190
14078TIP3    H263650   6.788   1.890   1.380  0.1866  0.5363 -0.7052
14079TIP3   OH263651   2.055   1.218   0.164  0.0723 -0.1772  0.0262
14079TIP3    H163652   2.045   1.124   0.178 -1.1926 -0.1207 -0.3677
14079TIP3    H263653   2.054   1.228   0.069  0.6141  0.2044  0.0548
14080TIP3   OH263654   1.506   3.557  16.492 -0.5214  0.2500 -0.0017
14080TIP3    H163655   1.529   3.543  16.584 -1.5772 -0.7897  0.1375
14080TIP3    H263656   1.562   3.629  16.464 -0.6949  1.0827  1.6545
14081TIP3   OH263657   6.265   5.316  15.910  0.3384 -0.4843  0.0823
14081TIP3    H163658   6.280   5.256  15.837 -0.5510 -1.8389  0.9538
14081TIP3    H263659   6.221   5.262  15.976 -0.4247  1.1190  0.9418
14082TIP3   OH263660   5.933   6.059  11.927 -0.2850 -0.5009  0.0359
14082TIP3    H163661   5.959   5.968  11.940 -1.6892 -0.8509  0.5794
14082TIP3    H263662   5.945   6.075  11.833 -0.2637 -1.3203 -0.1049
14083TIP3   OH263663   5.436   2.933  15.614  0.1997  0.1483  0.1098
14083TIP3    H163664   5.355   2.908  15.569 -0.2700  1.6253  0.0789
14083TIP3    H263665   5.418   2.917  15.707  0.7194 -1.7108 -0.0869
14084TIP3   OH263666   6.347   0.810  16.132  0.6085 -0.2559 -0.0814
14084TIP3    H163667   6.299   0.742  16.085 -0.3575  0.9018 -0.8275
14084TIP3    H263668   6.438   0.781  16.131 -0.0238 -2.6067  1.5158
14085TIP3   OH263669   1.629   1.018  16.945 -0.3825  0.0108  0.1365
14085TIP3    H163670   1.597   0.930  16.969  2.0606 -0.4658  2.0446
14085TIP3    H263671   1.719   1.021  16.978  0.5461  2.3291 -2.2349
14086TIP3   OH263672   3.256   0.626  16.479  0.1020 -0.3851 -0.0072
14086TIP3    H163673   3.259   0.719  16.501  0.2421 -0.4448  0.2240
14086TIP3    H263674   3.344   0.593  16.499 -0.1607 -0.7240  0.6069
14087TIP3   OH263675   3.867   2.751  12.362 -0.1842 -0.7423  0.4645
14087TIP3    H163676   3.882   2.770  12.269  0.6859 -0.3844  0.6728
14087TIP3    H263677   3.819   2.668  12.362  0.6752 -1.2565 -0.2817
14088TIP3   OH263678   0.268   2.453  12.014  0.2542  0.7387 -0.5360
14088TIP3    H163679   0.220   2.378  12.048  1.9128 -0.7071 -1.1938
14088TIP3    H263680   0.345   2.460  12.071  0.1050  1.9604 -0.4644
14089TIP3   OH263681   0.891   1.838   0.893 -0.4257  0.1239 -0.2449
14089TIP3    H163682   0.847   1.904   0.946 -0.6763  0.6371 -1.0770
14089TIP3    H263683   0.967   1.883   0.856 -0.2415 -0.2347 -0.3153
14090TIP3   OH263684   0.811   5.797   4.046 -0.0666 -0.2291  0.4658
14090TIP3    H163685   0.763   5.880   4.041  0.7715  0.4078  2.2105
14090TIP3    H263686   0.898   5.819   4.015 -0.2099 -0.8004 -0.3586
14091TIP3   OH263687   5.029   5.437  12.810 -0.1951  0.1882  0.5604
14091TIP3    H163688   5.087   5.511  12.827  0.5481  0.1863 -1.6769
14091TIP3    H263689   5.012   5.400  12.897  1.4069  1.4863  1.4935
14092TIP3   OH263690   4.648   0.987   1.611  0.2158  0.7813 -0.0828
14092TIP3    H163691   4.664   0.992   1.517 -2.6982  0.5717 -0.6981
14092TIP3    H263692   4.692   1.063   1.648  4.4026 -0.8927 -0.9844
14093TIP3   OH263693   2.018   0.242   0.058  0.4891  0.0199 -0.4270
14093TIP3    H163694   2.003   0.176   0.125  1.8191  0.5691  0.4533
14093TIP3    H263695   2.094   0.210   0.010  0.1181  0.0975 -1.0810
14094TIP3   OH263696   6.480   2.241  12.346  0.1431 -0.1467 -0.7573
14094TIP3    H163697   6.534   2.194  12.282 -1.6979 -1.5422 -1.3603
14094TIP3    H263698   6.519   2.216  12.431 -0.0716 -1.8864 -1.1269
14095TIP3   OH263699   4.556   1.444  15.185 -0.0996 -0.0117 -0.0125
14095TIP3    H163700   4.554   1.382  15.113 -2.0343 -1.7995  1.4709
14095TIP3    H263701   4.648   1.468  15.194  0.1277  1.1376 -3.6772
14096TIP3   OH263702   6.762   3.206  17.025 -0.6924 -0.2407 -0.4193
14096TIP3    H163703   6.699   3.216  17.096 -0.8440 -3.2203  0.0287
14096TIP3    H263704   6.842   3.249  17.056 -1.1935 -0.2446  0.9364
14097TIP3   OH263705   4.248   1.330  12.271 -0.8203 -0.3344  0.3255
14097TIP3    H163706   4.317   1.287  12.322 -0.2337 -1.6689 -1.4846
14097TIP3    H263707   4.170   1.323  12.325  0.1147 -0.1816  1.7469
14098TIP3   OH263708   1.254   1.220   5.157 -0.5925 -0.1835  0.3648
14098TIP3    H163709   1.220   1.155   5.218 -0.2983 -0.0896  0.6306
14098TIP3    H263710   1.349   1.219   5.170 -0.7241  2.1660  2.3129
14099TIP3   OH263711   6.035   4.789  16.061 -0.1694 -0.2808 -0.1305
14099TIP3    H163712   6.023   4.733  15.984  1.3870 -0.8496  0.0092
14099TIP3    H263713   6.105   4.746  16.111 -0.8769  0.2935  1.4036
14100TIP3   OH263714   2.930   3.619   4.559  0.2288  0.9344  0.1931
14100TIP3    H163715   2.937   3.659   4.472 -0.6018  2.4283  0.7653
14100TIP3    H263716   2.856   3.559   4.552  3.0069 -2.6805 -1.3943
14101TIP3   OH263717   3.561   3.742  15.983 -1.2704 -0.4011  0.3048
14101TIP3    H163718   3.521   3.828  15.979 -0.4538 -0.0573 -1.2746
14101TIP3    H263719   3.526   3.696  15.906 -1.6316 -1.4608  1.0801
14102TIP3   OH263720   5.962   1.726   1.663 -0.2014  0.0957 -0.4539
14102TIP3    H163721   5.971   1.632   1.678  0.3344  0.3208  0.6911
14102TIP3    H263722   5.870   1.745   1.681 -0.4766 -0.3106 -1.3607
14103TIP3   OH263723   0.889   6.524   1.840 -0.1887  0.3917 -0.6064
14103TIP3    H163724   0.900   6.555   1.930 -1.0117  0.3025 -0.4733
14103TIP3    H263725   0.813   6.466   1.843  0.0125  0.0797 -1.2848
14104TIP3   OH263726   3.698   4.686  12.838  0.2453  0.6149 -0.1091
14104TIP3    H163727   3.790   4.661  12.827  0.5752  0.6399  2.0857
14104TIP3    H263728   3.695   4.778  12.812  0.5958  0.3495 -1.1606
14105TIP3   OH263729   2.731   2.563   4.649 -0.4926 -0.1806 -0.0483
14105TIP3    H163730   2.797   2.621   4.687 -0.4622 -1.3257  1.8005
14105TIP3    H263731   2.664   2.557   4.717 -2.6354  1.0449 -1.9197
14106TIP3   OH263732   5.309   1.573  12.782  0.6540 -0.1281  0.3195
14106TIP3    H163733   5.325   1.616  12.698 -3.7739  0.2236 -0.5812
14106TIP3    H263734   5.323   1.642  12.847 -1.2913  1.3153 -0.6890
14107TIP3   OH263735   3.182   2.679   5.669  0.1305  0.7385  0.3315
14107TIP3    H163736   3.156   2.752   5.726  0.2073  0.3472  0.8726
14107TIP3    H263737   3.268   2.653   5.702  0.9337  1.5670 -0.9893
14108TIP3   OH263738   6.269   0.700  15.291  0.0527  0.0140 -0.2627
14108TIP3    H163739   6.288   0.654  15.209 -1.5871 -0.8280 -0.2163
14108TIP3    H263740   6.332   0.665  15.353  1.6061  0.9756 -1.2283
14109TIP3   OH263741   5.942   6.688   2.798  1.0071  0.0559  0.5915
14109TIP3    H163742   5.959   6.736   2.879  0.6545  1.1810  0.0182
14109TIP3    H263743   5.849   6.701   2.782  1.0706 -0.1906  0.0267
14110TIP3   OH263744   0.352   2.497  13.152  0.1252 -0.1781 -0.0861
14110TIP3    H163745   0.364   2.520  13.060 -0.1976  0.3871  0.0131
14110TIP3    H263746   0.364   2.402  13.154 -0.2569 -0.2490 -0.7771
14111TIP3   OH263747   1.110   0.961  11.914  0.6913  0.1550 -0.2416
14111TIP3    H163748   1.065   1.014  11.980 -0.7325  2.5280 -2.9002
14111TIP3    H263749   1.197   0.999  11.908  1.2031 -0.7591  0.9179
14112TIP3   OH263750   3.058   6.346  12.466 -0.0731 -0.2256  0.0645
14112TIP3    H163751   2.972   6.378  12.438  0.2951 -0.3541 -1.2684
14112TIP3    H263752   3.044   6.254  12.486  0.0677 -0.7161 -1.8453
14113TIP3   OH263753   2.881   1.607  14.204 -0.4218 -0.0326  0.3388
14113TIP3    H163754   2.877   1.699  14.180 -0.9107 -0.1274  0.0285
14113TIP3    H263755   2.830   1.600  14.284  0.6799  0.1767  1.0710
14114TIP3   OH263756   2.455   2.606   0.059 -0.3779  0.1459 -0.7839
14114TIP3    H163757   2.512   2.683   0.065 -0.4307  0.0709  1.3334
14114TIP3    H263758   2.483   2.563  -0.022  1.8702  0.6789 -0.3709
14115TIP3   OH263759   4.903   0.825  14.215 -0.7480  0.3480 -0.4668
14115TIP3    H163760   4.959   0.885  14.265  1.0931 -1.7549  0.1544
14115TIP3    H263761   4.963   0.758  14.182 -2.5332 -0.5025 -2.1943
14116TIP3   OH263762   5.970   0.919  12.944 -0.3243  0.3370  0.5802
14116TIP3    H163763   5.963   1.005  12.985 -0.2028  0.1049  1.0888
14116TIP3    H263764   6.004   0.937  12.857 -1.7552  0.9576  0.1047
14117TIP3   OH263765   3.811   1.360   3.597  0.0476 -0.3257 -0.1828
14117TIP3    H163766   3.756   1.403   3.531  0.9855  1.4792  0.1414
14117TIP3    H263767   3.791   1.405   3.678  1.2014 -0.3729  0.1512
14118TIP3   OH263768   4.984   1.474  12.572  0.0668  0.2460 -0.2345
14118TIP3    H163769   5.046   1.546  12.555  0.1801  0.0865 -0.5019
14118TIP3    H263770   4.933   1.468  12.492 -0.6869  0.7585  0.1961
14119TIP3   OH263771   3.935   3.432   4.682  0.2062 -0.5111  0.0277
14119TIP3    H163772   3.929   3.526   4.662  1.1349 -0.3823  0.3207
14119TIP3    H263773   4.020   3.406   4.648  0.1578 -1.1510  0.3898
14120TIP3   OH263774   3.559   2.521  15.277  0.2384  0.0372  0.0574
14120TIP3    H163775   3.539   2.613  15.259 -2.4954 -0.2534  1.1931
14120TIP3    H263776   3.600   2.522  15.364 -0.4729  0.1321  0.3957
14121TIP3   OH263777   4.063   3.982   3.629  0.0726  0.0547  0.3493
14121TIP3    H163778   4.025   4.052   3.682 -0.8768  1.7454 -2.3227
14121TIP3    H263779   3.987   3.939   3.589  0.6865 -2.0218  1.2808
14122TIP3   OH263780   5.241   6.581   3.596  0.1670 -0.1397  0.6459
14122TIP3    H163781   5.248   6.583   3.691  0.5509  0.5418  0.6136
14122TIP3    H263782   5.187   6.657   3.574  0.2212 -0.1949  0.3097
14123TIP3   OH263783   2.259   3.822  11.023  0.0728  0.2826  0.6566
14123TIP3    H163784   2.239   3.879  11.098 -0.6406  0.6284  0.2150
14123TIP3    H263785   2.219   3.738  11.046 -1.4544  0.8047  0.0400
14124TIP3   OH263786   1.799   4.652  16.156 -0.5018 -0.1789  0.2528
14124TIP3    H163787   1.866   4.649  16.224  0.5275  0.3208 -0.6929
14124TIP3    H263788   1.849   4.658  16.074 -1.6887 -1.0719 -0.5764
14125TIP3   OH263789   0.438   1.314  17.112  0.4940 -0.5286  0.2663
14125TIP3    H163790   0.395   1.394  17.141  0.9951 -0.0413 -0.3109
14125TIP3    H263791   0.441   1.259  17.190  1.9616  0.8153  1.2172
14126TIP3   OH263792   0.022   1.737   0.977  0.5442 -0.3908  0.1994
14126TIP3    H163793   0.109   1.702   0.958  1.0467 -0.6933  2.6470
14126TIP3    H263794  -0.035   1.660   0.981  0.5668 -0.3943  0.4719
14127TIP3   OH263795   2.353   5.281  12.388 -0.0814 -0.6015  0.4450
14127TIP3    H163796   2.262   5.305  12.404  0.5961  2.5905  0.2450
14127TIP3    H263797   2.365   5.292  12.294  0.7065 -0.1146  0.5948
14128TIP3   OH263798   4.964   6.394  12.037 -0.3608 -0.0263 -0.1330
14128TIP3    H163799   5.022   6.420  11.965  0.1467 -0.9338 -0.0626
14128TIP3    H263800   4.932   6.477  12.072  2.0315  0.6114  0.7474
14129TIP3   OH263801   0.548   3.463   5.311  0.0289 -0.2943 -0.0174
14129TIP3    H163802   0.616   3.443   5.247  1.6667  0.0088  1.5450
14129TIP3    H263803   0.514   3.378   5.338  0.4082 -0.4961 -0.1734
14130TIP3   OH263804   3.346   6.443  15.866  0.2012 -0.3775  0.1012
14130TIP3    H163805   3.435   6.408  15.853 -0.2971 -1.7268  0.2065
14130TIP3    H263806   3.337   6.510  15.799  1.5053  0.1786  0.4438
14131TIP3   OH263807   4.999   3.501   2.972 -0.3920  0.3097  0.0753
14131TIP3    H163808   5.064   3.519   3.039  0.5338  0.2829 -0.7906
14131TIP3    H263809   5.034   3.541   2.893 -1.4813  0.3812 -0.3950
14132TIP3   OH263810   2.448   5.970  12.277 -0.3061 -0.4400 -0.4447
14132TIP3    H163811   2.500   5.902  12.318 -0.1843 -1.4198 -2.1186
14132TIP3    H263812   2.451   6.044  12.338  0.6775 -1.4626  0.7809
14133TIP3   OH263813   4.728   0.873  13.728  0.2388 -0.1427  0.3747
14133TIP3    H163814   4.724   0.920  13.812 -0.1484  0.5760 -0.0300
14133TIP3    H263815   4.786   0.799  13.745 -2.3905 -1.9700  2.2196
14134TIP3   OH263816   5.881   1.036   3.347  0.6846 -0.0627  0.4444
14134TIP3    H163817   5.878   0.970   3.417 -0.6048 -0.4393  0.0557
14134TIP3    H263818   5.799   1.083   3.355  0.4610 -0.1963 -0.9056
14135TIP3   OH263819   3.947   5.553  13.418 -0.6127 -0.1146  0.1386
14135TIP3    H163820   3.975   5.643  13.433 -0.7603  0.0654 -0.6476
14135TIP3    H263821   4.027   5.501  13.428 -0.5892  0.0611  0.9167
14136TIP3   OH263822   2.132   0.040   3.111  0.2458  0.3009  0.1121
14136TIP3    H163823   2.208   0.098   3.106  0.7614 -0.3890 -0.2773
14136TIP3    H263824   2.162  -0.033   3.165  0.5387 -0.9454 -1.6502
14137TIP3   OH263825   3.953   6.151   1.771 -0.1909  0.0242  0.0803
14137TIP3    H163826   3.988   6.062   1.775  0.7362  0.3762  0.0290
14137TIP3    H263827   3.899   6.159   1.849 -0.5066 -0.6732 -0.0595
14138TIP3   OH263828   1.295   5.075  14.896  0.2579 -0.0218 -0.3330
14138TIP3    H163829   1.250   5.141  14.949 -0.8384 -0.0624 -1.1773
14138TIP3    H263830   1.239   4.998  14.902  1.0965 -0.6189 -0.0397
14139TIP3   OH263831   0.490   0.568  11.654  0.4009  0.2159 -0.1393
14139TIP3    H163832   0.518   0.525  11.735 -1.2319 -0.0665  0.2979
14139TIP3    H263833   0.484   0.660  11.676  0.6207  0.2314 -0.1389
14140TIP3   OH263834   1.160   3.025   0.739 -0.2740  0.1994 -0.2051
14140TIP3    H163835   1.231   3.002   0.679  2.0293  1.4224  1.8704
14140TIP3    H263836   1.162   2.957   0.806  0.5111  1.4661  1.0945
14141TIP3   OH263837   0.911   0.949  11.516  0.2084 -0.0724  0.6129
14141TIP3    H163838   0.843   0.886  11.541 -2.0310  1.5500 -0.9577
14141TIP3    H263839   0.880   1.032  11.552  2.9213  0.3181  2.3602
14142TIP3   OH263840   5.044   5.048   0.218  0.4514 -0.0042 -0.1447
14142TIP3    H163841   4.996   4.965   0.221 -1.2900  0.9824  2.2684
14142TIP3    H263842   5.126   5.026   0.174  0.1939 -3.0809  0.6558
14143TIP3   OH263843   6.784   4.971   5.135  0.4077 -0.3870  0.3455
14143TIP3    H163844   6.750   4.883   5.120  2.0369 -0.9666 -0.1704
14143TIP3    H263845   6.761   5.019   5.056  0.8258 -0.7921 -0.0291
14144TIP3   OH263846   2.709   2.805   1.709 -0.1999  0.5238 -0.7254
14144TIP3    H163847   2.709   2.886   1.760  0.6901  0.7030 -0.9899
14144TIP3    H263848   2.625   2.764   1.729  0.1584  0.5333  0.9729
14145TIP3   OH263849   2.748   0.916   4.088 -0.0815 -0.5795 -0.0762
14145TIP3    H163850   2.655   0.928   4.068 -0.1666  0.2072  0.7354
14145TIP3    H263851   2.771   0.835   4.043 -1.2851 -1.0639  0.1277
14146TIP3   OH263852   2.864   5.212  15.284 -0.4157 -0.2051 -0.1020
14146TIP3    H163853   2.785   5.163  15.305  0.5873 -1.7450  0.2922
14146TIP3    H263854   2.844   5.258  15.202 -2.8918  2.3094  1.6953
14147TIP3   OH263855   0.098   4.708   2.188 -0.1975  0.5871  0.3608
14147TIP3    H163856   0.003   4.721   2.191 -0.3462 -0.2833 -0.0832
14147TIP3    H263857   0.109   4.622   2.147  0.7881  0.6966  0.3652
14148TIP3   OH263858   3.483   2.764  15.189 -0.0769  0.8446 -0.2182
14148TIP3    H163859   3.517   2.790  15.103 -0.0743 -0.1360 -0.5321
14148TIP3    H263860   3.390   2.788  15.187  0.0318  1.2622 -0.3093
14149TIP3   OH263861   3.131   2.715   0.689  0.0349 -0.4734  0.1284
14149TIP3    H163862   3.094   2.721   0.601  0.8591 -1.4593 -0.3016
14149TIP3    H263863   3.096   2.792   0.735 -0.9672 -0.3350 -0.8350
14150TIP3   OH263864   4.291   5.474   3.640 -0.2137  0.4097  0.3930
14150TIP3    H163865   4.292   5.426   3.723  0.7759 -0.7367 -0.2612
14150TIP3    H263866   4.199   5.475   3.614 -0.4987  0.5257  1.3468
14151TIP3   OH263867   0.485   0.732   0.783 -0.0454  1.1528 -0.5152
14151TIP3    H163868   0.499   0.684   0.865  0.0507  0.4261 -0.9421
14151TIP3    H263869   0.391   0.745   0.778 -0.2569 -0.3913 -1.1370
14152TIP3   OH263870   0.805   6.241   4.815 -0.1609 -0.2263  0.0831
14152TIP3    H163871   0.819   6.165   4.872 -0.5985 -0.2792  0.1215
14152TIP3    H263872   0.867   6.307   4.848  2.2355 -1.4355 -1.6563
14153TIP3   OH263873   5.764   2.609  14.012 -1.5863  0.0658 -0.0101
14153TIP3    H163874   5.833   2.571  14.066 -1.7477 -0.8774 -0.4485
14153TIP3    H263875   5.727   2.679  14.066  0.5909  1.5313 -0.2949
14154TIP3   OH263876   5.762   6.626  15.471  0.4170  0.1345 -0.1545
14154TIP3    H163877   5.781   6.675  15.551  1.0320  1.2141 -0.9292
14154TIP3    H263878   5.757   6.535  15.499  2.1109  0.3189  0.8860
14155TIP3   OH263879   5.979   3.431  13.208  0.1884 -0.2643 -0.9053
14155TIP3    H163880   5.891   3.393  13.213 -0.0805  0.4744  0.2673
14155TIP3    H263881   6.036   3.356  13.188 -0.4313 -1.1643  0.5422
14156TIP3   OH263882   1.955   6.464   3.708 -0.3297 -0.0264 -0.5531
14156TIP3    H163883   1.907   6.521   3.648  1.5303  0.6350 -1.5094
14156TIP3    H263884   1.957   6.379   3.664 -1.8393 -0.4735  0.1854
14157TIP3   OH263885   2.290   3.948  13.988  0.3818 -0.0148  0.4886
14157TIP3    H163886   2.348   3.975  13.916  1.3337  0.0945  1.2817
14157TIP3    H263887   2.231   4.023  14.001  0.0994 -0.0947 -0.2663
14158TIP3   OH263888   2.049   3.100  12.508 -0.2273  0.0445 -0.7967
14158TIP3    H163889   2.001   3.183  12.508 -0.2712  0.0882  1.4708
14158TIP3    H263890   2.135   3.122  12.473 -0.3858  0.9611 -0.6461
14159TIP3   OH263891   1.992   4.303  10.999  0.4444  0.1245 -0.2027
14159TIP3    H163892   2.053   4.324  10.929  0.1236 -2.1407 -1.2540
14159TIP3    H263893   1.919   4.259  10.956  0.0433 -0.9712  1.4647
14160TIP3   OH263894   1.299   4.634  15.175 -0.2473 -0.2269 -0.7471
14160TIP3    H163895   1.347   4.551  15.180  1.3484  0.7164  3.0113
14160TIP3    H263896   1.364   4.697  15.143 -1.3006 -0.1952 -3.0591
14161TIP3   OH263897   1.417   1.633  15.936 -0.6894 -0.0759 -0.3532
14161TIP3    H163898   1.491   1.673  15.890  1.4318  0.1012  2.9206
14161TIP3    H263899   1.441   1.540  15.942 -0.4204  0.0673  1.1418
14162TIP3   OH263900   0.376   3.573  15.860  0.3549  0.5266  0.3476
14162TIP3    H163901   0.390   3.610  15.773 -0.5602 -0.1885 -0.1274
14162TIP3    H263902   0.325   3.494  15.844 -0.9412  1.0599  1.6287
14163TIP3   OH263903   5.174   2.945  14.671 -0.0274  0.5133 -0.8519
14163TIP3    H163904   5.158   2.866  14.723  2.8409 -0.7162 -1.6533
14163TIP3    H263905   5.191   3.013  14.736 -3.7438  0.9596 -0.0975
14164TIP3   OH263906   5.589   5.913   4.630  0.1992  0.1472  0.1245
14164TIP3    H163907   5.677   5.898   4.665 -0.3496 -1.0701  1.1085
14164TIP3    H263908   5.586   6.006   4.610  1.9936  0.0462 -0.7809
14165TIP3   OH263909   6.633   2.567   5.259 -0.1497  0.2290 -0.0966
14165TIP3    H163910   6.573   2.626   5.304 -0.2453  1.1357 -1.3421
14165TIP3    H263911   6.606   2.573   5.167 -0.9438 -2.6742 -0.1415
14166TIP3   OH263912   4.120   5.153   2.615 -0.3174 -0.5109 -0.2132
14166TIP3    H163913   4.119   5.082   2.550  1.3884 -0.7220 -0.0705
14166TIP3    H263914   4.180   5.122   2.683 -1.3810  0.0866  1.0399
14167TIP3   OH263915   3.139   1.447   0.883  0.0325  0.0095  0.1544
14167TIP3    H163916   3.127   1.445   0.788 -1.4356  1.3597  0.2457
14167TIP3    H263917   3.117   1.359   0.912  0.2534 -0.3530 -0.7444
14168TIP3   OH263918   2.884   0.618  14.328  0.0477  0.0445  0.3090
14168TIP3    H163919   2.946   0.553  14.360  1.0515  0.5605 -0.5239
14168TIP3    H263920   2.816   0.567  14.284 -0.2168 -0.5398  1.3681
14169TIP3   OH263921   2.833   4.231  14.161 -0.6626 -0.5023 -0.1041
14169TIP3    H163922   2.888   4.257  14.235 -1.5602  0.1105  0.3596
14169TIP3    H263923   2.853   4.294  14.093 -0.0545 -0.8877 -0.2900
14170TIP3   OH263924   5.566   4.688  15.510 -0.2372 -0.1326  0.2492
14170TIP3    H163925   5.596   4.627  15.577  0.2625  0.5912  0.7091
14170TIP3    H263926   5.597   4.651  15.428  0.4177 -0.2993  0.5617
14171TIP3   OH263927   6.719   5.639   0.319 -0.1029  0.6364  0.3440
14171TIP3    H163928   6.701   5.671   0.231 -1.3679  1.2984  0.8075
14171TIP3    H263929   6.782   5.569   0.307  1.0006  1.7864 -0.9329
14172TIP3   OH263930   5.707   5.849  11.175 -0.1038 -0.1480  0.0238
14172TIP3    H163931   5.677   5.760  11.157 -1.7444  0.3082  0.2765
14172TIP3    H263932   5.725   5.887  11.089 -1.3684 -0.1061 -0.2383
14173TIP3   OH263933   0.851   4.032   4.071 -0.4553 -0.2175  0.0445
14173TIP3    H163934   0.783   4.048   4.136  0.0752 -1.2686  0.8881
14173TIP3    H263935   0.933   4.042   4.119  0.0599  2.0151 -1.1789
14174TIP3   OH263936   4.710   5.863  11.697 -0.1685 -0.4975 -0.7286
14174TIP3    H163937   4.687   5.948  11.659  0.0121  0.1782  0.6100
14174TIP3    H263938   4.788   5.881  11.750 -1.3611 -0.9902  1.3066
14175TIP3   OH263939   4.582   4.337  15.032  0.0858 -0.0040 -0.2189
14175TIP3    H163940   4.540   4.255  15.005 -0.9839  0.7644 -0.9661
14175TIP3    H263941   4.575   4.337  15.128  2.4501 -1.9861  0.0475
14176TIP3   OH263942   1.411   3.735   1.209 -0.0768  0.9890 -0.0223
14176TIP3    H163943   1.466   3.750   1.133  0.2425  0.3658  0.0790
14176TIP3    H263944   1.361   3.816   1.220  0.4331  1.3566 -0.4289
14177TIP3   OH263945   4.098   0.467   0.396  1.0478  0.3551  0.1225
14177TIP3    H163946   4.165   0.526   0.430  0.5740  1.3489 -0.6126
14177TIP3    H263947   4.027   0.524   0.368  0.5165 -0.5738 -0.5054
14178TIP3   OH263948   2.792   2.559   2.682 -0.6439  0.2135 -0.4545
14178TIP3    H163949   2.851   2.585   2.612  0.0277 -0.0971 -0.0076
14178TIP3    H263950   2.846   2.507   2.742 -1.5951 -0.8912 -0.5302
14179TIP3   OH263951   2.847   0.610  16.672 -0.0580  0.1723 -0.2291
14179TIP3    H163952   2.794   0.532  16.657 -1.2973  1.2228 -1.6233
14179TIP3    H263953   2.926   0.578  16.715  0.1093 -2.0513 -2.0138
14180TIP3   OH263954   0.102   6.104  14.676 -0.7307 -0.2602 -0.3385
14180TIP3    H163955   0.072   6.025  14.630 -0.9951 -0.3266 -0.0508
14180TIP3    H263956   0.081   6.175  14.616 -0.6576 -0.3898 -0.5199
14181TIP3   OH263957   6.491   0.701   5.485 -0.2721 -0.5064  0.8559
14181TIP3    H163958   6.463   0.632   5.546 -0.9081 -1.7017 -0.7066
14181TIP3    H263959   6.576   0.730   5.519  0.2090 -2.3369  1.3492
14182TIP3   OH263960   0.340   5.117  16.262 -0.3542  0.3588 -0.0643
14182TIP3    H163961   0.390   5.059  16.204 -0.2732  0.8528 -0.4884
14182TIP3    H263962   0.376   5.099  16.349 -1.9105 -1.9690  0.2024
14183TIP3   OH263963   2.224   0.691  14.151  0.5944  0.4547 -0.6176
14183TIP3    H163964   2.229   0.730  14.064 -0.3193 -1.7003 -1.7162
14183TIP3    H263965   2.275   0.611  14.145  0.1954  0.0651  0.7259
14184TIP3   OH263966   4.269   4.221  16.309  0.4546 -0.2726  0.0351
14184TIP3    H163967   4.254   4.273  16.387  0.8255 -0.5350  0.2831
14184TIP3    H263968   4.356   4.184  16.321  0.6434 -0.0637 -0.6460
14185TIP3   OH263969   3.553   5.140  12.604 -0.4761  0.0734 -0.0520
14185TIP3    H163970   3.505   5.139  12.522 -0.6449 -1.7341  0.0225
14185TIP3    H263971   3.593   5.227  12.608  0.1307 -0.0349 -2.3873
14186TIP3   OH263972   1.216   1.573   5.906  0.1664 -0.6383 -0.7436
14186TIP3    H163973   1.129   1.553   5.941 -0.0644  1.5971  0.1439
14186TIP3    H263974   1.199   1.629   5.830  0.8179 -0.5015 -0.7948
14187TIP3   OH263975   5.131   2.926   0.858  0.1139 -0.2679  0.0950
14187TIP3    H163976   5.158   2.863   0.791 -0.7516 -1.1591  0.5608
14187TIP3    H263977   5.172   3.008   0.831  0.6890 -0.8598 -0.9156
14188TIP3   OH263978   4.832   0.014  16.985 -0.3464  0.3579  0.1510
14188TIP3    H163979   4.890  -0.001  16.910  0.8026 -0.2342  1.1142
14188TIP3    H263980   4.892   0.039  17.056 -1.2219 -0.6512  1.2864
14189TIP3   OH263981   2.137   2.576   1.994  0.6656 -0.2823  0.0811
14189TIP3    H163982   2.094   2.578   1.908 -2.9636  0.0976  1.7189
14189TIP3    H263983   2.115   2.661   2.034  1.3797 -0.8552  1.7905
14190TIP3   OH263984   2.572   5.199  15.119 -0.8691  0.2190 -0.2104
14190TIP3    H163985   2.571   5.294  15.106 -0.3461  0.5998  2.1489
14190TIP3    H263986   2.485   5.179  15.153 -0.3598  0.1795  1.1163
14191TIP3   OH263987   5.737   1.533   2.186 -0.0464 -0.3804  0.6907
14191TIP3    H163988   5.670   1.597   2.210 -0.0025 -1.0414  2.7607
14191TIP3    H263989   5.817   1.564   2.230  0.8364 -0.0368 -1.0853
14192TIP3   OH263990   3.799   2.575   4.644  0.0974 -0.2244 -0.6598
14192TIP3    H163991   3.777   2.660   4.605  0.8389  0.0550 -0.4880
14192TIP3    H263992   3.839   2.597   4.728  0.0199 -0.7595 -0.4790
14193TIP3   OH263993   2.515   3.149  11.296  0.1022 -0.0713 -0.4387
14193TIP3    H163994   2.580   3.196  11.243  0.3518  1.2137  0.9375
14193TIP3    H263995   2.438   3.205  11.295 -0.1464 -0.4031 -0.0689
14194TIP3   OH263996   2.940   1.973  16.435 -0.0723  0.2093 -0.2396
14194TIP3    H163997   3.027   2.007  16.416 -0.3707  0.5886 -0.9656
14194TIP3    H263998   2.930   1.898  16.376 -0.7108  0.9261 -1.0557
14195TIP3   OH263999   5.658   6.590   0.440  0.1212  0.3815  0.0643
14195TIP3    H164000   5.714   6.556   0.510 -0.4529  0.5468  0.6127
14195TIP3    H264001   5.678   6.535   0.364  0.1155 -0.3631  0.5962
14196TIP3   OH264002   5.391   1.116  12.336  0.3568 -0.3823  0.0901
14196TIP3    H164003   5.397   1.149  12.426  2.6432 -0.1961 -0.0782
14196TIP3    H264004   5.373   1.022  12.347  0.6587 -0.3689  0.7330
14197TIP3   OH264005   3.775   4.752   4.274  0.0445  0.4280  0.0820
14197TIP3    H164006   3.774   4.847   4.269  0.2057  0.4876  1.0395
14197TIP3    H264007   3.841   4.731   4.339  0.1000 -0.3522 -0.2049
14198TIP3   OH264008   1.172   2.559   4.885 -0.4925  0.2750 -0.5491
14198TIP3    H164009   1.262   2.583   4.907 -0.7495 -0.1048  1.0074
14198TIP3    H264010   1.121   2.582   4.962 -1.4590 -1.0981 -0.7360
14199TIP3   OH264011   6.466   5.609   0.677 -0.2621  0.5628 -0.5603
14199TIP3    H164012   6.494   5.636   0.764  1.1058  0.4681 -0.9536
14199TIP3    H264013   6.519   5.662   0.617  0.1929 -0.7379 -1.3367
14200TIP3   OH264014   2.675   3.000  17.133  0.5182  0.4083  0.2204
14200TIP3    H164015   2.768   3.004  17.113  0.4794  1.5091  0.2266
14200TIP3    H264016   2.669   3.025  17.225  0.1314  1.2374 -0.0266
14201TIP3   OH264017   0.568   4.012  11.351 -0.2588  0.0163  0.0807
14201TIP3    H164018   0.485   4.057  11.337  0.1950  0.9045  0.2114
14201TIP3    H264019   0.631   4.081  11.369  1.0878 -0.3760 -2.5806
14202TIP3   OH264020   4.197   0.299  16.821  0.0684  0.1292 -0.0879
14202TIP3    H164021   4.163   0.388  16.831  1.1354  0.5632 -0.1061
14202TIP3    H264022   4.233   0.297  16.732 -0.2127 -0.4218 -0.1954
14203TIP3   OH264023   0.832   1.754   3.573 -0.1146  0.3825  0.2663
14203TIP3    H164024   0.918   1.781   3.603  0.0182 -0.3378  0.5584
14203TIP3    H264025   0.817   1.669   3.614  0.4403 -1.0885 -2.3109
14204TIP3   OH264026   2.568   0.368  16.649 -0.4328 -0.6023  0.0420
14204TIP3    H164027   2.563   0.405  16.561  2.0625 -0.8193 -0.2451
14204TIP3    H264028   2.623   0.290  16.639 -0.9350 -1.1958  1.6356
14205TIP3   OH264029   6.722   0.089  16.274 -0.5855  0.6012 -0.2505
14205TIP3    H164030   6.702   0.058  16.186 -2.3807  0.1126  0.2765
14205TIP3    H264031   6.636   0.101  16.315  0.2046 -0.7486  1.9538
14206TIP3   OH264032   3.162   5.541   5.775  0.1035  0.4722  0.3748
14206TIP3    H164033   3.131   5.523   5.686 -0.4208 -0.1469  0.6800
14206TIP3    H264034   3.084   5.568   5.822  0.2987  0.3612  0.7637
14207TIP3   OH264035   2.808   5.672   4.096  0.1928  0.9252  0.3586
14207TIP3    H164036   2.762   5.702   4.017  1.6933  1.6777 -0.2815
14207TIP3    H264037   2.840   5.753   4.136  0.2943  0.4669  1.2001
14208TIP3   OH264038   5.414   5.698  14.331  0.6617  0.4493 -0.0906
14208TIP3    H164039   5.380   5.722  14.245  0.4806  0.5322  0.0051
14208TIP3    H264040   5.467   5.620  14.314  0.9914  0.7254 -0.3482
14209TIP3   OH264041   1.483   5.372   3.377 -0.0545  0.0884  0.2258
14209TIP3    H164042   1.493   5.467   3.367 -0.6270  0.0774 -0.5918
14209TIP3    H264043   1.572   5.339   3.381  0.1548  0.6387  0.2854
14210TIP3   OH264044   5.877   2.262  16.860 -0.7594 -0.0380  0.0671
14210TIP3    H164045   5.858   2.255  16.953 -0.8100 -0.9965 -0.0014
14210TIP3    H264046   5.793   2.281  16.819 -0.8730 -0.3705  0.1457
14211TIP3   OH264047   0.838   2.089   0.939  0.0652 -0.3269  0.2883
14211TIP3    H164048   0.920   2.068   0.894 -0.7840 -0.0801 -1.4885
14211TIP3    H264049   0.840   2.184   0.949 -0.5738 -0.1445 -1.0401
14212TIP3   OH264050   3.050   4.985  15.662  0.9941  0.3772  0.3062
14212TIP3    H164051   2.981   5.046  15.635  0.1227 -0.9653 -0.5932
14212TIP3    H264052   3.026   4.902  15.622 -0.3770 -1.8486  5.0040
14213TIP3   OH264053   1.611   3.547   5.789 -0.4493 -0.0841 -0.1052
14213TIP3    H164054   1.656   3.628   5.769  0.8250 -1.3735 -2.9622
14213TIP3    H264055   1.522   3.559   5.755 -0.7299  0.5689  0.8048
14214TIP3   OH264056   3.215   2.990   3.738  0.8283 -0.1940  0.0283
14214TIP3    H164057   3.213   2.942   3.821  1.3600  1.5324  1.0924
14214TIP3    H264058   3.126   3.022   3.727  1.0135  0.5068  0.5207
14215TIP3   OH264059   5.051   2.688  13.071 -0.3872  0.3576  0.2638
14215TIP3    H164060   5.044   2.748  13.145 -0.2624  0.6558  0.0366
14215TIP3    H264061   5.012   2.735  12.997  0.7441  0.6390 -0.1890
14216TIP3   OH264062   3.930   4.855   5.503 -0.1239 -0.3416 -0.3882
14216TIP3    H164063   4.000   4.920   5.493 -0.8032  0.8718  1.8950
14216TIP3    H264064   3.931   4.805   5.422  4.3454 -1.3362 -0.0154
14217TIP3   OH264065   1.474   4.235  16.218  0.2750 -0.4145  0.1152
14217TIP3    H164066   1.487   4.140  16.210  0.7310 -0.3989  0.5634
14217TIP3    H264067   1.416   4.258  16.146 -0.4161 -1.1518  0.4181
14218TIP3   OH264068   3.416   5.706  12.788  0.8805  0.6857  0.3746
14218TIP3    H164069   3.482   5.741  12.848  0.8604  0.0632  0.7707
14218TIP3    H264070   3.363   5.782  12.763  0.4443  0.8424  1.7139
14219TIP3   OH264071   4.721   2.573  13.051  0.1008 -0.2889  0.6038
14219TIP3    H164072   4.771   2.578  12.969  1.1184 -1.9494  1.0870
14219TIP3    H264073   4.650   2.512  13.031  0.5919 -1.0179  1.0666
14220TIP3   OH264074   0.698   3.515   3.047  0.4537 -0.2467  0.0705
14220TIP3    H164075   0.688   3.421   3.031 -0.1372  0.0901 -1.7843
14220TIP3    H264076   0.657   3.557   2.971  0.6649  1.5226  0.8787
14221TIP3   OH264077   5.401   4.148   1.635  0.6552 -0.4728 -0.7674
14221TIP3    H164078   5.457   4.216   1.596  0.6214  0.7119  1.1480
14221TIP3    H264079   5.453   4.113   1.707 -0.8250  0.2786  0.7242
14222TIP3   OH264080   4.678   4.730  12.582 -0.2571 -0.0665  0.3493
14222TIP3    H164081   4.645   4.749  12.669 -0.3761  0.2599  0.2349
14222TIP3    H264082   4.617   4.665  12.547 -0.1589 -0.2634  0.5409
14223TIP3   OH264083   5.649   1.125   2.682  0.2690 -0.5123 -0.1943
14223TIP3    H164084   5.630   1.047   2.630  0.2187 -1.2330  0.8748
14223TIP3    H264085   5.575   1.133   2.741  0.4505  0.1411 -0.0442
14224TIP3   OH264086   1.050   5.854   3.975 -0.4408 -0.5000  0.0729
14224TIP3    H164087   1.038   5.874   3.882  1.1784 -0.3673 -0.1365
14224TIP3    H264088   1.089   5.933   4.011  1.3156 -1.4410  0.3072
14225TIP3   OH264089   6.306   3.491   2.824 -0.2420  0.5691 -0.5883
14225TIP3    H164090   6.282   3.398   2.822 -4.2826  1.3742  0.7678
14225TIP3    H264091   6.375   3.496   2.891 -1.7809 -1.2076  1.2697
14226TIP3   OH264092   2.176   0.405   5.375 -0.7559 -0.2145 -0.4316
14226TIP3    H164093   2.109   0.461   5.336 -0.4454 -0.4705 -1.3337
14226TIP3    H264094   2.203   0.453   5.454 -3.2436 -0.9381  0.9752
14227TIP3   OH264095   5.538   5.052   5.674 -0.9241  0.0306  0.2046
14227TIP3    H164096   5.488   5.081   5.598 -0.5624 -0.4537 -0.2332
14227TIP3    H264097   5.490   4.976   5.707 -0.2792 -0.7041 -0.4776
14228TIP3   OH264098   5.320   2.587  12.990  0.0797 -0.2218  0.4313
14228TIP3    H164099   5.313   2.644  12.913  2.5293  0.8835  0.9172
14228TIP3    H264100   5.230   2.574  13.019 -0.7091  1.7340 -0.9075
14229TIP3   OH264101   0.573   0.855  16.846 -0.6518 -0.4280 -0.4622
14229TIP3    H164102   0.529   0.858  16.931  2.5938 -1.5873  1.4655
14229TIP3    H264103   0.558   0.766  16.814 -1.1401 -0.2728 -0.6641
14230TIP3   OH264104   2.897   0.544  16.345 -0.4327 -0.2114  0.3372
14230TIP3    H164105   2.968   0.487  16.316 -0.6073 -1.8295  2.7845
14230TIP3    H264106   2.933   0.593  16.418 -1.2662  0.4023  0.3515
14231TIP3   OH264107   4.746   1.236  14.842  0.4038 -0.4501 -0.0688
14231TIP3    H164108   4.672   1.191  14.883  2.2687 -3.3708  0.3835
14231TIP3    H264109   4.751   1.321  14.887 -1.6265 -0.8550  1.0155
14232TIP3   OH264110   0.803   2.984   0.991  0.7651  0.5026 -0.2470
14232TIP3    H164111   0.776   2.971   1.082  2.6521 -0.3410  0.2218
14232TIP3    H264112   0.810   2.896   0.954 -1.2371  0.8555 -1.6525
14233TIP3   OH264113   3.175   5.930  13.727 -0.0611  0.4745 -0.8008
14233TIP3    H164114   3.204   6.018  13.749  1.2699 -0.4988  1.7272
14233TIP3    H264115   3.255   5.879  13.718 -0.7808 -1.1743  1.2488
14234TIP3   OH264116   3.976   2.415  17.176 -0.0708 -0.4817  0.3452
14234TIP3    H164117   3.887   2.420  17.211 -0.3372  1.8780 -0.5502
14234TIP3    H264118   4.028   2.471  17.234 -0.0100  1.3926 -1.4357
14235TIP3   OH264119   6.661   1.520  14.595 -0.6261 -0.1101 -0.2516
14235TIP3    H164120   6.665   1.615  14.600 -0.8787 -0.1441  0.8280
14235TIP3    H264121   6.594   1.501  14.529 -1.2428  0.4641  0.2006
14236TIP3   OH264122   4.416   0.821  16.973  0.6701  0.2166 -0.1424
14236TIP3    H164123   4.414   0.797  17.066 -1.6732 -0.7541 -0.3576
14236TIP3    H264124   4.378   0.909  16.971 -0.9133 -0.4310 -0.2747
14237TIP3   OH264125   4.549   0.141  17.084 -0.6777 -0.1423 -0.4435
14237TIP3    H164126   4.607   0.065  17.086 -1.0102 -0.3956  0.3902
14237TIP3    H264127   4.494   0.127  17.007  0.1839 -0.0256 -1.0965
14238TIP3   OH264128   0.843   3.959   0.427 -0.6453 -0.1124 -0.2107
14238TIP3    H164129   0.787   3.965   0.504  0.4236 -1.1292  0.6714
14238TIP3    H264130   0.914   3.902   0.453  1.1675  1.6251 -1.0844
14239TIP3   OH264131   5.284   4.841  10.985 -0.5190 -0.2532 -0.4172
14239TIP3    H164132   5.314   4.845  11.076  1.2733 -1.0125 -0.9353
14239TIP3    H264133   5.334   4.910  10.941  1.9927 -2.6765 -1.6577
14240TIP3   OH264134   5.254   5.306   0.303 -0.1884  0.5475 -0.2874
14240TIP3    H164135   5.294   5.260   0.377  1.3295  0.4876 -1.0984
14240TIP3    H264136   5.163   5.319   0.329 -0.1423 -1.0716  0.8315
14241TIP3   OH264137   3.970   3.920   4.013  0.4978  0.0381  0.6138
14241TIP3    H164138   3.932   3.852   3.957 -1.3344  0.9083  0.7406
14241TIP3    H264139   3.957   3.888   4.102  2.1980 -0.7100  0.6474
14242TIP3   OH264140   0.081   0.164   2.279  0.0198 -0.0065  0.4645
14242TIP3    H164141   0.092   0.090   2.220  1.8806 -0.1341  0.9029
14242TIP3    H264142   0.033   0.229   2.227  1.6473 -0.0921 -1.2836
14243TIP3   OH264143   2.686   1.295  16.748  0.0435  0.7102 -0.2896
14243TIP3    H164144   2.719   1.325  16.663  0.7529 -0.0666 -0.3023
14243TIP3    H264145   2.758   1.311  16.809 -0.2452  0.7195  0.0509
14244TIP3   OH264146   5.801   3.008  11.681 -0.0001  0.2662 -0.5998
14244TIP3    H164147   5.873   3.070  11.693 -0.3516  0.6177 -0.2644
14244TIP3    H264148   5.832   2.927  11.720  0.4062  0.2773 -0.9013
14245TIP3   OH264149   6.083   3.881   6.668  0.3249 -0.2282 -0.0799
14245TIP3    H164150   6.004   3.858   6.719 -1.2537  1.4174 -1.6246
14245TIP3    H264151   6.087   3.815   6.599 -0.1262  0.0984 -0.4203
14246TIP3   OH264152   2.842   3.521   1.565  0.2226  0.3700  0.6210
14246TIP3    H164153   2.769   3.462   1.583  0.3841  0.3300  1.1820
14246TIP3    H264154   2.811   3.577   1.495 -0.4404  0.5094  1.0132
14247TIP3   OH264155   6.744   0.511   2.760  0.2282 -0.0044  0.2829
14247TIP3    H164156   6.689   0.433   2.752 -0.3063  0.2407  1.3676
14247TIP3    H264157   6.715   0.567   2.688  1.2725 -1.1657 -1.0943
14248TIP3   OH264158   5.874   0.845  13.472  0.2200 -0.7758  0.1996
14248TIP3    H164159   5.889   0.764  13.520 -1.0160 -0.4726  1.1548
14248TIP3    H264160   5.805   0.823  13.409 -1.0904 -0.1607  1.3768
14249TIP3   OH264161   3.969   3.328  15.397  0.1106  0.3155 -0.0807
14249TIP3    H164162   3.929   3.246  15.426  2.2882 -0.4163  1.1136
14249TIP3    H264163   4.057   3.326  15.436  0.0308  3.5095  0.5134
14250TIP3   OH264164   5.083   5.915  16.812 -0.1120  0.2809  0.1029
14250TIP3    H164165   5.008   5.862  16.782 -0.5817 -0.7549  2.8221
14250TIP3    H264166   5.051   6.005  16.809 -0.4069  0.1568 -1.5473
14251TIP3   OH264167   1.704   5.413  15.999 -0.5733  0.0984  0.0364
14251TIP3    H164168   1.738   5.470  16.068 -1.1039 -0.2795  0.6357
14251TIP3    H264169   1.613   5.439  15.989 -0.7550 -0.4665  0.1469
14252TIP3   OH264170   2.713   2.851  13.863 -0.4219 -0.4990 -0.0774
14252TIP3    H164171   2.672   2.793  13.799 -0.0197 -2.7837  1.6204
14252TIP3    H264172   2.640   2.888  13.912 -0.6517 -0.3745 -0.5121
14253TIP3   OH264173   1.927   2.251  16.882 -0.3096 -0.1114 -0.5035
14253TIP3    H164174   1.904   2.276  16.792  1.5883  1.8729 -0.5257
14253TIP3    H264175   2.021   2.231  16.877  0.8492  3.8439  1.6494
14254TIP3   OH264176   2.861   6.614   2.280  0.8202  0.2310 -0.1455
14254TIP3    H164177   2.879   6.578   2.193  0.4277  0.1655 -0.1994
14254TIP3    H264178   2.922   6.567   2.338  2.4643  1.6340 -0.6502
14255TIP3   OH264179   6.120   3.282   0.169  0.5988  0.1763  0.5554
14255TIP3    H164180   6.171   3.355   0.203  0.6473  0.5531 -0.3119
14255TIP3    H264181   6.131   3.286   0.074 -0.2920 -0.2888  0.4184
14256TIP3   OH264182   5.424   0.499   3.717  0.5582  0.3787 -0.5706
14256TIP3    H164183   5.410   0.446   3.639  0.5635 -0.7326  0.1598
14256TIP3    H264184   5.517   0.490   3.736  0.2304 -0.8674  0.5910
14257TIP3   OH264185   5.500   6.214  15.298 -0.1520 -0.2539  0.4439
14257TIP3    H164186   5.593   6.217  15.272  0.4501 -0.5893  2.4126
14257TIP3    H264187   5.462   6.147  15.241  0.9222 -0.4600 -0.0688
14258TIP3   OH264188   2.650   2.936  14.618  0.0302  0.1647  0.2380
14258TIP3    H164189   2.620   3.024  14.598  1.0606  0.3136 -0.7833
14258TIP3    H264190   2.667   2.897  14.532 -0.2989 -0.9879  0.6783
14259TIP3   OH264191   0.275   4.327  13.106 -0.6116  0.2083  0.2371
14259TIP3    H164192   0.264   4.374  13.023  2.4257  0.0350 -0.3838
14259TIP3    H264193   0.333   4.254  13.086 -0.7342 -0.5488  2.3065
14260TIP3   OH264194   6.538   6.045   5.184 -0.3962  0.1004  0.3804
14260TIP3    H164195   6.557   5.972   5.244 -0.6293  0.6823  1.1817
14260TIP3    H264196   6.566   6.123   5.232  0.4348  0.5002 -0.7275
14261TIP3   OH264197   1.558   2.629  11.115 -0.1836  0.0480 -0.4203
14261TIP3    H164198   1.635   2.572  11.106  0.2857  0.5377  0.3995
14261TIP3    H264199   1.530   2.617  11.206 -2.0844 -1.3704 -1.1231
14262TIP3   OH264200   5.008   5.952  14.458  0.3790  0.0906 -0.0301
14262TIP3    H164201   5.095   5.988  14.441  0.3456  0.8056  1.1571
14262TIP3    H264202   5.005   5.871  14.407  1.7699  0.0170 -0.0340
14263TIP3   OH264203   0.448   5.374   3.263  0.3002  0.3533 -0.1794
14263TIP3    H164204   0.381   5.434   3.294  1.9739  2.5517 -0.5582
14263TIP3    H264205   0.402   5.291   3.248 -1.6002  0.6738  2.9884
14264TIP3   OH264206   3.781   3.919  16.047 -0.1355 -0.2172 -0.0150
14264TIP3    H164207   3.704   3.862  16.041 -0.1446 -0.0594 -1.9427
14264TIP3    H264208   3.755   3.988  16.108 -1.9543  0.4031 -1.3887
14265TIP3   OH264209   3.973   0.167   5.984  0.7452 -0.1027 -0.7021
14265TIP3    H164210   3.973   0.113   6.063 -1.5204  1.8268  0.7494
14265TIP3    H264211   4.062   0.201   5.978  0.8137  0.2345  1.4387
14266TIP3   OH264212   4.991   0.870  12.200 -0.4817 -0.3686  0.0601
14266TIP3    H164213   4.998   0.873  12.295 -0.0849 -0.9081  0.0534
14266TIP3    H264214   4.975   0.960  12.174 -0.5808 -0.2182  0.6374
14267TIP3   OH264215   2.478   5.435  13.803 -0.2408  0.1336 -0.5471
14267TIP3    H164216   2.420   5.485  13.860 -1.9357 -0.5703 -1.5880
14267TIP3    H264217   2.563   5.477  13.813 -0.1699 -0.5490  3.2696
14268TIP3   OH264218   5.228   0.381  11.012  0.7205  0.1373  0.1061
14268TIP3    H164219   5.165   0.453  11.003  0.4384 -0.0277  0.6720
14268TIP3    H264220   5.176   0.302  10.995  1.0281  0.0634 -0.5118
14269TIP3   OH264221   5.904   4.156   5.078  0.2922  0.1378  0.0564
14269TIP3    H164222   5.870   4.167   4.989  2.4189  0.3963 -0.7750
14269TIP3    H264223   5.999   4.167   5.070  0.6294 -0.5746  2.2465
14270TIP3   OH264224   3.485   4.178   3.569  0.2486 -0.4590 -0.2933
14270TIP3    H164225   3.446   4.206   3.652 -0.1765 -0.8321 -0.3619
14270TIP3    H264226   3.544   4.106   3.593  1.0019  0.1808 -0.1748
14271TIP3   OH264227   6.576   6.110  13.656 -0.5367 -0.2233 -0.4511
14271TIP3    H164228   6.555   6.203  13.668 -0.1146 -0.2305  0.3507
14271TIP3    H264229   6.612   6.082  13.740  0.9246 -0.6966 -1.2022
14272TIP3   OH264230   0.719   4.311  13.286  0.1775 -0.0721 -0.2922
14272TIP3    H164231   0.631   4.330  13.319 -0.4795 -0.8738 -1.5134
14272TIP3    H264232   0.713   4.323  13.191  1.5516  0.4303 -0.3402
14273TIP3   OH264233   0.909   1.098   3.568  0.0029 -0.6347  0.0846
14273TIP3    H164234   0.904   1.133   3.657 -0.0363  2.5134 -1.0383
14273TIP3    H264235   0.985   1.141   3.529 -0.7046 -0.9972 -1.7942
14274TIP3   OH264236   4.994   3.695  11.404  0.0799  0.6022 -0.9255
14274TIP3    H164237   5.051   3.763  11.368  2.5109 -1.0774 -0.5447
14274TIP3    H264238   5.028   3.681  11.493 -1.2970 -0.1019 -0.4913
14275TIP3   OH264239   6.283   2.339  13.434 -0.5207 -0.0410  0.0602
14275TIP3    H164240   6.199   2.299  13.456  0.0806 -1.9260 -0.8441
14275TIP3    H264241   6.324   2.276  13.374  1.1005  1.3176 -0.3218
14276TIP3   OH264242   0.517   1.202  16.618  0.0870  0.6395  0.0526
14276TIP3    H164243   0.474   1.251  16.689  0.9344  1.2049  0.1867
14276TIP3    H264244   0.486   1.245  16.539 -1.5901 -0.5654 -0.0135
14277TIP3   OH264245   2.973   3.835   0.170  0.5703  0.4412  0.1013
14277TIP3    H164246   2.917   3.901   0.211 -1.0887  0.0174 -1.3557
14277TIP3    H264247   2.912   3.769   0.137  2.0043 -0.4596 -0.8612
14278TIP3   OH264248   6.591   2.678  16.895  0.1710  0.3362  0.1841
14278TIP3    H164249   6.640   2.760  16.906 -1.8488  1.5085  1.0638
14278TIP3    H264250   6.589   2.640  16.983 -0.1010  0.0636  0.0603
14279TIP3   OH264251   4.871   2.166   2.108  0.3832  0.7054 -0.7611
14279TIP3    H164252   4.796   2.209   2.067 -0.3550  0.1348 -0.0594
14279TIP3    H264253   4.909   2.232   2.165 -0.5579  0.5494  0.0795
14280TIP3   OH264254   4.374   4.795  13.020  0.6355  0.3831  0.7778
14280TIP3    H164255   4.457   4.758  12.990 -0.0663 -0.7338  0.1063
14280TIP3    H264256   4.398   4.853  13.091  1.9097 -0.7708  1.3454
14281TIP3   OH264257   0.912   4.740  11.348 -0.1768  0.2351 -0.4002
14281TIP3    H164258   0.962   4.682  11.406 -1.9124 -0.0064  0.9179
14281TIP3    H264259   0.898   4.688  11.269  2.2943  0.6023 -1.1950
14282TIP3   OH264260   0.041   5.781   0.779 -0.3339 -0.3818  0.7422
14282TIP3    H164261  -0.009   5.766   0.699  1.0026 -0.7380 -0.0508
14282TIP3    H264262   0.062   5.693   0.811 -1.9150 -0.2816  2.2124
14283TIP3   OH264263   0.596   5.515   3.065  0.1319  0.6418  0.3905
14283TIP3    H164264   0.563   5.486   3.150  3.0635 -2.6078  0.6396
14283TIP3    H264265   0.520   5.512   3.008 -0.7744 -3.9873  1.4294
14284TIP3   OH264266   5.716   5.306  13.244  0.2746  0.6508  0.3694
14284TIP3    H164267   5.668   5.305  13.161 -0.2225  0.8624  0.6521
14284TIP3    H264268   5.799   5.263  13.223 -0.1427  0.0259 -0.0535
14285TIP3   OH264269   4.086   2.052  11.112  0.4682  0.0007  0.0210
14285TIP3    H164270   4.156   2.113  11.135  0.2966 -0.0146  0.5911
14285TIP3    H264271   4.007   2.105  11.113  0.4577  0.0064 -0.5748
14286TIP3   OH264272   6.215   0.601  12.630  0.3574  0.5507  0.9852
14286TIP3    H164273   6.290   0.563  12.675  0.3613 -0.2670  0.3022
14286TIP3    H264274   6.140   0.547  12.657  0.3363  0.1460  0.1474
14287TIP3   OH264275   3.309   2.357   3.922 -0.0879 -0.2037  0.0478
14287TIP3    H164276   3.271   2.363   4.010 -0.6180  1.1559 -0.2496
14287TIP3    H264277   3.359   2.276   3.923 -0.7432 -0.6209  1.3504
14288TIP3   OH264278   3.635   4.558   4.406  0.0883 -0.0192 -0.5761
14288TIP3    H164279   3.667   4.489   4.348 -0.0845 -0.1719 -0.4906
14288TIP3    H264280   3.647   4.638   4.356  1.7311  0.0786 -0.0851
14289TIP3   OH264281   2.565   3.412   5.185 -0.5445  0.1244 -0.0753
14289TIP3    H164282   2.603   3.440   5.102 -1.5094 -0.6848 -0.8115
14289TIP3    H264283   2.626   3.445   5.251  1.8115 -1.6743 -1.2125
14290TIP3   OH264284   6.131   1.508  16.693 -0.3794 -0.2104 -0.4800
14290TIP3    H164285   6.066   1.546  16.752  0.5987  1.5469 -0.4567
14290TIP3    H264286   6.211   1.559  16.709  0.3385 -0.7149 -2.1936
14291TIP3   OH264287   2.401   5.756   0.093 -0.4452 -0.9798  0.1412
14291TIP3    H164288   2.374   5.725   0.180 -0.2960 -0.8351  0.2396
14291TIP3    H264289   2.470   5.696   0.066  1.5352  0.6340  1.3556
14292TIP3   OH264290   2.858   5.188   5.317 -0.4111  0.1918  0.2041
14292TIP3    H164291   2.839   5.195   5.223 -0.5022 -3.3073 -0.1873
14292TIP3    H264292   2.949   5.216   5.326  0.0963 -0.8460 -1.2647
14293TIP3   OH264293   1.542   2.759  17.217 -0.3778  0.2909 -0.4785
14293TIP3    H164294   1.528   2.789  17.306 -1.5350  1.6741 -1.0929
14293TIP3    H264295   1.486   2.682  17.208 -2.3905  1.7278 -0.7918
14294TIP3   OH264296   4.931   4.540  12.017 -0.4738  0.4292  0.4051
14294TIP3    H164297   5.005   4.497  12.060  0.3807  1.4588  0.0165
14294TIP3    H264298   4.865   4.546  12.086 -0.0342 -0.1140  0.8897
14295TIP3   OH264299   0.947   6.605  16.029 -0.3463 -1.0264  0.0450
14295TIP3    H164300   0.959   6.696  16.054 -0.7157 -1.3356  1.4042
14295TIP3    H264301   0.975   6.555  16.106 -1.7663 -2.0090 -0.0387
14296TIP3   OH264302   4.455   4.948  17.168 -0.2182  0.1406  0.0220
14296TIP3    H164303   4.460   5.018  17.233 -0.2071 -0.2825  0.4832
14296TIP3    H264304   4.537   4.899  17.180 -0.2613 -0.0012 -0.2470
14297TIP3   OH264305   1.514   0.907  12.491  0.3781  0.6852 -0.1111
14297TIP3    H164306   1.556   0.870  12.569  1.5000  1.2467 -0.4338
14297TIP3    H264307   1.472   0.832  12.448  2.1089 -0.1274 -0.4490
14298TIP3   OH264308   0.990   1.500   4.307  0.4060  0.4655 -0.2112
14298TIP3    H164309   1.052   1.550   4.254 -0.3355  3.1139  1.2493
14298TIP3    H264310   1.039   1.477   4.386  1.4288 -3.2527 -1.7250
14299TIP3   OH264311   5.490   3.708  12.816  0.1570 -0.0881  0.0293
14299TIP3    H164312   5.458   3.671  12.898  0.3213  0.6970  0.4560
14299TIP3    H264313   5.412   3.744  12.774  0.1385 -0.0995  0.0536
14300TIP3   OH264314   6.434   0.736  13.947  0.2361  0.7027  0.6465
14300TIP3    H164315   6.525   0.706  13.953 -0.3417 -0.8933  3.1090
14300TIP3    H264316   6.421   0.786  14.028 -1.6093 -0.8556  1.3713
14301TIP3   OH264317   4.024   2.905   3.984 -0.0246 -0.1805 -0.1429
14301TIP3    H164318   3.955   2.936   4.043  0.0883 -1.3417  0.6555
14301TIP3    H264319   4.104   2.941   4.020 -0.1404  0.6085 -0.6676
14302TIP3   OH264320   1.750   2.719   4.513  0.3317 -0.3672  0.6342
14302TIP3    H164321   1.783   2.804   4.483  0.9811 -0.8103  0.0605
14302TIP3    H264322   1.814   2.656   4.480  0.4816 -0.9758  2.0240
14303TIP3   OH264323   1.122   2.860  15.492  0.4343  0.1309 -1.2725
14303TIP3    H164324   1.033   2.851  15.527  0.7376 -1.8862 -0.9360
14303TIP3    H264325   1.130   2.954  15.472 -0.8592  0.8441  1.0891
14304TIP3   OH264326   1.770   5.055  13.836 -0.0522 -0.2567  0.4908
14304TIP3    H164327   1.756   5.105  13.916  0.6697 -1.9036  1.7008
14304TIP3    H264328   1.685   5.055  13.792 -0.8361 -0.5019  1.9690
14305TIP3   OH264329   6.164   5.772   5.717 -0.1143 -0.3919  0.4983
14305TIP3    H164330   6.100   5.820   5.769  1.1664 -0.2154  1.9938
14305TIP3    H264331   6.178   5.691   5.766  0.6941 -0.4834  0.1314
14306TIP3   OH264332   0.918   4.992  12.126  0.4845 -0.2461  0.1978
14306TIP3    H164333   0.979   4.924  12.154  0.2913 -0.5493 -0.1009
14306TIP3    H264334   0.857   4.947  12.068  0.8780  0.3547 -0.7123
14307TIP3   OH264335   2.208   0.006   0.931  0.2886 -0.0248  0.0522
14307TIP3    H164336   2.154  -0.045   0.871 -0.3110 -0.5476  1.0042
14307TIP3    H264337   2.253  -0.060   0.985 -0.6180  0.4152  1.4120
14308TIP3   OH264338   1.927   3.622  16.788  0.0036 -1.3444 -0.1252
14308TIP3    H164339   1.933   3.537  16.744 -0.4699 -0.6320 -1.6081
14308TIP3    H264340   1.906   3.599  16.879 -0.3726 -2.8106 -0.5446
14309TIP3   OH264341   0.690   0.934  11.860  0.1459 -0.5465  0.0592
14309TIP3    H164342   0.748   1.005  11.834  1.0838 -0.5241  1.9965
14309TIP3    H264343   0.739   0.854  11.842  0.4086 -0.5604  0.7794
14310TIP3   OH264344   6.099   0.946   3.176  0.0733  0.4963  0.4766
14310TIP3    H164345   6.129   0.953   3.266  0.5337 -1.6074  0.5251
14310TIP3    H264346   6.011   0.984   3.176 -0.2323 -0.1721  1.9783
14311TIP3   OH264347   4.560   0.798   4.076 -0.9804  0.2550 -0.3152
14311TIP3    H164348   4.602   0.806   3.990 -1.0448  0.2914 -0.3441
14311TIP3    H264349   4.628   0.763   4.133 -0.0885  2.7305  0.2529
14312TIP3   OH264350   4.078   0.399  12.859  0.3241  0.2631  0.2834
14312TIP3    H164351   4.077   0.493  12.878 -1.7549  0.2654  0.4030
14312TIP3    H264352   4.060   0.357  12.944 -4.3687  0.0761 -0.5714
14313TIP3   OH264353   0.730   3.430   1.950 -0.5959  0.4515  0.7762
14313TIP3    H164354   0.689   3.395   2.029  0.9510 -0.8719  1.0320
14313TIP3    H264355   0.810   3.472   1.980 -0.1065  0.1456 -0.0462
14314TIP3   OH264356   0.566   3.211   6.201 -0.0183 -0.5299  0.5832
14314TIP3    H164357   0.486   3.186   6.247 -1.2522 -0.4283 -1.3975
14314TIP3    H264358   0.555   3.177   6.112  1.9834 -0.1651  0.1316
14315TIP3   OH264359   5.590   2.395  15.875  0.4930 -0.3997 -0.0014
14315TIP3    H164360   5.499   2.371  15.891  0.4695  0.1961  0.8440
14315TIP3    H264361   5.641   2.338  15.933  0.5221  0.5389  0.9375
14316TIP3   OH264362   0.676   4.082  11.761 -0.0064  0.7890 -0.0216
14316TIP3    H164363   0.601   4.023  11.768  0.4401  0.2751  0.7043
14316TIP3    H264364   0.739   4.047  11.825  0.6495  1.4952 -0.2677
14317TIP3   OH264365   3.825   2.454   3.376  0.8905 -0.5592 -0.0369
14317TIP3    H164366   3.770   2.376   3.390 -1.6786  1.6142  3.9218
14317TIP3    H264367   3.778   2.506   3.311  0.2709 -0.4197  0.5159
14318TIP3   OH264368   3.384   4.750  12.745  0.2382  0.6407 -0.0623
14318TIP3    H164369   3.474   4.781  12.752  0.6915 -0.9321  2.1143
14318TIP3    H264370   3.391   4.665  12.702  0.0674 -0.3281  1.7375
14319TIP3   OH264371   3.056   1.519   2.841 -0.5438 -0.1254 -0.4816
14319TIP3    H164372   3.097   1.579   2.904  0.6949 -0.0048 -1.3614
14319TIP3    H264373   3.130   1.476   2.798 -1.3088  0.4049 -2.4292
14320TIP3   OH264374   1.052   1.698   0.245  0.3053 -1.0694  0.0882
14320TIP3    H164375   1.032   1.636   0.175 -0.5939  0.9207 -1.5275
14320TIP3    H264376   1.108   1.764   0.204 -2.2246  1.4948  0.4365
14321TIP3   OH264377   3.026   1.792   3.242 -0.4251  0.2396  0.4919
14321TIP3    H164378   2.936   1.761   3.250 -0.5529  0.6914  0.8869
14321TIP3    H264379   3.071   1.756   3.319  0.1661 -1.3710 -0.5558
14322TIP3   OH264380   5.033   6.263  12.348 -0.9829 -0.0435  0.1696
14322TIP3    H164381   5.057   6.267  12.255 -0.4843  0.8950  0.3195
14322TIP3    H264382   5.075   6.184  12.381 -0.6363 -0.0431 -0.2645
14323TIP3   OH264383   3.413   4.251   2.825 -0.0485  0.1810 -0.6224
14323TIP3    H164384   3.498   4.244   2.780  0.2615  2.7901 -0.6060
14323TIP3    H264385   3.436   4.282   2.912 -0.8363 -2.4780  0.6201
14324TIP3   OH264386   4.251   0.798   0.794  0.1288  0.0551 -0.2777
14324TIP3    H164387   4.259   0.872   0.854  1.0635  0.8738 -1.3537
14324TIP3    H264388   4.187   0.828   0.729 -0.6489 -0.6973  0.1398
14325TIP3   OH264389   0.773   2.248   3.576 -0.3858 -0.3639  0.5858
14325TIP3    H164390   0.853   2.259   3.524 -0.8549 -1.3452 -0.3940
14325TIP3    H264391   0.796   2.180   3.640 -0.3206 -0.3557  0.5711
14326TIP3   OH264392   2.801   1.204   0.706  0.0132 -0.4109  1.3502
14326TIP3    H164393   2.748   1.187   0.784  1.7917 -1.1378  2.4752
14326TIP3    H264394   2.888   1.172   0.730  0.3446 -1.8267 -1.4083
14327TIP3   OH264395   4.935   1.653   3.392 -0.4921  0.0616 -0.2242
14327TIP3    H164396   4.951   1.746   3.381  1.1636 -0.2901 -1.1236
14327TIP3    H264397   4.843   1.647   3.419 -0.9651  1.8782 -1.2722
14328TIP3   OH264398   0.151   1.191  13.926 -0.2100 -0.6427 -0.5802
14328TIP3    H164399   0.099   1.251  13.872  0.2291  0.5243  0.2557
14328TIP3    H264400   0.090   1.121  13.950 -0.8600 -0.2977 -1.1903
14329TIP3   OH264401   5.902   2.910  10.636 -0.2676  0.0702 -0.0036
14329TIP3    H164402   5.905   2.994  10.590 -0.8086 -0.2269 -0.5880
14329TIP3    H264403   5.986   2.868  10.615  0.2444  0.6899  0.7412
14330TIP3   OH264404   4.385   5.565   1.169  0.1013  0.2546 -0.1068
14330TIP3    H164405   4.375   5.527   1.257 -0.6656 -0.7511 -0.6215
14330TIP3    H264406   4.308   5.620   1.158 -0.5061 -0.6953 -0.6774
14331TIP3   OH264407   0.435   2.599   3.723 -0.3002  0.0029 -0.2739
14331TIP3    H164408   0.433   2.516   3.770 -2.3982 -0.0991 -0.4505
14331TIP3    H264409   0.499   2.585   3.653 -1.3792 -1.8877 -0.9736
14332TIP3   OH264410   5.556   3.811  15.334  0.1023 -0.2811  0.3748
14332TIP3    H164411   5.624   3.800  15.401  0.1718  0.0530  0.3597
14332TIP3    H264412   5.485   3.857  15.378 -0.1512 -0.7052  0.4119
14333TIP3   OH264413   5.881   5.497  12.358  0.0221 -0.2121  0.3078
14333TIP3    H164414   5.943   5.426  12.338 -0.9131 -1.0894  0.4118
14333TIP3    H264415   5.859   5.533  12.272  2.2963  1.5969  0.3809
14334TIP3   OH264416   3.329   4.032  15.576  0.4165  0.2732 -0.4264
14334TIP3    H164417   3.275   4.068  15.647 -0.8178  0.6801 -1.5235
14334TIP3    H264418   3.276   3.960  15.541  0.6424  0.5960 -1.4472
14335TIP3   OH264419   1.770   4.569   1.032 -0.2119  0.9796  0.3150
14335TIP3    H164420   1.727   4.508   0.971  1.3984 -0.1178  0.2127
14335TIP3    H264421   1.814   4.632   0.975  1.6653 -0.3037  0.2351
14336TIP3   OH264422   6.412   4.775   0.204 -0.0112 -0.0764  0.3289
14336TIP3    H164423   6.340   4.827   0.168  1.3944  0.9198 -1.2011
14336TIP3    H264424   6.491   4.814   0.165  1.5173 -0.1110  3.1450
14337TIP3   OH264425   4.161   5.454   2.141 -0.0626 -0.7017  0.0753
14337TIP3    H164426   4.148   5.371   2.187  0.2498 -0.3702  0.7689
14337TIP3    H264427   4.246   5.445   2.098 -0.0523 -0.7579  0.1068
14338TIP3   OH264428   0.649   4.175  13.917 -0.7296 -0.1630 -0.0008
14338TIP3    H164429   0.647   4.084  13.889 -0.3487  0.3108 -1.7227
14338TIP3    H264430   0.734   4.208  13.887 -0.0811  0.3144  2.1900
14339TIP3   OH264431   4.424   2.818   5.956  0.4398  0.4878  0.1438
14339TIP3    H164432   4.363   2.744   5.962 -0.3364  1.1434  0.4705
14339TIP3    H264433   4.504   2.785   5.997  0.9172 -0.9713 -1.8249
14340TIP3   OH264434   0.299   1.691   0.924  0.6759 -0.3756 -0.1912
14340TIP3    H164435   0.291   1.664   0.832 -0.0098 -1.4324  0.1657
14340TIP3    H264436   0.356   1.626   0.964 -0.3290 -0.8717  0.4863
14341TIP3   OH264437   1.497   1.578   1.832 -0.0731  0.0433 -0.3976
14341TIP3    H164438   1.423   1.533   1.793  1.1804 -2.2819 -0.2925
14341TIP3    H264439   1.467   1.667   1.846 -2.9255 -0.8915 -0.0643
14342TIP3   OH264440   6.086   6.629  11.538  0.2917  0.2571 -0.1256
14342TIP3    H164441   6.033   6.692  11.490  0.3731  2.0571  1.9778
14342TIP3    H264442   6.172   6.632  11.496  0.2364  1.4445 -0.1835
14343TIP3   OH264443   5.346   1.335  13.135 -0.1088 -0.7386 -0.1359
14343TIP3    H164444   5.268   1.328  13.190 -1.0026  1.3344 -1.0565
14343TIP3    H264445   5.413   1.373  13.192  0.2537 -2.4209  0.6246
14344TIP3   OH264446   4.577   1.407   1.064  0.2102 -0.8143 -0.2924
14344TIP3    H164447   4.606   1.336   1.007 -0.5206  0.2885 -2.1403
14344TIP3    H264448   4.497   1.440   1.023 -0.9142 -0.5615  1.9301
14345TIP3   OH264449   2.991   0.160  11.853  0.1377 -0.2484  0.0888
14345TIP3    H164450   2.942   0.165  11.935  0.4825 -0.4885  0.3141
14345TIP3    H264451   3.072   0.114  11.876  0.2063 -0.3832 -0.4039
14346TIP3   OH264452   4.437   1.471  11.689  0.4053 -0.2367  0.1606
14346TIP3    H164453   4.371   1.405  11.671  0.9010 -0.3615 -1.4300
14346TIP3    H264454   4.454   1.511  11.603  1.2093  0.9076  0.8231
14347TIP3   OH264455   5.476   3.307   3.101 -0.1586  0.0871  0.4640
14347TIP3    H164456   5.436   3.241   3.158  0.4167 -0.6641  0.0315
14347TIP3    H264457   5.429   3.297   3.018 -0.1741  0.3317  0.4440
14348TIP3   OH264458   6.694   1.807  13.794  0.4305 -0.0533  0.8088
14348TIP3    H164459   6.603   1.830  13.811  0.0185 -1.9908  1.5123
14348TIP3    H264460   6.743   1.845  13.867  0.6911  3.4594 -1.0048
14349TIP3   OH264461   3.911   0.256   3.467 -0.3593  0.4876  0.7842
14349TIP3    H164462   3.860   0.244   3.547  1.2809 -0.9615  1.6844
14349TIP3    H264463   3.985   0.196   3.476  1.6956  2.6728 -0.3281
14350TIP3   OH264464   5.041   2.221  16.179 -0.0805 -0.3271  0.1458
14350TIP3    H164465   5.011   2.130  16.191 -0.1545 -0.3319 -0.0764
14350TIP3    H264466   5.027   2.238  16.086 -0.9681  0.2284  0.3648
14351TIP3   OH264467   0.119   5.582  13.940 -0.1414 -0.1599  0.4776
14351TIP3    H164468   0.095   5.633  13.863  0.9003  0.3092  0.4530
14351TIP3    H264469   0.109   5.643  14.013  1.0125  0.0676  0.4586
14352TIP3   OH264470   1.502   2.084  15.129  0.5682  0.4284  0.1987
14352TIP3    H164471   1.428   2.033  15.096  1.1215  0.4148 -1.0779
14352TIP3    H264472   1.502   2.163  15.075  0.9111  0.8743  0.8436
14353TIP3   OH264473   0.142   0.181   5.740 -0.2142 -0.1811  0.1859
14353TIP3    H164474   0.058   0.200   5.782 -0.8402 -0.4694 -0.9027
14353TIP3    H264475   0.166   0.263   5.698 -1.7050 -0.9640 -2.4313
14354TIP3   OH264476   3.125   4.324  13.684  0.2459 -0.1286 -0.2436
14354TIP3    H164477   3.098   4.322  13.592  1.2290  1.0777 -0.5768
14354TIP3    H264478   3.173   4.406  13.693  2.2395 -1.3147  0.7376
14355TIP3   OH264479   0.125   0.543   4.220 -0.0382  0.3958 -0.1346
14355TIP3    H164480   0.185   0.469   4.218  1.0761  1.2002  1.7569
14355TIP3    H264481   0.095   0.552   4.129  2.0969 -0.5153 -0.9804
14356TIP3   OH264482   1.780   0.334  11.827  0.3425 -0.3139  0.4106
14356TIP3    H164483   1.826   0.252  11.811  0.3158 -0.3289  0.4108
14356TIP3    H264484   1.808   0.360  11.915  1.2877  0.2882 -0.0425
14357TIP3   OH264485   1.568   3.131   5.765 -0.0167  0.0684 -0.7677
14357TIP3    H164486   1.647   3.183   5.748  1.1510 -1.6974 -0.9329
14357TIP3    H264487   1.513   3.188   5.818  1.8179  0.9751  0.2469
14358TIP3   OH264488   6.174   5.447   1.228 -0.8726  0.3991 -0.2427
14358TIP3    H164489   6.135   5.507   1.164 -2.2094 -1.2086 -1.0170
14358TIP3    H264490   6.123   5.366   1.219 -1.6877  0.3617  3.4717
14359TIP3   OH264491   0.618   0.346   0.391  0.1158 -0.1526  0.2207
14359TIP3    H164492   0.688   0.410   0.386  1.0415 -1.1547 -0.0993
14359TIP3    H264493   0.663   0.261   0.392 -1.0935 -0.9608 -2.7331
14360TIP3   OH264494   2.248   5.636  16.327 -0.3822  0.2156 -0.2737
14360TIP3    H164495   2.240   5.723  16.368  1.1673  0.4260 -0.3534
14360TIP3    H264496   2.337   5.608  16.350 -1.1224 -1.7012  0.3971
14361TIP3   OH264497   1.660   1.483  12.944  0.6671  1.0213  0.4361
14361TIP3    H164498   1.600   1.553  12.972 -1.8411 -0.7532 -0.2694
14361TIP3    H264499   1.667   1.426  13.021 -0.0472  0.2447 -0.0677
14362TIP3   OH264500   4.691   2.439   0.112 -0.4110 -0.1255 -0.2017
14362TIP3    H164501   4.621   2.404   0.167 -0.0904 -0.7362 -0.1796
14362TIP3    H264502   4.700   2.530   0.140 -1.6368  0.1568 -0.6434
14363TIP3   OH264503   5.393   5.121  10.949 -0.7373 -0.5068 -0.0422
14363TIP3    H164504   5.362   5.166  10.871  0.1210  0.1151 -0.0401
14363TIP3    H264505   5.455   5.182  10.989  0.1698 -1.5316  0.1634
14364TIP3   OH264506   5.860   2.346  11.630  0.0986 -0.7450  0.0375
14364TIP3    H164507   5.871   2.256  11.660 -1.3723 -0.2201  2.4080
14364TIP3    H264508   5.900   2.347  11.543  0.9225 -3.4470  0.2886
14365TIP3   OH264509   1.552   5.575  11.215 -0.6244 -0.5069 -0.2052
14365TIP3    H164510   1.588   5.655  11.178 -0.7396 -0.9076 -1.1999
14365TIP3    H264511   1.574   5.507  11.152  1.9771 -1.8354  1.8831
14366TIP3   OH264512   6.235   4.724  12.911 -0.1453 -0.2572 -0.6992
14366TIP3    H164513   6.146   4.719  12.946 -0.6026 -0.3011 -1.8298
14366TIP3    H264514   6.262   4.633  12.902  0.1898 -0.2372  0.0576
14367TIP3   OH264515   4.708   0.041  15.179  0.6200 -0.1427  0.1798
14367TIP3    H164516   4.733   0.109  15.117 -0.1232 -1.2098 -1.3431
14367TIP3    H264517   4.778  -0.024  15.172  0.0284 -0.7350 -0.3057
14368TIP3   OH264518   1.283   1.410   0.643  0.4302  0.1328  0.3980
14368TIP3    H164519   1.216   1.372   0.700  0.2211  1.8401  1.3549
14368TIP3    H264520   1.241   1.412   0.556 -0.3792  0.2487  0.7794
14369TIP3   OH264521   1.038   3.355   3.579  0.1801 -0.5837 -0.3148
14369TIP3    H164522   1.015   3.384   3.667 -0.0702  0.5815 -0.7384
14369TIP3    H264523   1.129   3.325   3.586  0.2321 -0.2977  0.2994
14370TIP3   OH264524   3.577   3.159  13.105 -0.2226  0.4967  0.4746
14370TIP3    H164525   3.491   3.200  13.094 -1.0046 -0.9217  1.0470
14370TIP3    H264526   3.609   3.191  13.189 -1.0534 -0.4070  1.1595
14371TIP3   OH264527   3.516   0.482   6.624  0.3961 -0.1914  0.3074
14371TIP3    H164528   3.555   0.471   6.537  0.0509 -0.1806  0.1506
14371TIP3    H264529   3.588   0.464   6.684  1.0177  1.1712  0.0108
14372TIP3   OH264530   4.367   1.963   2.851 -0.7062  0.6063 -0.1562
14372TIP3    H164531   4.434   1.910   2.893  0.5387  1.2899 -1.2191
14372TIP3    H264532   4.294   1.902   2.838  0.0332 -0.3938  0.2320
14373TIP3   OH264533   5.272   1.725   1.706 -0.0823 -0.2705  0.5927
14373TIP3    H164534   5.366   1.739   1.692 -0.2466  1.0372  0.6447
14373TIP3    H264535   5.257   1.755   1.796 -0.6372  0.0043  0.4090
14374TIP3   OH264536   5.508   0.753   0.749  0.3088  0.1631  0.2488
14374TIP3    H164537   5.592   0.800   0.752  0.1680  0.3582  2.5564
14374TIP3    H264538   5.492   0.726   0.839 -1.3745 -1.2545 -0.4132
14375TIP3   OH264539   0.197   0.804   5.105  0.4505  0.0129 -0.0478
14375TIP3    H164540   0.188   0.880   5.162 -0.0717 -0.2249  0.1932
14375TIP3    H264541   0.291   0.800   5.085  0.3856  1.1051 -0.6070
14376TIP3   OH264542   4.357   4.504   3.021  0.9350  0.4674  0.1897
14376TIP3    H164543   4.374   4.411   3.039 -1.6687 -0.2214 -0.4854
14376TIP3    H264544   4.415   4.551   3.081  1.5346 -1.6014  1.3288
14377TIP3   OH264545   5.610   6.145   1.018  0.4632  0.6913  0.2520
14377TIP3    H164546   5.596   6.228   0.974  2.1268  0.7466 -0.2611
14377TIP3    H264547   5.572   6.079   0.960 -0.3895  1.0437  0.4074
14378TIP3   OH264548   3.344   6.622   4.832  0.5684  0.1336 -0.7078
14378TIP3    H164549   3.319   6.587   4.917  2.3188 -1.5295 -0.7973
14378TIP3    H264550   3.409   6.689   4.852  1.4921 -0.7306 -0.7088
14379TIP3   OH264551   1.080   3.000   4.549  0.5083  0.1257  0.0027
14379TIP3    H164552   1.026   3.052   4.609  1.0993  0.7520  0.0069
14379TIP3    H264553   1.116   2.930   4.604  0.1034 -0.0064  0.1068
14380TIP3   OH264554   3.307   5.640  11.342 -0.3131 -0.2576 -0.3689
14380TIP3    H164555   3.303   5.698  11.266 -0.7291  0.0855 -0.0908
14380TIP3    H264556   3.235   5.669  11.398 -0.6839 -1.2069 -0.3382
14381TIP3   OH264557   1.925   4.341  15.721 -0.0321 -0.2714 -0.6928
14381TIP3    H164558   1.875   4.304  15.648 -3.1900 -0.5103  1.3758
14381TIP3    H264559   1.858   4.374  15.781  2.4515  1.9672  1.0930
14382TIP3   OH264560   2.609   1.637  12.053 -0.0717  0.0210  0.1669
14382TIP3    H164561   2.680   1.699  12.033  0.4382 -0.8217 -0.7335
14382TIP3    H264562   2.529   1.690  12.049  0.5112  1.0714  1.5861
14383TIP3   OH264563   6.525   2.618  16.017 -0.6179 -0.2904 -0.0685
14383TIP3    H164564   6.430   2.607  16.012 -0.5237 -0.6643 -3.3622
14383TIP3    H264565   6.559   2.528  16.020 -0.3207 -0.1557  2.8367
14384TIP3   OH264566   2.361   2.548   1.653 -0.2637  0.1154  0.2953
14384TIP3    H164567   2.432   2.569   1.593 -0.3224 -0.8873 -0.1400
14384TIP3    H264568   2.366   2.616   1.721  0.9475  0.1976  0.1442
14385TIP3   OH264569   5.228   6.273   2.689  0.1981 -0.1848 -0.4587
14385TIP3    H164570   5.215   6.316   2.773 -0.0355 -1.4175  0.1523
14385TIP3    H264571   5.279   6.335   2.637  0.1383  0.6816  0.5048
14386TIP3   OH264572   2.591   6.184  12.442 -0.1243  0.0042 -0.1125
14386TIP3    H164573   2.511   6.232  12.463 -0.4752 -0.6870  0.1885
14386TIP3    H264574   2.639   6.180  12.525 -0.4064 -0.7026  0.0330
14387TIP3   OH264575   0.752   1.297  11.275 -0.3002  0.7109  0.0060
14387TIP3    H164576   0.695   1.240  11.225 -0.1545  0.3243  0.2789
14387TIP3    H264577   0.710   1.303  11.361  1.0397 -1.1359  0.8551
14388TIP3   OH264578   1.908   3.747  11.606 -0.2018 -0.2343 -0.2332
14388TIP3    H164579   1.937   3.839  11.605  1.4911 -0.6354  1.8767
14388TIP3    H264580   1.948   3.709  11.528  1.3189  0.2790  0.2487
14389TIP3   OH264581   2.835   1.284  13.837 -0.5001 -0.2527  0.1052
14389TIP3    H164582   2.912   1.278  13.780  0.2490 -0.3393  1.0985
14389TIP3    H264583   2.777   1.347  13.793  0.8593  1.0925  0.1647
14390TIP3   OH264584   5.364   4.046  14.187  0.4345 -0.1317  0.1808
14390TIP3    H164585   5.429   4.114  14.206  0.8502 -0.8562  1.4991
14390TIP3    H264586   5.411   3.982  14.133  0.2437  0.2670 -0.4711
14391TIP3   OH264587   3.813   4.500   5.036  0.4695 -0.5514 -0.5077
14391TIP3    H164588   3.872   4.432   5.004  0.8454 -0.6241  0.3052
14391TIP3    H264589   3.726   4.473   5.005  0.5787 -1.5379  0.0117
14392TIP3   OH264590   4.629   5.305   4.695  0.3771  0.7219 -0.0752
14392TIP3    H164591   4.558   5.285   4.634 -0.0360 -1.3034  0.9637
14392TIP3    H264592   4.604   5.389   4.734 -2.0105 -0.3850  0.9770
14393TIP3   OH264593   0.919   1.115   6.011  0.0906  0.4509  0.0709
14393TIP3    H164594   0.998   1.072   6.042  0.4109  0.5730 -0.5446
14393TIP3    H264595   0.905   1.187   6.072 -0.1194 -0.1633  0.7643
14394TIP3   OH264596   0.537   3.816   6.113 -0.7702  0.3148 -0.2334
14394TIP3    H164597   0.489   3.768   6.181 -1.4298  0.2507 -0.7327
14394TIP3    H264598   0.528   3.908   6.138  1.3562  0.1881  1.2910
14395TIP3   OH264599   2.000   5.518  13.237 -0.7530 -0.2047  0.2229
14395TIP3    H164600   2.039   5.489  13.319 -0.3068  0.3597  0.2185
14395TIP3    H264601   2.019   5.612  13.234  1.5138 -0.6257 -1.7385
14396TIP3   OH264602   3.168   0.176  14.606  1.3152 -0.4456  0.1782
14396TIP3    H164603   3.257   0.142  14.611  1.6083  0.1392 -0.8230
14396TIP3    H264604   3.115   0.101  14.576  1.1829 -1.2114  2.1545
14397TIP3   OH264605   1.569   3.769   5.326 -0.0951 -0.4694  0.1196
14397TIP3    H164606   1.604   3.794   5.241  2.0624 -0.1876  1.0237
14397TIP3    H264607   1.616   3.688   5.349  1.6917  1.0427  2.3032
14398TIP3   OH264608   6.560   4.902  13.471 -0.6505  0.1369 -0.0254
14398TIP3    H164609   6.625   4.910  13.540 -1.4368 -0.3230  0.7923
14398TIP3    H264610   6.480   4.876  13.517 -0.7467 -2.0535 -1.3273
14399TIP3   OH264611   3.044   0.684  13.019  0.1754 -0.1514  0.6571
14399TIP3    H164612   3.091   0.757  13.059 -2.4841  2.8584 -1.3063
14399TIP3    H264613   3.022   0.626  13.093  0.6159  2.0693  2.6316
14400TIP3   OH264614   3.324   1.973   0.139  0.2442 -0.2519  0.3016
14400TIP3    H164615   3.293   1.989   0.228  0.4563 -0.0265  0.3362
14400TIP3    H264616   3.344   1.880   0.137  1.1861 -0.0769  0.7940
14401TIP3   OH264617   1.610   5.801  16.511  0.2884 -0.3549 -0.1559
14401TIP3    H164618   1.577   5.867  16.573 -0.9575  0.2272 -1.3825
14401TIP3    H264619   1.695   5.776  16.546 -0.8612 -0.9329  2.4340
14402TIP3   OH264620   1.549   2.411  11.281  0.0396 -0.2450 -0.2887
14402TIP3    H164621   1.556   2.387  11.188 -0.9698  1.9968 -1.0114
14402TIP3    H264622   1.455   2.420  11.296  0.1718 -0.9816  1.1036
14403TIP3   OH264623   6.628   1.270   4.882 -0.3072  0.0132  0.4696
14403TIP3    H164624   6.615   1.271   4.977  2.6733 -0.0459  0.9668
14403TIP3    H264625   6.603   1.181   4.856  0.0716 -0.3976  1.4307
14404TIP3   OH264626   3.403   1.688  15.109  0.4122 -0.0303  0.5315
14404TIP3    H164627   3.362   1.653  15.187 -0.8926  0.7047  0.2035
14404TIP3    H264628   3.496   1.669  15.120  0.0276 -1.5969  1.3683
14405TIP3   OH264629   5.641   1.449   1.415 -0.4253  0.1099  0.2540
14405TIP3    H164630   5.695   1.463   1.492  0.3517  1.7932 -0.5462
14405TIP3    H264631   5.575   1.385   1.442  1.1655 -1.0082  1.6391
14406TIP3   OH264632   0.810   1.375   5.099 -0.1429  0.1431  0.2637
14406TIP3    H164633   0.887   1.423   5.070 -0.7676  1.8183  1.1853
14406TIP3    H264634   0.758   1.363   5.020  0.1541  0.7916 -0.0403
14407TIP3   OH264635   1.160   4.220   2.346  0.5220  0.0010 -0.3723
14407TIP3    H164636   1.068   4.211   2.369  0.9974 -0.1945  1.5523
14407TIP3    H264637   1.203   4.143   2.383  1.9980  1.7995  1.9186
14408TIP3   OH264638   3.345   2.078   1.199  0.1626 -0.3766  0.1449
14408TIP3    H164639   3.296   2.126   1.266 -1.7719 -1.3835 -0.4579
14408TIP3    H264640   3.390   2.009   1.248  0.0542 -0.1313  0.6011
14409TIP3   OH264641   5.204   0.713  10.755  0.4513 -0.2311  0.4833
14409TIP3    H164642   5.142   0.780  10.784  0.4411 -0.1321  0.2304
14409TIP3    H264643   5.196   0.712  10.660  0.4011 -0.6384  0.4908
14410TIP3   OH264644   5.922   3.751  15.986  0.2784  0.4455  0.8980
14410TIP3    H164645   5.917   3.722  15.895 -0.3757 -1.3385  1.4549
14410TIP3    H264646   5.951   3.842  15.981 -0.5597  0.6498 -1.1287
14411TIP3   OH264647   6.609   1.161  12.731 -0.1371 -0.1151 -0.1041
14411TIP3    H164648   6.625   1.250  12.701 -0.2812  0.2287  0.8035
14411TIP3    H264649   6.645   1.158  12.820 -1.1738 -0.6090  0.3234
14412TIP3   OH264650   6.676   2.534  15.649  0.2084 -0.3237 -0.2072
14412TIP3    H164651   6.664   2.523  15.743  0.1568 -0.3013 -0.2109
14412TIP3    H264652   6.615   2.471  15.610 -0.3636  0.2431 -0.2356
14413TIP3   OH264653   5.612   5.739   1.945 -0.1069  0.1927  0.4026
14413TIP3    H164654   5.525   5.778   1.939 -0.2839 -0.0764  1.0661
14413TIP3    H264655   5.636   5.717   1.855 -1.1058 -0.5527  0.3094
14414TIP3   OH264656   4.650   4.246   0.852 -0.3034  0.5250 -0.3368
14414TIP3    H164657   4.680   4.164   0.892 -0.2691  1.5767  1.9097
14414TIP3    H264658   4.617   4.219   0.766  1.0048 -1.6200 -0.2455
14415TIP3   OH264659   0.049   6.030   3.749 -0.2035  0.4067  0.3943
14415TIP3    H164660   0.051   6.115   3.794  0.1947  0.6100  0.0050
14415TIP3    H264661   0.038   5.966   3.820  1.8809  0.6100  0.9874
14416TIP3   OH264662   4.455   6.267   3.508  0.1730 -0.0601  0.2792
14416TIP3    H164663   4.444   6.348   3.460  1.5610 -0.8782 -1.5166
14416TIP3    H264664   4.366   6.242   3.534 -0.6164  0.5303 -1.7106
14417TIP3   OH264665   5.898   6.451  12.203 -0.1163  0.3528 -0.0351
14417TIP3    H164666   5.875   6.525  12.147 -0.4797 -0.5546 -1.1441
14417TIP3    H264667   5.849   6.377  12.166  0.7497 -0.5838  0.6194
14418TIP3   OH264668   2.020   4.150   1.999  0.3871  0.2382 -0.1345
14418TIP3    H164669   1.945   4.105   2.036 -1.4370  1.9606 -1.5435
14418TIP3    H264670   1.991   4.240   1.985  1.9706  0.4702 -2.6773
14419TIP3   OH264671   5.627   5.207  14.479  0.5260  0.4177  0.0248
14419TIP3    H164672   5.637   5.301  14.489 -0.1880  0.4146  0.8427
14419TIP3    H264673   5.615   5.174  14.568  0.7712 -0.4505 -0.2467
14420TIP3   OH264674   3.583   2.219   5.323  0.0487  0.0538 -0.4994
14420TIP3    H164675   3.664   2.239   5.276  0.7324 -0.8104  0.2439
14420TIP3    H264676   3.520   2.197   5.255  0.4943  0.5477 -1.0855
14421TIP3   OH264677   2.605   6.450  13.072 -0.0411 -0.3278 -0.3721
14421TIP3    H164678   2.692   6.418  13.097  0.0930  0.1935 -0.1554
14421TIP3    H264679   2.561   6.469  13.154 -0.1491 -0.0428 -0.4942
14422TIP3   OH264680   3.626   3.545  13.425  0.5095 -0.0444  1.1180
14422TIP3    H164681   3.533   3.544  13.447  0.6540  0.8119  1.8045
14422TIP3    H264682   3.629   3.529  13.330 -0.2004 -2.2965  1.4230
14423TIP3   OH264683   6.002   5.496   5.440 -0.9352 -0.4306  0.3024
14423TIP3    H164684   6.073   5.556   5.415 -1.1905 -0.4848 -0.6041
14423TIP3    H264685   5.974   5.525   5.526  1.1328 -1.2771  1.3275
14424TIP3   OH264686   3.065   2.965   0.250  0.0538 -0.3155 -0.1794
14424TIP3    H164687   3.107   2.908   0.314 -0.8830  0.0428  0.7853
14424TIP3    H264688   2.978   2.981   0.285  0.0910  1.2597 -0.6893
14425TIP3   OH264689   0.082   4.387  11.245 -0.4133  0.1957  0.1189
14425TIP3    H164690   0.078   4.473  11.204 -1.5713  0.1789  0.1686
14425TIP3    H264691   0.173   4.378  11.272  0.5999 -0.0801 -3.0454
14426TIP3   OH264692   5.427   5.616  12.185 -0.4976 -0.2975  0.0942
14426TIP3    H164693   5.342   5.623  12.228  0.3029  0.6294  1.6024
14426TIP3    H264694   5.464   5.704  12.189 -0.1659 -0.2596 -2.1328
14427TIP3   OH264695   4.671   5.575   1.607  0.1228  0.6664  0.2039
14427TIP3    H164696   4.635   5.623   1.533 -0.2575  1.7797  1.0779
14427TIP3    H264697   4.596   5.536   1.650  0.3087  0.2668  0.1663
14428TIP3   OH264698   1.898   2.989  15.993 -0.4495 -0.4342  0.5895
14428TIP3    H164699   1.854   3.065  15.953  0.9983  0.2908  0.2890
14428TIP3    H264700   1.829   2.923  16.002 -1.4274  0.3862 -0.5312
14429TIP3   OH264701   0.785   4.022  13.327 -0.2922 -0.5870  0.0059
14429TIP3    H164702   0.761   4.114  13.316 -1.0478 -0.6679  0.9022
14429TIP3    H264703   0.709   3.973  13.292 -0.2622 -0.8630  0.3265
14430TIP3   OH264704   5.962   1.273  13.595 -0.4919 -0.2378  0.1806
14430TIP3    H164705   5.996   1.301  13.509  0.3274  0.6003  0.7563
14430TIP3    H264706   5.889   1.215  13.574  0.3571 -0.8943 -1.1011
14431TIP3   OH264707   1.509   1.884   6.194 -0.2156  0.2907 -0.2012
14431TIP3    H164708   1.470   1.798   6.180 -2.5583  1.1109  0.7411
14431TIP3    H264709   1.486   1.906   6.285  2.9160  0.6998  0.6262
14432TIP3   OH264710   3.847   5.982  10.876  0.2723  0.6867  0.7080
14432TIP3    H164711   3.785   5.910  10.868  1.5426 -0.2759 -1.0472
14432TIP3    H264712   3.792   6.060  10.878 -1.0386 -0.1740 -0.0500
14433TIP3   OH264713   4.053   5.700  12.612 -0.4792  0.0250 -0.1948
14433TIP3    H164714   3.989   5.771  12.604 -1.3919 -0.8471 -0.9054
14433TIP3    H264715   4.000   5.620  12.617  0.5304 -0.6302  0.3247
14434TIP3   OH264716   3.234   1.400   2.660 -0.0363  1.0416 -0.4170
14434TIP3    H164717   3.213   1.369   2.572 -0.6835  2.0097 -0.6139
14434TIP3    H264718   3.327   1.421   2.656  0.5056 -1.0651 -0.2029
14435TIP3   OH264719   0.995   4.101   3.453 -0.2580  0.2876  0.0845
14435TIP3    H164720   1.012   4.022   3.504  2.2824 -0.1096 -1.2454
14435TIP3    H264721   1.082   4.135   3.431 -1.2569  1.4515 -2.4132
14436TIP3   OH264722   3.220   5.886  14.313  0.2200  0.1362 -0.3145
14436TIP3    H164723   3.163   5.963  14.313  0.3316  0.2193 -0.3553
14436TIP3    H264724   3.307   5.921  14.334  0.2415  0.0007 -0.1761
14437TIP3   OH264725   6.710   1.334  13.869 -0.7782  0.0384  0.2514
14437TIP3    H164726   6.679   1.407  13.923 -2.2741 -0.5359  0.2195
14437TIP3    H264727   6.664   1.344  13.785  1.5355  0.9348 -0.9836
14438TIP3   OH264728   2.926   6.278   4.121  0.2165 -0.3762 -0.2489
14438TIP3    H164729   2.887   6.343   4.062 -1.3662  0.9766  2.1235
14438TIP3    H264730   2.923   6.196   4.071  0.2449  0.9205 -2.5312
14439TIP3   OH264731   5.551   1.740   3.781 -0.4780  1.0529  0.1680
14439TIP3    H164732   5.615   1.807   3.807  0.3591 -0.2095  1.4796
14439TIP3    H264733   5.523   1.767   3.694  2.6580  1.0811 -0.9674
14440TIP3   OH264734   2.120   3.102   0.249  0.2293 -0.3114 -0.2888
14440TIP3    H164735   2.150   3.190   0.271  2.0865 -0.9417 -0.1763
14440TIP3    H264736   2.085   3.110   0.160 -0.1551  0.6400 -0.0618
14441TIP3   OH264737   3.842   1.830  13.964  0.0410 -0.5535 -0.5712
14441TIP3    H164738   3.874   1.750  14.006 -0.7355 -0.5087  0.1183
14441TIP3    H264739   3.764   1.802  13.916 -1.9128  0.2371  1.9177
14442TIP3   OH264740   0.056   4.200  14.067 -0.3916 -0.5630  0.0364
14442TIP3    H164741   0.056   4.268  13.999 -1.3189 -2.1062 -1.5933
14442TIP3    H264742  -0.006   4.135  14.036 -1.8712 -0.7514  3.0442
14443TIP3   OH264743   5.999   2.144  11.772  0.1688  0.4513 -0.6697
14443TIP3    H164744   5.939   2.094  11.827 -0.3559  1.8768  0.1052
14443TIP3    H264745   6.071   2.084  11.755 -1.1302 -1.0928 -1.0761
14444TIP3   OH264746   3.220   2.174   2.395 -0.4544  0.3227 -0.2534
14444TIP3    H164747   3.219   2.221   2.478  0.9708 -0.0315 -0.0015
14444TIP3    H264748   3.256   2.237   2.332  2.0130 -0.5172  0.2032
14445TIP3   OH264749   1.516   2.688   4.376  0.1880  0.1391  0.0862
14445TIP3    H164750   1.509   2.757   4.310  0.9631 -0.2212 -0.3892
14445TIP3    H264751   1.598   2.707   4.422  0.5622 -0.6232 -0.2484
14446TIP3   OH264752   6.458   6.331  12.532  0.2133  0.0115 -0.0680
14446TIP3    H164753   6.500   6.298  12.611  0.5186 -0.7366 -0.5227
14446TIP3    H264754   6.439   6.252  12.481  1.2629  0.5391 -1.3487
14447TIP3   OH264755   0.642   6.313   4.266  0.2061 -0.2753 -0.9273
14447TIP3    H164756   0.594   6.318   4.184  0.8667 -1.1109 -1.3770
14447TIP3    H264757   0.600   6.241   4.313  1.4470 -1.4783 -1.6223
14448TIP3   OH264758   5.553   2.316  15.599  0.1114  0.4397  0.1465
14448TIP3    H164759   5.485   2.359  15.547  1.3978  1.0753 -1.0722
14448TIP3    H264760   5.550   2.361  15.683 -0.4918  0.9524 -0.1371
14449TIP3   OH264761   5.771   1.895   5.591 -0.0195  0.2976  0.0637
14449TIP3    H164762   5.844   1.844   5.555 -1.1540 -0.5285 -1.1614
14449TIP3    H264763   5.736   1.840   5.661 -0.3915 -0.0000 -0.3503
14450TIP3   OH264764   6.341   5.555  16.962 -0.1985 -0.0337 -1.3028
14450TIP3    H164765   6.311   5.488  16.900  1.0873 -0.8444 -1.0969
14450TIP3    H264766   6.336   5.512  17.047 -1.4674  0.9024 -0.8760
14451TIP3   OH264767   2.332   0.648   5.106 -0.2101  0.1095 -0.8629
14451TIP3    H164768   2.274   0.609   5.041 -0.9550 -1.2596  0.5443
14451TIP3    H264769   2.372   0.722   5.061 -2.4751  0.6601 -2.1358
14452TIP3   OH264770   3.727   0.791   6.363 -0.1774  0.1565  0.1199
14452TIP3    H164771   3.684   0.787   6.449  0.9046 -0.2773  0.6613
14452TIP3    H264772   3.747   0.883   6.350 -0.7932  0.2912  0.1004
14453TIP3   OH264773   1.993   5.713   1.188 -0.3287  0.4986  0.2318
14453TIP3    H164774   2.032   5.771   1.253  0.9325  0.4325 -0.4342
14453TIP3    H264775   2.041   5.631   1.197 -2.1486 -0.5173  1.2220
14454TIP3   OH264776   0.845   1.704   4.923  0.3039  0.4188  0.6715
14454TIP3    H164777   0.815   1.794   4.939  3.2467  1.5317  0.4248
14454TIP3    H264778   0.793   1.676   4.847 -1.0837  1.6719  1.0916
14455TIP3   OH264779   2.884   3.570  15.386 -0.0056  0.0634 -0.3257
14455TIP3    H164780   2.807   3.607  15.342  0.1361  1.6307  0.6541
14455TIP3    H264781   2.863   3.576  15.479  1.2660  0.4699 -0.0434
14456TIP3   OH264782   4.046   3.612  17.143 -0.1019  0.2999  0.0197
14456TIP3    H164783   3.970   3.599  17.085  0.6764  0.2176 -1.0117
14456TIP3    H264784   4.023   3.689  17.194 -0.8827  0.2867 -0.2869
14457TIP3   OH264785   4.617   4.984   4.420  0.4845 -0.2109 -0.0076
14457TIP3    H164786   4.615   5.054   4.355  1.7382 -1.1079 -1.0660
14457TIP3    H264787   4.651   5.025   4.500  0.0604  0.6392 -0.2563
14458TIP3   OH264788   2.577   4.321   0.883  0.1214  0.5849  0.0924
14458TIP3    H164789   2.540   4.409   0.877  0.1447  0.6664  1.0370
14458TIP3    H264790   2.503   4.266   0.907 -0.2483  0.0546 -2.0362
14459TIP3   OH264791   2.097   5.926  14.267  0.0244  0.2575  0.1028
14459TIP3    H164792   2.028   5.867  14.297 -0.3936  0.4935 -0.3867
14459TIP3    H264793   2.074   6.011  14.304 -0.0564  0.3781 -0.2219
14460TIP3   OH264794   5.341   6.098  12.220 -0.6147  0.3441 -0.4004
14460TIP3    H164795   5.251   6.091  12.188  0.2770 -0.1007 -3.0094
14460TIP3    H264796   5.380   6.167  12.166  1.1205 -0.7476 -0.5967
14461TIP3   OH264797   2.730   6.561  11.491 -0.2576 -0.1190 -0.1272
14461TIP3    H164798   2.762   6.490  11.546 -1.9457  0.2869  1.4935
14461TIP3    H264799   2.667   6.520  11.432  1.5994 -0.5663 -1.9430
14462TIP3   OH264800   5.873   4.441   4.177  0.0502  0.3789 -0.1740
14462TIP3    H164801   5.838   4.415   4.262 -2.0754  0.9489 -0.8112
14462TIP3    H264802   5.804   4.419   4.115  1.8060 -0.6130 -1.8713
14463TIP3   OH264803   0.185   1.062   1.369  0.0272 -0.1924 -0.1719
14463TIP3    H164804   0.097   1.088   1.344  0.1830 -1.0519 -1.7167
14463TIP3    H264805   0.236   1.142   1.365 -0.8439  0.5087  1.6741
14464TIP3   OH264806   1.421   0.497  11.948  0.4594  0.1080 -0.2573
14464TIP3    H164807   1.415   0.462  11.859 -0.3208 -1.1573  0.2645
14464TIP3    H264808   1.465   0.581  11.938  0.8360 -0.2416 -1.7807
14465TIP3   OH264809   3.156   0.588  14.835  0.5247 -0.7846  0.6500
14465TIP3    H164810   3.221   0.579  14.765 -0.0559 -0.8908  0.1256
14465TIP3    H264811   3.115   0.502  14.841  0.1442 -0.6004  0.7019
14466TIP3   OH264812   5.167   2.279  12.864  0.0167  0.4444  0.1862
14466TIP3    H164813   5.134   2.308  12.779 -1.9020 -0.6227  0.5063
14466TIP3    H264814   5.198   2.190  12.848  1.9441  1.1001  0.1077
14467TIP3   OH264815   1.725   4.101   0.169  0.6150 -0.3092  0.7742
14467TIP3    H164816   1.720   4.050   0.088 -0.5434  0.7458  0.1341
14467TIP3    H264817   1.794   4.166   0.153 -0.0551  0.3157  0.3582
14468TIP3   OH264818   5.940   5.469  13.008 -0.3222  0.4630  0.5767
14468TIP3    H164819   5.850   5.501  13.008 -0.6164 -0.3125 -0.5558
14468TIP3    H264820   5.934   5.379  13.041  0.4761  1.3758  3.5525
14469TIP3   OH264821   2.379   2.272   0.563  0.3828 -0.1941 -0.2828
14469TIP3    H164822   2.316   2.334   0.526  2.3499  1.6084 -0.7606
14469TIP3    H264823   2.351   2.263   0.654 -0.8259  0.1854 -0.5841
14470TIP3   OH264824   0.880   2.790   2.075 -0.3794  0.3483 -0.5922
14470TIP3    H164825   0.908   2.859   2.015 -1.7350  1.4482 -0.0337
14470TIP3    H264826   0.931   2.804   2.154 -0.1099  0.2394 -0.7483
14471TIP3   OH264827   4.352   2.671  13.564 -0.3889  0.2171  0.5782
14471TIP3    H164828   4.394   2.713  13.640  2.4627 -3.0053  1.0499
14471TIP3    H264829   4.317   2.589  13.599 -1.1541 -0.2317 -1.1571
14472TIP3   OH264830   0.927   0.585  16.712  0.1237  0.0188 -0.1009
14472TIP3    H164831   1.012   0.574  16.669 -0.1586 -0.5496 -0.5276
14472TIP3    H264832   0.865   0.539  16.654 -0.2820 -0.6616  0.8499
14473TIP3   OH264833   1.619   2.927  15.838 -0.1593 -0.1838  0.2323
14473TIP3    H164834   1.630   3.011  15.794  0.9809  0.4304  1.5907
14473TIP3    H264835   1.636   2.861  15.771  1.3969  0.7077 -0.2945
14474TIP3   OH264836   5.588   4.698  15.000 -0.4560  0.0535 -0.3589
14474TIP3    H164837   5.641   4.653  15.066 -3.3557 -0.0576  2.1108
14474TIP3    H264838   5.522   4.633  14.975  1.2015 -0.3264 -4.4279
14475TIP3   OH264839   2.122   0.367  14.990  0.1982 -0.0705  0.2031
14475TIP3    H164840   2.079   0.436  15.040  0.5793  0.7819 -0.6121
14475TIP3    H264841   2.060   0.346  14.919  0.6288  0.3482 -0.3017
14476TIP3   OH264842   0.626   2.702  11.969 -0.4738  0.0705  0.1034
14476TIP3    H164843   0.678   2.622  11.959 -1.8501 -0.9430  0.7921
14476TIP3    H264844   0.562   2.699  11.898 -2.1685 -0.7685  1.6147
14477TIP3   OH264845   3.220   2.026  13.562 -0.1672  0.0984 -0.6875
14477TIP3    H164846   3.138   2.070  13.536  0.1876  0.1877 -1.7156
14477TIP3    H264847   3.262   2.004  13.479  1.4456  1.1380 -0.1756
14478TIP3   OH264848   0.647   3.820   3.584  0.0463 -0.2629 -0.2708
14478TIP3    H164849   0.674   3.872   3.659 -0.2422  0.4398 -0.6368
14478TIP3    H264850   0.605   3.743   3.622  0.0025  0.0310  0.2923
14479TIP3   OH264851   0.963   4.760   1.716  0.4658 -0.0691  0.4502
14479TIP3    H164852   0.899   4.814   1.762  0.9031  1.1912 -0.3447
14479TIP3    H264853   1.042   4.765   1.770  0.1640 -0.9016  0.9807
14480TIP3   OH264854   1.439   3.606   4.802  0.1499  0.4145  0.2560
14480TIP3    H164855   1.425   3.570   4.890 -0.5967  1.0328  0.4090
14480TIP3    H264856   1.445   3.701   4.816  2.5797  0.3676 -0.0732
14481TIP3   OH264857   1.311   5.317   0.965  0.4604 -0.4195 -0.2543
14481TIP3    H164858   1.224   5.278   0.972 -0.1432  1.0823  1.0777
14481TIP3    H264859   1.296   5.403   0.925  0.7282  1.4638  3.2989
14482TIP3   OH264860   1.137   1.268   3.537 -0.3614 -0.7598 -0.5419
14482TIP3    H164861   1.190   1.201   3.580  0.5928  0.5530  0.4429
14482TIP3    H264862   1.150   1.253   3.444  0.5649 -1.3893 -0.3249
14483TIP3   OH264863   5.825   5.838  10.607 -0.6932  0.0734  0.0448
14483TIP3    H164864   5.884   5.767  10.629  0.8244  0.5651 -2.1006
14483TIP3    H264865   5.882   5.911  10.584 -2.1835  1.3890  0.3207
14484TIP3   OH264866   2.912   6.449   4.517 -0.3817 -0.4165 -0.2349
14484TIP3    H164867   2.969   6.497   4.578 -0.9530  0.5328 -0.4263
14484TIP3    H264868   2.897   6.365   4.560 -1.3459  0.4880  1.3136
14485TIP3   OH264869   3.758   6.778  17.170 -0.2521 -0.5514 -0.0360
14485TIP3    H164870   3.802   6.817  17.094  1.5493  1.7252  1.9846
14485TIP3    H264871   3.790   6.688  17.173 -0.8488 -0.8967 -2.2442
14486TIP3   OH264872   5.637   2.154   2.817  0.0164 -0.3859 -0.6756
14486TIP3    H164873   5.643   2.059   2.831 -0.1420 -0.5303 -1.5300
14486TIP3    H264874   5.721   2.177   2.777  0.2270 -0.0825 -0.0783
14487TIP3   OH264875   3.780   6.264   1.534 -0.2129 -0.0856 -0.1611
14487TIP3    H164876   3.851   6.281   1.472 -0.0796 -0.2375 -0.0509
14487TIP3    H264877   3.757   6.350   1.569 -0.0111 -0.0491 -0.1170
14488TIP3   OH264878   0.792   2.488   2.329 -0.4961  0.1580  0.2746
14488TIP3    H164879   0.846   2.409   2.324 -0.4215  0.1023  1.7225
14488TIP3    H264880   0.781   2.514   2.237  2.0997  0.2486 -0.1080
14489TIP3   OH264881   6.602   2.374  12.803 -0.3301  0.0576  0.7080
14489TIP3    H164882   6.522   2.391  12.852 -0.2662 -0.2865  0.9359
14489TIP3    H264883   6.577   2.381  12.711 -0.5613  0.2061  0.7823
14490TIP3   OH264884   2.144   0.052   3.503 -0.1313 -0.2786 -0.4098
14490TIP3    H164885   2.140   0.140   3.467 -0.3219  0.0940  0.4820
14490TIP3    H264886   2.138  -0.006   3.427  3.5885  0.4173 -1.4205
14491TIP3   OH264887   4.813   0.340   4.112 -0.1584  0.3993 -0.4874
14491TIP3    H164888   4.892   0.370   4.156  0.7397  0.2022 -1.9144
14491TIP3    H264889   4.749   0.329   4.183  0.8379  1.3047  0.5934
14492TIP3   OH264890   0.107   4.809  13.369  0.6058  0.1528  0.5458
14492TIP3    H164891   0.151   4.741  13.318 -0.9808 -0.5677  0.0591
14492TIP3    H264892   0.026   4.826  13.321 -2.7342 -2.9484  4.3013
14493TIP3   OH264893   0.620   5.076  12.449  0.0707 -0.1216 -0.6400
14493TIP3    H164894   0.642   4.985  12.427 -0.0887  0.0754 -1.6655
14493TIP3    H264895   0.543   5.096  12.396 -3.1647 -0.9626  3.1899
14494TIP3   OH264896   1.467   0.328  16.666 -0.6097 -0.3191  0.1112
14494TIP3    H164897   1.491   0.290  16.750 -0.1915 -0.9958 -0.3012
14494TIP3    H264898   1.508   0.414  16.665 -1.4246  0.0920  0.9963
14495TIP3   OH264899   6.153   2.454  16.512 -0.8760 -0.0427 -0.2931
14495TIP3    H164900   6.170   2.361  16.528 -0.9704 -0.2751 -1.4620
14495TIP3    H264901   6.068   2.456  16.468 -0.2861  0.4693 -1.4753
14496TIP3   OH264902   1.350   4.382   2.832  0.1580  0.7146  0.0816
14496TIP3    H164903   1.369   4.411   2.742  0.9642  0.6475  0.2245
14496TIP3    H264904   1.429   4.335   2.859 -0.2786  0.3075  0.6495
14497TIP3   OH264905   6.411   5.007  11.706  0.0715 -0.0617 -0.2646
14497TIP3    H164906   6.316   5.017  11.705  0.1448  0.6804 -0.3554
14497TIP3    H264907   6.428   4.935  11.645 -0.5363 -1.3013  0.9856
14498TIP3   OH264908   0.983   3.160  11.667  0.6059 -0.0106  0.2251
14498TIP3    H164909   1.003   3.251  11.689  0.3726 -0.2084  1.3460
14498TIP3    H264910   0.957   3.121  11.750 -0.1030 -0.8935 -0.3931
14499TIP3   OH264911   2.329   4.557   0.222 -0.7967  0.0958  0.0206
14499TIP3    H164912   2.331   4.478   0.276 -0.8885  0.6941  0.9173
14499TIP3    H264913   2.417   4.562   0.184 -0.4900  0.0637  0.7074
14500TIP3   OH264914   0.511   4.074   5.684  0.0677  0.2714  0.0040
14500TIP3    H164915   0.547   4.027   5.759  0.0440  0.2526  0.0034
14500TIP3    H264916   0.519   4.167   5.708 -1.8949  0.2534  0.9663
14501TIP3   OH264917   1.543   5.276   4.321  0.6442  0.7440 -0.2309
14501TIP3    H164918   1.474   5.342   4.324 -1.1248 -1.0062 -0.2218
14501TIP3    H264919   1.530   5.225   4.401  2.0352  0.4403 -0.1815
14502TIP3   OH264920   1.957   3.036   3.213 -0.5341 -0.4993 -0.0589
14502TIP3    H164921   1.959   2.997   3.300  0.6028 -1.5887 -0.5494
14502TIP3    H264922   1.980   2.965   3.154  2.1401  0.9556 -0.9501
14503TIP3   OH264923   4.153   4.205   2.637  0.1797  0.2144 -0.2048
14503TIP3    H164924   4.222   4.229   2.699  0.7301 -0.2090 -0.6447
14503TIP3    H264925   4.186   4.127   2.592 -1.4598 -1.2637  1.0061
14504TIP3   OH264926   5.630   0.004   4.274 -0.7020 -0.3509 -1.0089
14504TIP3    H164927   5.668  -0.075   4.311 -2.0351 -0.7498 -0.4350
14504TIP3    H264928   5.593  -0.024   4.190 -1.1384 -0.3377 -0.8240
14505TIP3   OH264929   0.397   0.030   2.853  0.2868 -0.4639  0.4403
14505TIP3    H164930   0.468   0.058   2.911 -0.4608  1.1249  0.6504
14505TIP3    H264931   0.318   0.064   2.894 -0.6984 -2.5887  0.4525
14506TIP3   OH264932   2.915   5.005   1.770 -0.0907 -0.4748  0.2314
14506TIP3    H164933   2.955   5.084   1.734  0.0023 -0.9606 -0.7509
14506TIP3    H264934   2.849   5.038   1.831  0.4186  0.3477  0.3637
14507TIP3   OH264935   0.448   2.772  13.567  0.0622 -0.0663 -0.4731
14507TIP3    H164936   0.460   2.758  13.473  0.6907 -1.3150 -0.2250
14507TIP3    H264937   0.382   2.707  13.592  1.1069 -0.8707  0.2391
14508TIP3   OH264938   3.483   3.187   4.289  0.2732  0.0903 -0.3627
14508TIP3    H164939   3.548   3.257   4.278 -0.4226  0.6674 -0.9605
14508TIP3    H264940   3.481   3.144   4.203 -0.8533  0.7338 -0.6778
14509TIP3   OH264941   0.989   5.747  12.057  0.0956  0.3756 -0.1841
14509TIP3    H164942   0.899   5.741  12.025 -0.1155  0.3200  0.3993
14509TIP3    H264943   1.017   5.835  12.032  0.3282 -0.0429 -1.4743
14510TIP3   OH264944   2.780   1.117   5.929  0.1296 -0.6584 -0.1942
14510TIP3    H164945   2.822   1.166   5.999 -0.0727 -1.4916  0.5214
14510TIP3    H264946   2.846   1.111   5.860  0.6498 -0.6351  0.3015
14511TIP3   OH264947   6.059   0.162  13.774  0.5548  0.6020  0.1031
14511TIP3    H164948   6.135   0.203  13.732  0.4289  1.2833  0.5137
14511TIP3    H264949   5.985   0.218  13.749  0.2476  0.1692  0.0295
14512TIP3   OH264950   1.303   2.181   2.210  0.1095  0.1878 -0.0241
14512TIP3    H164951   1.251   2.176   2.129  0.8885 -2.2751 -0.4310
14512TIP3    H264952   1.373   2.243   2.190 -1.0100  1.3835 -0.4088
14513TIP3   OH264953   4.800   3.903  12.006  0.9545 -0.2638  0.7478
14513TIP3    H164954   4.850   3.830  12.042 -0.0858 -1.8750 -0.9480
14513TIP3    H264955   4.853   3.934  11.932 -0.2778 -1.7060 -0.7947
14514TIP3   OH264956   2.944   5.039  16.745  0.1939  0.3198  0.2473
14514TIP3    H164957   2.950   5.078  16.832  0.4533  0.2638  0.2556
14514TIP3    H264958   2.965   4.947  16.759 -1.1117  0.0164  0.3431
14515TIP3   OH264959   0.468   4.936   3.388 -0.0470 -0.5364  0.4145
14515TIP3    H164960   0.548   4.893   3.419  0.1214 -0.9714 -0.5679
14515TIP3    H264961   0.401   4.910   3.450  0.5137 -0.4045  1.0905
14516TIP3   OH264962   1.911   0.278   1.197 -0.2098  0.0026  0.1650
14516TIP3    H164963   1.854   0.344   1.157 -1.0686 -0.6346  0.3140
14516TIP3    H264964   1.900   0.290   1.291  0.3971  0.2848  0.2076
14517TIP3   OH264965   4.572   2.265   0.622 -0.4068 -0.0368  0.3762
14517TIP3    H164966   4.576   2.360   0.621  0.6555 -0.0613  0.8696
14517TIP3    H264967   4.644   2.238   0.565  0.1013 -0.5396  1.2296
14518TIP3   OH264968   6.220   6.048  16.998  0.4290  0.5063 -0.4066
14518TIP3    H164969   6.241   5.996  16.921  0.4311 -1.2104  0.6945
14518TIP3    H264970   6.278   6.124  16.993  1.1591 -0.1034 -1.5443
14519TIP3   OH264971   1.784   2.654   0.098 -0.0519  0.4933 -0.0228
14519TIP3    H164972   1.761   2.740   0.063  0.6156  0.1608 -1.3005
14519TIP3    H264973   1.759   2.592   0.030 -1.3595 -0.4398  1.2327
14520TIP3   OH264974   2.843   0.768  15.229  0.1837  0.0303 -0.6758
14520TIP3    H164975   2.828   0.683  15.186 -1.8409 -0.0056 -0.0204
14520TIP3    H264976   2.797   0.760  15.312 -0.2902  1.8778 -0.7275
14521TIP3   OH264977   4.609   4.341   4.965  0.9828 -0.3216 -0.1631
14521TIP3    H164978   4.660   4.422   4.959  0.2136  0.6512  3.6062
14521TIP3    H264979   4.661   4.284   5.021 -0.2752 -0.8295  0.5333
14522TIP3   OH264980   6.369   2.992  12.931 -0.2606  0.5955  0.0202
14522TIP3    H164981   6.291   3.006  12.878 -0.4422 -0.0249  0.1215
14522TIP3    H264982   6.405   3.080  12.943 -0.5055  0.8022 -0.6831
14523TIP3   OH264983   0.961   2.580  17.137  0.4598  0.1443 -0.4593
14523TIP3    H164984   0.928   2.540  17.057  1.5453  1.9743 -1.9147
14523TIP3    H264985   0.948   2.674  17.124  0.9015  0.5065  1.4138
14524TIP3   OH264986   5.739   2.135   2.067 -0.0884 -0.3299 -0.1912
14524TIP3    H164987   5.822   2.134   2.114  0.0748  2.0088 -0.2910
14524TIP3    H264988   5.673   2.123   2.135  0.2058  1.7292  0.5280
14525TIP3   OH264989   5.312   4.915  11.887 -0.2147  0.0619  0.9103
14525TIP3    H164990   5.227   4.902  11.930 -0.8000  1.7026  0.3457
14525TIP3    H264991   5.302   4.873  11.802 -1.1692  1.7920  0.1066
14526TIP3   OH264992   4.198   0.646   3.398  0.1729  0.3968 -0.0307
14526TIP3    H164993   4.176   0.561   3.360  1.0061  0.0848  0.1662
14526TIP3    H264994   4.169   0.709   3.332 -0.4855 -0.0349 -0.1621
14527TIP3   OH264995   3.222   5.930  10.701 -0.0931  0.0704  0.2651
14527TIP3    H164996   3.246   5.993  10.633 -0.6615 -0.5922 -0.5671
14527TIP3    H264997   3.132   5.905  10.680  0.3666 -1.5886  0.1182
14528TIP3   OH264998   6.161   6.684   0.573 -0.3170 -0.3496 -0.0686
14528TIP3    H164999   6.232   6.629   0.606 -0.1976  0.3879  0.9120
14528TIP3    H265000   6.177   6.770   0.610 -0.1687  0.5360 -2.0648
14529TIP3   OH265001   1.919   6.782   1.521 -0.5980 -0.2331  0.0295
14529TIP3    H165002   1.847   6.742   1.472 -1.9057 -0.3803  1.9440
14529TIP3    H265003   1.894   6.772   1.613  0.1685  2.8925  0.6907
14530TIP3   OH265004   1.142   2.053  11.805  0.1494  0.4139  0.0168
14530TIP3    H165005   1.141   1.957  11.803  0.3831  0.3240  2.0672
14530TIP3    H265006   1.227   2.077  11.768  1.0958 -0.3076  1.6160
14531TIP3   OH265007   5.685   3.144   2.310  0.3959 -0.4449  0.2184
14531TIP3    H165008   5.757   3.195   2.347  0.3502 -0.3879  0.2305
14531TIP3    H265009   5.655   3.197   2.236  2.7850 -2.1654 -2.2017
14532TIP3   OH265010   1.247   6.226   6.320 -0.2116  0.2172 -0.2553
14532TIP3    H165011   1.276   6.216   6.411  1.2311 -0.7518 -0.7751
14532TIP3    H265012   1.292   6.304   6.289 -1.1176  0.8539 -0.0084
14533TIP3   OH265013   1.434   0.114  14.661 -0.6908  0.0296  0.7688
14533TIP3    H165014   1.405   0.053  14.729 -0.6000 -0.5900  0.2618
14533TIP3    H265015   1.525   0.134  14.684  0.0240 -1.7778 -0.2615
14534TIP3   OH265016   6.461   6.245   3.955  0.6401 -0.1115 -0.2611
14534TIP3    H165017   6.395   6.260   4.023 -0.0966  1.1453 -1.2116
14534TIP3    H265018   6.535   6.207   4.001 -1.1758 -2.7814  0.6690
14535TIP3   OH265019   6.068   2.196  11.104 -0.4196 -0.4884 -0.1557
14535TIP3    H165020   5.982   2.231  11.128 -0.8944 -2.8777  2.0168
14535TIP3    H265021   6.064   2.104  11.129  2.8802 -0.6254  0.2021
14536TIP3   OH265022   3.327   4.321  13.240  0.1133 -0.0340 -0.2002
14536TIP3    H165023   3.293   4.273  13.315 -1.4808  1.5924  0.1917
14536TIP3    H265024   3.393   4.264  13.202  0.4220 -1.2070  1.9949
14537TIP3   OH265025   0.318   4.542  16.885 -0.1800  0.1636  0.3407
14537TIP3    H165026   0.412   4.551  16.898  0.0973 -0.3202 -1.1220
14537TIP3    H265027   0.299   4.450  16.908 -0.1351  0.0193 -0.1874
14538TIP3   OH265028   2.581   4.400   4.245  0.9618  0.8399 -0.5969
14538TIP3    H165029   2.517   4.329   4.244  2.3079 -0.4405 -2.1768
14538TIP3    H265030   2.568   4.446   4.163  1.8842  0.7042 -0.8371
14539TIP3   OH265031   2.437   4.303  11.770  0.7181 -0.0698 -0.3091
14539TIP3    H165032   2.385   4.232  11.808  0.1866  1.0733  1.1645
14539TIP3    H265033   2.525   4.288  11.803  0.3379  0.6898  1.1036
14540TIP3   OH265034   1.629   0.030   3.307  0.2779 -0.2699  0.0629
14540TIP3    H165035   1.690   0.056   3.375  0.9725 -0.0033 -0.6442
14540TIP3    H265036   1.667   0.064   3.226 -1.0870  0.4032 -0.3341
14541TIP3   OH265037   3.805   3.548  11.023  0.3048  0.0424 -0.5622
14541TIP3    H165038   3.838   3.492  10.953 -0.9710  1.5387 -2.4777
14541TIP3    H265039   3.717   3.514  11.041  0.1165  0.4588 -0.6631
14542TIP3   OH265040   5.417   5.961  17.189  0.1328  0.2145  0.5105
14542TIP3    H165041   5.408   5.870  17.215  0.2082  0.0157 -0.1400
14542TIP3    H265042   5.451   6.006  17.267  1.1952 -0.5198  0.4910
14543TIP3   OH265043   3.960   5.546   4.639  0.2469 -0.3850 -0.0509
14543TIP3    H165044   4.014   5.616   4.677 -0.9724  0.2148  0.6407
14543TIP3    H265045   3.979   5.469   4.694  0.1264 -0.0861  0.4145
14544TIP3   OH265046   5.346   4.717  12.160  0.7617 -0.2626 -0.4971
14544TIP3    H165047   5.426   4.742  12.114  1.2789  1.1967  1.0736
14544TIP3    H265048   5.377   4.682  12.244 -0.2438  1.0105  0.4363
14545TIP3   OH265049   3.104   6.017  15.299  0.8688  0.6678  0.1593
14545TIP3    H165050   3.020   6.046  15.263  0.6539  0.2372  0.3042
14545TIP3    H265051   3.121   6.078  15.371 -1.4996 -1.7545  3.0411
14546TIP3   OH265052   2.672   4.759   3.049 -0.0357 -0.0517 -0.1429
14546TIP3    H165053   2.602   4.735   3.110 -1.0170  0.0842 -1.1814
14546TIP3    H265054   2.732   4.685   3.051 -0.8463 -0.7160 -0.1507
14547TIP3   OH265055   3.700   0.520   3.108 -0.0538 -0.0335 -0.4014
14547TIP3    H165056   3.661   0.607   3.116 -0.4117 -0.1426 -0.9286
14547TIP3    H265057   3.716   0.493   3.198 -1.5042 -0.1346 -0.1527
14548TIP3   OH265058   1.396   3.100  14.435  0.2640  0.4032 -0.0656
14548TIP3    H165059   1.458   3.172  14.440 -1.5225  1.9550  0.9737
14548TIP3    H265060   1.372   3.095  14.342  2.5875 -0.8920 -0.6794
14549TIP3   OH265061   6.583   5.822  15.388 -0.5800  0.3176 -0.1081
14549TIP3    H165062   6.606   5.870  15.468 -0.0766 -0.2346  0.0891
14549TIP3    H265063   6.665   5.818  15.338 -0.3790 -1.1195  0.3040
14550TIP3   OH265064   6.760   2.195   5.745  0.1751  0.4543  0.1137
14550TIP3    H165065   6.689   2.138   5.774 -0.3210  0.3879 -1.1819
14550TIP3    H265066   6.823   2.135   5.704  0.3720  0.6633  0.1112
14551TIP3   OH265067   2.198   2.844   0.175  0.5289  0.1157  0.0935
14551TIP3    H165068   2.163   2.922   0.219 -0.4914  0.8717 -1.9282
14551TIP3    H265069   2.246   2.879   0.100  0.3577 -1.1889 -0.6545
14552TIP3   OH265070   5.910   0.941  16.992 -0.3343 -0.0588 -0.2645
14552TIP3    H165071   5.876   0.856  17.020 -2.4483  0.3550 -1.3986
14552TIP3    H265072   5.978   0.920  16.928  1.3792 -0.8988  1.7016
14553TIP3   OH265073   5.581   0.271  13.039 -0.0935 -0.0745  0.5251
14553TIP3    H165074   5.521   0.233  13.103 -0.0337  2.6974  2.3688
14553TIP3    H265075   5.668   0.251  13.072  0.0218 -1.3296 -0.4464
14554TIP3   OH265076   6.301   2.124  11.884  0.7398 -0.0850  0.2122
14554TIP3    H165077   6.260   2.037  11.878  0.9333 -0.1276 -0.5672
14554TIP3    H265078   6.368   2.124  11.816 -1.2241  1.7208 -1.9362
14555TIP3   OH265079   3.761   5.775  16.049 -0.1464 -0.3752  0.1814
14555TIP3    H165080   3.839   5.722  16.063 -1.1608 -2.6580 -1.8952
14555TIP3    H265081   3.703   5.753  16.122  1.2933  1.9140  2.1655
14556TIP3   OH265082   3.560   4.057  16.284 -0.5853  0.0112 -0.1631
14556TIP3    H165083   3.539   3.985  16.344 -1.3240 -0.8256 -1.3606
14556TIP3    H265084   3.637   4.099  16.322  0.3730 -1.9300  0.1589
14557TIP3   OH265085   3.220   4.096  14.292  0.1073  0.0407  0.6741
14557TIP3    H165086   3.159   4.064  14.226 -0.6546  1.7828  0.4787
14557TIP3    H265087   3.214   4.032  14.363 -1.1766 -0.3503  0.2410
14558TIP3   OH265088   0.180   0.157   0.415 -0.3922  0.4378 -0.6346
14558TIP3    H165089   0.194   0.152   0.509  0.8479 -0.7319 -0.8510
14558TIP3    H265090   0.237   0.227   0.385  0.7850 -0.5440 -0.7593
14559TIP3   OH265091   5.931   1.489  16.168 -0.5537  0.0150 -0.3243
14559TIP3    H165092   5.967   1.578  16.169 -0.3398 -0.0569 -1.0257
14559TIP3    H265093   5.839   1.502  16.144 -0.9900  0.1899  1.3668
14560TIP3   OH265094   2.564   0.720   5.264  0.8023 -0.2371  0.1258
14560TIP3    H165095   2.550   0.812   5.241  0.0720  0.6888  3.6645
14560TIP3    H265096   2.493   0.673   5.220 -0.7405  1.3863  0.7541
14561TIP3   OH265097   5.249   0.820   0.706 -0.0678 -0.5353 -0.2586
14561TIP3    H165098   5.234   0.734   0.666  0.9116 -0.4009 -0.9382
14561TIP3    H265099   5.342   0.821   0.729 -0.6559 -0.7574  2.4711
14562TIP3   OH265100   1.006   5.885   0.909  0.0770  0.0864  0.1292
14562TIP3    H165101   1.088   5.864   0.954  0.1033  2.2968  1.2374
14562TIP3    H265102   1.008   5.980   0.898 -3.1140  0.4679  1.8262
14563TIP3   OH265103   3.126   5.995   5.640 -0.0184 -0.4100  0.0277
14563TIP3    H165104   3.138   6.060   5.570  0.7384 -1.3875 -0.7905
14563TIP3    H265105   3.188   6.022   5.708  0.4772 -0.4009 -0.4165
14564TIP3   OH265106   0.162   2.795  13.004 -0.2402 -0.8351  0.2944
14564TIP3    H165107   0.228   2.771  12.940  0.0171 -1.1462  0.6743
14564TIP3    H265108   0.098   2.847  12.955 -0.8003 -2.2736 -0.5231
14565TIP3   OH265109   3.868   2.265  12.929 -0.0460  0.7652 -0.6993
14565TIP3    H165110   3.953   2.290  12.964  0.3720  0.0223 -1.1647
14565TIP3    H265111   3.844   2.185  12.977  0.3397 -0.0228 -1.7942
14566TIP3   OH265112   0.126   2.188   0.137 -0.6671  0.1068  0.2852
14566TIP3    H165113   0.201   2.174   0.079 -0.1657 -0.3512  1.0300
14566TIP3    H265114   0.155   2.154   0.222 -1.9120 -0.5922  0.4470
14567TIP3   OH265115   2.773   2.097   0.341  0.0970  0.1423 -0.0933
14567TIP3    H165116   2.796   2.030   0.277  0.8686  0.7891 -0.5152
14567TIP3    H265117   2.799   2.179   0.300 -2.9315  0.9938 -0.5844
14568TIP3   OH265118   5.544   3.662   5.981  0.6767  0.5075  0.2868
14568TIP3    H165119   5.611   3.706   5.927  0.3029  0.7313 -0.0016
14568TIP3    H265120   5.489   3.734   6.013 -0.5481  0.1877 -1.0188
14569TIP3   OH265121   6.028   2.926  13.169 -0.0577  0.0448 -0.1584
14569TIP3    H165122   6.121   2.903  13.170 -0.3672 -1.2697  0.5793
14569TIP3    H265123   5.998   2.910  13.258 -0.6257  2.1641  0.0801
14570TIP3   OH265124   4.770   4.091   4.527  0.1819 -0.1738  0.0037
14570TIP3    H165125   4.846   4.058   4.480  0.2381 -0.3820  0.2420
14570TIP3    H265126   4.734   4.159   4.470 -0.3283 -1.0999 -0.8096
14571TIP3   OH265127   0.975   0.143   5.027  0.3024 -0.0153 -0.1355
14571TIP3    H165128   0.954   0.215   5.087  3.3283  0.1559  0.9167
14571TIP3    H265129   0.999   0.187   4.945  1.8299  0.2302  0.4066
14572TIP3   OH265130   4.615   0.724  12.937  0.3864  0.6204 -0.1826
14572TIP3    H165131   4.695   0.763  12.901  0.1672  1.0276 -0.2272
14572TIP3    H265132   4.607   0.762  13.025  0.6146  0.0557  0.0880
14573TIP3   OH265133   0.863   6.423  14.679 -0.2182 -0.0676 -0.5308
14573TIP3    H165134   0.796   6.365  14.642  0.2399 -0.4425 -0.7719
14573TIP3    H265135   0.925   6.364  14.722 -0.1080  0.2894 -0.1910
14574TIP3   OH265136   0.810   3.436   6.198  0.2929  0.3069  0.0869
14574TIP3    H165137   0.764   3.497   6.256  0.8871 -0.2120  1.1241
14574TIP3    H265138   0.760   3.354   6.205 -0.6425  0.6822 -1.4815
14575TIP3   OH265139   5.112   2.183  15.877 -0.5121  0.2632 -0.3439
14575TIP3    H165140   5.030   2.227  15.855 -1.2308 -1.0476 -0.4439
14575TIP3    H265141   5.125   2.121  15.805 -1.1669 -1.8018  1.2057
14576TIP3   OH265142   4.154   0.108   1.560 -0.2492 -0.2943 -0.2721
14576TIP3    H165143   4.151   0.089   1.654  0.7107 -1.4863 -0.4422
14576TIP3    H265144   4.145   0.022   1.519  1.6093 -0.1013 -1.1986
14577TIP3   OH265145   4.291   1.467  14.280 -0.1739  0.0299  0.0327
14577TIP3    H165146   4.207   1.486  14.322 -0.4859 -1.1926 -0.0144
14577TIP3    H265147   4.268   1.419  14.201  0.2122  4.0430 -2.8708
14578TIP3   OH265148   3.399   5.251   1.993 -0.1226 -0.2969 -0.0998
14578TIP3    H165149   3.386   5.339   1.958 -0.5068 -0.5627 -0.6555
14578TIP3    H265150   3.314   5.228   2.032 -0.6059 -1.0768 -1.5111
14579TIP3   OH265151   0.095   6.170   4.480 -0.3647 -0.3422  0.3016
14579TIP3    H165152   0.018   6.225   4.464 -0.3757 -0.2839  0.5481
14579TIP3    H265153   0.143   6.216   4.550  0.5814  0.3232 -0.7423
14580TIP3   OH265154   4.647   3.513  16.099  0.3080 -0.4692  0.6758
14580TIP3    H165155   4.646   3.436  16.156  0.6405 -0.4941  0.6506
14580TIP3    H265156   4.740   3.535  16.089  0.2328 -0.2395  0.4474
14581TIP3   OH265157   4.266   3.888   3.186 -0.3566 -0.0514  0.3808
14581TIP3    H165158   4.218   3.810   3.213 -1.4007  0.6506  0.6105
14581TIP3    H265159   4.237   3.956   3.247 -0.9209  0.9788 -1.0081
14582TIP3   OH265160   3.093   5.081  15.213  0.3266  0.1436 -0.4722
14582TIP3    H165161   3.021   5.130  15.254  1.6962  1.2716  0.6984
14582TIP3    H265162   3.078   5.090  15.119 -1.5493 -0.4362 -0.2761
14583TIP3   OH265163   3.391   6.717   3.318 -0.0187 -0.3846 -0.2281
14583TIP3    H165164   3.378   6.800   3.364  0.2488  0.3062 -1.3396
14583TIP3    H265165   3.468   6.678   3.359  1.6401  1.3078 -1.5217
14584TIP3   OH265166   5.024   0.028  15.001  0.2516 -0.1832 -0.0984
14584TIP3    H165167   5.019  -0.013  15.088  0.9672 -1.2012 -0.5221
14584TIP3    H265168   5.095   0.092  15.010 -0.9746  1.1300  0.6095
14585TIP3   OH265169   0.808   1.783   4.384  0.1293 -0.0301  0.5544
14585TIP3    H165170   0.735   1.842   4.403  0.0709  0.4908 -1.0942
14585TIP3    H265171   0.819   1.731   4.464 -1.9821 -0.0642  0.8876
14586TIP3   OH265172   3.938   0.501  15.663  0.0432  0.6687  0.7072
14586TIP3    H165173   3.856   0.509  15.614 -0.0263  2.0623  1.0036
14586TIP3    H265174   3.910   0.474  15.751 -0.2151  2.0544  1.0767
14587TIP3   OH265175   3.246   2.368   2.622  0.3843 -0.0861  0.4354
14587TIP3    H165176   3.309   2.440   2.626  2.4078 -1.6944 -0.7820
14587TIP3    H265177   3.162   2.411   2.606  1.6460  1.9818 -1.1217
14588TIP3   OH265178   2.610   2.964  16.377 -0.0153 -0.5718  0.2040
14588TIP3    H165179   2.690   2.912  16.386  0.1082 -0.2427  1.1256
14588TIP3    H265180   2.609   3.020  16.455  0.1010  1.1579 -0.9962
14589TIP3   OH265181   3.484   3.931  14.364  0.2967 -0.4801 -0.1976
14589TIP3    H165182   3.489   3.893  14.452  1.9831 -0.1003 -0.1065
14589TIP3    H265183   3.439   3.865  14.312  0.1494 -1.1297  0.7277
14590TIP3   OH265184   5.033   3.626   1.878 -0.3737 -0.7533  0.0917
14590TIP3    H165185   4.976   3.558   1.840 -0.8930 -0.3847  0.1951
14590TIP3    H265186   4.976   3.703   1.885  0.3880 -0.1159 -0.6077
14591TIP3   OH265187   3.500   2.879  13.510 -0.0554 -0.0798 -0.3264
14591TIP3    H165188   3.460   2.917  13.588 -0.8469 -0.8571 -0.3331
14591TIP3    H265189   3.594   2.882  13.527 -0.2121 -0.1215  0.6021
14592TIP3   OH265190   6.201   6.752  12.957 -0.6856  0.5070  1.0283
14592TIP3    H165191   6.251   6.830  12.982 -1.1704  0.1755  3.2793
14592TIP3    H265192   6.214   6.745  12.863  0.5296  2.4893  0.9733
14593TIP3   OH265193   4.992   0.504   0.744  0.2761 -0.4177 -0.1154
14593TIP3    H165194   4.956   0.562   0.677  1.7966  0.6675 -0.0322
14593TIP3    H265195   4.941   0.525   0.823 -0.8704 -1.0203 -0.6691
14594TIP3   OH265196   3.962   4.874  14.248  0.2416 -0.9511 -0.1749
14594TIP3    H165197   3.908   4.917  14.182 -0.5472 -2.0307 -0.2737
14594TIP3    H265198   4.017   4.943  14.284 -2.0326  0.4962  0.7557
14595TIP3   OH265199   1.498   1.537  13.805  0.5410  0.7075 -0.0357
14595TIP3    H165200   1.515   1.443  13.810  1.0245  0.8269  0.7483
14595TIP3    H265201   1.525   1.562  13.717 -2.5896 -0.4335 -1.4743
14596TIP3   OH265202   1.477   2.819   1.707  0.2477  0.1876 -0.1760
14596TIP3    H165203   1.416   2.891   1.693 -1.9244 -1.2981  0.9345
14596TIP3    H265204   1.535   2.850   1.776 -0.0768  1.1788 -0.3309
14597TIP3   OH265205   5.066   0.453   4.328 -0.5157  0.6360 -0.4589
14597TIP3    H165206   5.102   0.409   4.405  0.9642 -0.7048 -1.8358
14597TIP3    H265207   5.118   0.532   4.317  1.2297 -0.6135 -1.6606
14598TIP3   OH265208   3.754   6.343   0.772  0.3856 -0.1879 -0.4680
14598TIP3    H165209   3.775   6.323   0.863  0.5644  1.3953 -0.1447
14598TIP3    H265210   3.797   6.274   0.722  2.9121  0.6362  0.4403
14599TIP3   OH265211   5.567   2.494   1.317  0.2441 -0.1352  0.4858
14599TIP3    H165212   5.540   2.444   1.240 -0.3249 -0.2745  0.7743
14599TIP3    H265213   5.516   2.574   1.313  1.4840  0.6617 -0.2283
14600TIP3   OH265214   2.949   0.588   5.762 -0.3705 -0.0625  0.5745
14600TIP3    H165215   2.964   0.494   5.750 -0.1521  0.2608 -2.2991
14600TIP3    H265216   3.036   0.624   5.779 -0.2346 -0.2085  0.2058
14601TIP3   OH265217   1.982   5.414  12.283  0.3506 -0.8396  0.5158
14601TIP3    H165218   1.900   5.366  12.270  1.0507 -1.5829 -1.6509
14601TIP3    H265219   2.006   5.397  12.374 -0.8577 -2.3228  0.5954
14602TIP3   OH265220   0.142   4.345   0.026  0.5011 -0.2975 -0.4774
14602TIP3    H165221   0.110   4.275   0.083 -0.1278 -0.3712 -0.9082
14602TIP3    H265222   0.190   4.300  -0.043  1.9771 -0.1570  0.4262
14603TIP3   OH265223   1.011   0.821   4.976 -0.1779 -0.3529  0.7333
14603TIP3    H165224   1.045   0.749   4.923 -1.4511 -0.6545  0.3103
14603TIP3    H265225   0.953   0.779   5.039 -0.6926  0.2754  0.6846
14604TIP3   OH265226   5.089   2.449  16.421 -1.0325 -0.1792  0.2927
14604TIP3    H165227   5.181   2.450  16.395 -1.6316 -1.0389 -2.0940
14604TIP3    H265228   5.058   2.538  16.404 -1.1964 -0.5052 -1.2292
14605TIP3   OH265229   5.453   1.438  16.769  0.2363  0.0165  0.5355
14605TIP3    H165230   5.378   1.398  16.811  0.6430 -0.1033  1.1565
14605TIP3    H265231   5.512   1.365  16.749 -0.4218 -0.0836 -1.2720
14606TIP3   OH265232   3.185   6.478  14.976 -0.4372 -0.2168 -0.2920
14606TIP3    H165233   3.238   6.460  14.899  0.2257 -0.5560  0.2411
14606TIP3    H265234   3.186   6.397  15.027  0.0754  0.3554  0.6343
14607TIP3   OH265235   4.036   1.895   3.016  0.4026  0.0175  0.5888
14607TIP3    H165236   4.013   1.987   3.004  1.6438  0.1962 -0.6880
14607TIP3    H265237   4.119   1.897   3.064  1.0687 -0.3696 -0.5091
14608TIP3   OH265238   3.397   3.840   4.435 -0.2497 -0.3943 -0.2143
14608TIP3    H165239   3.347   3.868   4.512 -2.9672 -0.2720 -1.9005
14608TIP3    H265240   3.399   3.744   4.442  0.4590 -0.3445  0.5059
14609TIP3   OH265241   4.247   3.191  14.050  0.4710  0.3648 -0.4804
14609TIP3    H165242   4.237   3.172  14.144  0.9599  0.8147 -0.3343
14609TIP3    H265243   4.318   3.256  14.046  0.5676  0.2191 -1.1760
14610TIP3   OH265244   0.800   2.769  13.348  0.2320 -0.3941  0.1347
14610TIP3    H165245   0.808   2.847  13.293 -2.7974 -0.8923 -1.2481
14610TIP3    H265246   0.760   2.704  13.290  0.9579 -2.3851  1.7681
14611TIP3   OH265247   6.728   5.851  14.233  0.4845 -0.0040 -0.3874
14611TIP3    H165248   6.656   5.805  14.189  1.4168 -0.4644 -1.4943
14611TIP3    H265249   6.807   5.813  14.195  1.2992  1.5814 -0.3422
14612TIP3   OH265250   6.450   1.675   4.799 -0.0098 -0.1750  0.6153
14612TIP3    H165251   6.440   1.745   4.734 -2.0347 -0.7453  0.2632
14612TIP3    H265252   6.401   1.706   4.875  0.5497 -0.4626  1.0999
14613TIP3   OH265253   3.533   2.162   4.631  0.5848  0.0061 -0.3131
14613TIP3    H165254   3.442   2.152   4.657 -0.2697  2.3390 -2.0887
14613TIP3    H265255   3.558   2.249   4.661  0.9739  0.9199 -2.9906
14614TIP3   OH265256   6.087   4.075  17.157 -0.0006 -0.8630  0.1746
14614TIP3    H165257   5.996   4.103  17.163 -0.6729 -3.0578  1.2639
14614TIP3    H265258   6.121   4.119  17.079 -2.0012 -0.0546 -0.2916
14615TIP3   OH265259   1.572   2.574   4.669  0.7269 -0.4920 -0.0630
14615TIP3    H165260   1.501   2.637   4.683 -1.3963 -1.7859 -3.5090
14615TIP3    H265261   1.644   2.626   4.634 -0.4591  0.2998 -1.4592
14616TIP3   OH265262   6.581   6.388   2.021  0.0853  0.1006 -0.2579
14616TIP3    H165263   6.498   6.397   1.974  0.3322  0.7482 -0.5721
14616TIP3    H265264   6.556   6.384   2.114 -0.3599 -0.6112 -0.4001
14617TIP3   OH265265   3.572   0.842  11.091 -0.1178 -0.2891 -0.8128
14617TIP3    H165266   3.597   0.860  11.181 -3.2677 -0.5340  0.2282
14617TIP3    H265267   3.498   0.781  11.097 -1.1535  0.5242 -3.4727
14618TIP3   OH265268   1.833   0.921  12.162  0.0381  0.7165 -0.2255
14618TIP3    H165269   1.914   0.873  12.148 -0.3580 -0.4996  1.4114
14618TIP3    H265270   1.819   0.968  12.079  1.1115 -0.9624 -1.4337
14619TIP3   OH265271   1.200   4.899   5.766 -0.1967  0.6154  0.0267
14619TIP3    H165272   1.219   4.885   5.859 -0.7566 -0.6714 -0.0432
14619TIP3    H265273   1.105   4.889   5.758 -0.0260 -0.5792 -0.8755
14620TIP3   OH265274   2.817   0.001   5.124  0.5871  0.1675  0.1117
14620TIP3    H165275   2.831  -0.055   5.200  1.7302  0.6434  0.2793
14620TIP3    H265276   2.874  -0.035   5.056  0.5667  0.5279 -0.1017
14621TIP3   OH265277   1.218   4.518  16.658 -0.0231  0.1608  0.2365
14621TIP3    H165278   1.213   4.610  16.630  1.0182  0.8997  2.3140
14621TIP3    H265279   1.254   4.473  16.581  0.5356  1.6817 -0.4575
14622TIP3   OH265280   4.360   4.591   3.513  0.2646  0.0636  0.2828
14622TIP3    H165281   4.447   4.563   3.484  0.2835 -0.4730  0.8494
14622TIP3    H265282   4.377   4.665   3.572  0.3322  0.0231  0.3144
14623TIP3   OH265283   6.271   5.439  12.094  0.2320  0.0182  0.3050
14623TIP3    H165284   6.190   5.463  12.049 -0.3372 -0.7115  0.8981
14623TIP3    H265285   6.324   5.518  12.093  0.1027  0.1178 -1.3302
14624TIP3   OH265286   3.813   5.901   2.141  0.5003 -0.3394  0.0364
14624TIP3    H165287   3.882   5.962   2.167 -0.0089 -0.5792  2.0856
14624TIP3    H265288   3.848   5.815   2.163 -0.0911 -0.5262  0.2556
14625TIP3   OH265289   2.571   6.291  16.401 -0.3542  1.0447 -0.0618
14625TIP3    H165290   2.613   6.229  16.341  0.2407  1.3393  0.0415
14625TIP3    H265291   2.509   6.238  16.451  2.5209 -0.2631  2.4293
14626TIP3   OH265292   6.205   2.194  13.045 -0.1609  0.0822  0.9656
14626TIP3    H165293   6.138   2.166  13.107 -0.0379 -0.5512  0.8249
14626TIP3    H265294   6.209   2.123  12.981  1.3761 -0.4124  1.5565
14627TIP3   OH265295   6.546   5.775   5.789 -0.4011  0.3432 -0.0213
14627TIP3    H165296   6.501   5.814   5.864 -1.2231 -1.7032  0.6287
14627TIP3    H265297   6.588   5.696   5.825  1.3052  0.6564 -1.2240
14628TIP3   OH265298   4.411   6.443   0.921 -0.2079  0.5681 -0.6310
14628TIP3    H165299   4.348   6.373   0.936 -0.0191  0.0611 -2.1046
14628TIP3    H265300   4.487   6.419   0.974 -0.0971 -0.4216 -1.2189
14629TIP3   OH265301   1.001   3.241   0.725 -0.1156  0.2832 -0.0227
14629TIP3    H165302   1.037   3.154   0.744  1.7840  1.5162  2.7009
14629TIP3    H265303   0.910   3.225   0.701  0.4278 -2.4979 -0.5698
14630TIP3   OH265304   4.881   5.304   5.491  0.3629  0.4654  0.0887
14630TIP3    H165305   4.841   5.289   5.405  1.8814  2.1480 -0.9814
14630TIP3    H265306   4.817   5.359   5.537 -0.4425 -0.4152  0.0702
14631TIP3   OH265307   3.004   4.500   2.324  0.1017  0.1025  0.3594
14631TIP3    H165308   2.960   4.583   2.305 -1.1778 -0.9860 -1.8711
14631TIP3    H265309   3.070   4.522   2.389 -0.4811  2.7789  0.1590
14632TIP3   OH265310   1.470   3.439   1.498 -0.4921 -0.0169 -0.1699
14632TIP3    H165311   1.426   3.413   1.579 -1.1166  1.0568 -0.1417
14632TIP3    H265312   1.563   3.424   1.515 -0.6144  0.2201  0.7599
14633TIP3   OH265313   3.057   4.360   4.109 -0.1541  0.1353 -0.5516
14633TIP3    H165314   3.043   4.398   4.023 -1.6066 -1.3359 -1.0224
14633TIP3    H265315   3.058   4.265   4.094  2.9209 -0.1570  0.6170
14634TIP3   OH265316   2.392   6.594  12.123  0.2048  0.5208 -0.3207
14634TIP3    H165317   2.449   6.529  12.163  0.7851  1.3081  0.1696
14634TIP3    H265318   2.307   6.581  12.164  0.1369 -0.3608 -0.7207
14635TIP3   OH265319   3.765   1.246  10.667  0.5116  0.3510 -0.7637
14635TIP3    H165320   3.746   1.153  10.683 -0.7578  0.5041 -1.2551
14635TIP3    H265321   3.682   1.282  10.636  0.3338  2.1735  1.5573
14636TIP3   OH265322   4.289   0.595  15.894 -0.0381 -0.7130  0.0723
14636TIP3    H165323   4.196   0.603  15.913 -0.4677 -0.4650 -1.9265
14636TIP3    H265324   4.305   0.658  15.824  1.4834 -1.2489 -0.1084
14637TIP3   OH265325   0.100   3.726  16.133  0.0169 -0.5591  0.1565
14637TIP3    H165326   0.094   3.733  16.038 -0.1524 -1.1626  0.1137
14637TIP3    H265327   0.165   3.657  16.148  1.1407  0.5444  0.5110
14638TIP3   OH265328   4.653   1.406   6.358  0.5727 -0.0934  0.2545
14638TIP3    H165329   4.662   1.387   6.451 -1.4941  0.5928  0.6501
14638TIP3    H265330   4.561   1.388   6.338  0.8073  0.4177 -1.4946
14639TIP3   OH265331   0.680   4.677  16.657 -0.1298  0.0377 -0.4295
14639TIP3    H165332   0.622   4.716  16.722 -1.4346 -0.6282 -1.1542
14639TIP3    H265333   0.737   4.748  16.630  1.9803 -0.1479  2.9890
14640TIP3   OH265334   4.488   3.041   1.126  0.1460 -0.5962  0.2871
14640TIP3    H165335   4.410   2.988   1.140 -0.3583  0.2967  0.9460
14640TIP3    H265336   4.501   3.087   1.209  2.2291 -1.8189  0.6929
14641TIP3   OH265337   1.272   2.204  16.828 -0.3717 -0.3956  0.0470
14641TIP3    H165338   1.338   2.140  16.854 -0.0659  0.3365  1.1316
14641TIP3    H265339   1.191   2.153  16.821 -0.7024 -0.5440  3.4487
14642TIP3   OH265340   5.703   1.986  13.673 -0.8433 -0.1804  0.5350
14642TIP3    H165341   5.676   2.050  13.740  1.9130 -0.3652  1.9519
14642TIP3    H265342   5.714   1.904  13.721 -1.0331 -0.9093 -0.6213
14643TIP3   OH265343   6.470   0.576  15.459 -0.0026  0.6443  0.1527
14643TIP3    H165344   6.507   0.488  15.463 -0.4529  0.4639  0.3824
14643TIP3    H265345   6.515   0.624  15.529  1.0904  0.9333 -0.7129
14644TIP3   OH265346   0.948   3.506   2.115 -0.3646  0.0702  0.1552
14644TIP3    H165347   0.866   3.546   2.145 -1.1765  0.3011 -2.0962
14644TIP3    H265348   0.962   3.431   2.172 -2.4502 -0.2682  0.2949
14645TIP3   OH265349   0.050   0.020   1.469 -0.2672  0.2002 -0.0520
14645TIP3    H165350   0.065   0.080   1.396  1.2385  1.9315  1.5868
14645TIP3    H265351   0.098  -0.059   1.446 -0.8197  0.2369 -1.4451
14646TIP3   OH265352   4.689   5.447   0.095 -0.1649  0.3332 -0.1162
14646TIP3    H165353   4.717   5.359   0.069  2.2438  0.6731  1.0266
14646TIP3    H265354   4.741   5.506   0.040 -1.3461  1.0644 -0.4801
14647TIP3   OH265355   3.804   1.126   3.331 -0.4406 -0.2112 -0.0665
14647TIP3    H165356   3.860   1.204   3.329 -1.4760  0.7650  3.0934
14647TIP3    H265357   3.738   1.143   3.263  0.1577  1.0115 -0.3853
14648TIP3   OH265358   2.192   3.440   5.657  0.0209  0.2351  0.1661
14648TIP3    H165359   2.267   3.428   5.599 -1.5298  0.0038 -1.8804
14648TIP3    H265360   2.150   3.354   5.660 -0.7571  0.6160  0.4543
14649TIP3   OH265361   0.232   6.708   0.844 -0.2731 -0.3002  0.3440
14649TIP3    H165362   0.230   6.613   0.855  1.6570 -0.3041  1.0147
14649TIP3    H265363   0.140   6.734   0.839 -0.9839 -1.8463  3.3867
14650TIP3   OH265364   1.092   0.995   4.426 -0.0548  0.4315 -0.8497
14650TIP3    H165365   1.179   1.030   4.446  0.0714 -0.7507  0.8890
14650TIP3    H265366   1.108   0.925   4.362  0.6066 -1.1752  0.9617
14651TIP3   OH265367   0.099   6.392   2.233  0.4390 -0.0270  0.2757
14651TIP3    H165368   0.099   6.415   2.140  1.4466  2.1809  0.7740
14651TIP3    H265369   0.192   6.378   2.254  0.2230 -0.4815  0.9728
14652TIP3   OH265370   0.948   0.096   1.972 -0.1400  0.1411  0.3042
14652TIP3    H165371   0.940   0.094   2.067 -0.6647  1.6491  0.3031
14652TIP3    H265372   0.863   0.069   1.940 -1.0801  2.8276  0.3040
14653TIP3   OH265373   6.447   3.554   4.049 -0.0944 -0.2259  0.7902
14653TIP3    H165374   6.480   3.477   4.004  0.4197 -0.4926  1.6151
14653TIP3    H265375   6.380   3.520   4.109 -0.1196  0.0140  0.8989
14654TIP3   OH265376   5.479   4.903   6.028  0.3008  0.8029  0.8159
14654TIP3    H165377   5.561   4.946   6.054  2.3506 -2.8542  1.1119
14654TIP3    H265378   5.499   4.862   5.944 -1.1647 -0.4078  1.0258
14655TIP3   OH265379   4.352   1.743   0.895  0.2407 -0.4869 -0.0603
14655TIP3    H165380   4.313   1.666   0.937  1.8015  0.2523  3.0562
14655TIP3    H265381   4.425   1.708   0.843  0.8067 -1.1695  1.1558
14656TIP3   OH265382   3.520   5.657   0.081 -0.6039 -0.2886 -0.4949
14656TIP3    H165383   3.572   5.584   0.114 -1.4038 -0.1360  1.1778
14656TIP3    H265384   3.541   5.730   0.139 -0.3849  0.6341 -1.6876
14657TIP3   OH265385   4.351   1.333   4.999 -0.0560  0.8037 -0.0361
14657TIP3    H165386   4.419   1.400   4.991  0.0385  0.5866 -1.2937
14657TIP3    H265387   4.333   1.307   4.909  0.5086 -1.4713  0.4520
14658TIP3   OH265388   1.794   6.521   3.490 -0.3716  0.1003  0.2992
14658TIP3    H165389   1.830   6.555   3.408  1.4707 -1.4504  0.3705
14658TIP3    H265390   1.753   6.438   3.465 -1.0942  0.3256  0.7263
14659TIP3   OH265391   4.981   0.859  15.619 -0.1659  0.4383  0.0785
14659TIP3    H165392   5.065   0.824  15.648  0.0703 -1.9297 -2.9911
14659TIP3    H265393   5.002   0.915  15.544 -1.2535  0.8077  0.0233
14660TIP3   OH265394   6.446   5.938  13.204  0.0660 -0.4695 -0.5616
14660TIP3    H165395   6.518   5.923  13.266 -0.8544 -3.5173 -0.0313
14660TIP3    H265396   6.398   6.012  13.240  0.3690 -1.2776  1.6557
14661TIP3   OH265397   4.864   0.075   1.417  0.0511 -0.3134 -0.2556
14661TIP3    H165398   4.783   0.114   1.450 -1.2950 -1.8001 -1.6038
14661TIP3    H265399   4.931   0.141   1.433 -1.5078  1.1635  0.4829
14662TIP3   OH265400   0.247   4.631  12.139  0.7153 -0.0413 -0.0453
14662TIP3    H165401   0.260   4.715  12.182  3.1532 -0.3447 -0.0207
14662TIP3    H265402   0.153   4.625  12.124  0.2245  1.6879  1.9401
14663TIP3   OH265403   3.807   6.726  14.640 -0.4896 -0.0939  0.0628
14663TIP3    H165404   3.743   6.794  14.616  0.5848  0.7666 -0.4447
14663TIP3    H265405   3.776   6.648  14.594 -0.4990  0.6262 -1.2220
14664TIP3   OH265406   2.534   1.862  13.888  0.7472 -0.0451  0.6370
14664TIP3    H165407   2.474   1.830  13.955 -2.4972  0.2462 -1.8739
14664TIP3    H265408   2.555   1.785  13.835 -0.6619  0.4752 -0.7604
14665TIP3   OH265409   1.169   5.223  12.499  0.3436  0.0525  0.0961
14665TIP3    H165410   1.092   5.278  12.483  0.9187  0.2901 -2.2753
14665TIP3    H265411   1.207   5.210  12.412  3.1409  0.1654  1.2092
14666TIP3   OH265412   2.878   2.655   1.932 -0.0099 -0.6313 -0.2209
14666TIP3    H165413   2.872   2.650   1.837 -2.6448 -1.4170 -0.0933
14666TIP3    H265414   2.795   2.695   1.959  2.0166  2.8408  1.6258
14667TIP3   OH265415   1.320   1.818   0.643  0.0961 -0.0398 -0.2938
14667TIP3    H165416   1.310   1.862   0.727 -1.0883  1.6579 -1.2677
14667TIP3    H265417   1.366   1.882   0.588  0.5123 -0.9733 -1.0605
14668TIP3   OH265418   0.363   0.113   4.892  0.7793 -0.1182 -0.4306
14668TIP3    H165419   0.290   0.167   4.921 -0.9649 -0.0410 -4.3161
14668TIP3    H265420   0.438   0.172   4.893 -0.0720  0.9930 -0.1349
14669TIP3   OH265421   1.842   1.727   2.671  0.3841  0.0926 -0.3515
14669TIP3    H165422   1.787   1.763   2.741 -1.8329  0.5041 -2.2000
14669TIP3    H265423   1.895   1.660   2.714 -2.1127 -0.8574  1.4311
14670TIP3   OH265424   5.468   4.466   1.046 -0.1445  0.6447 -0.7014
14670TIP3    H165425   5.453   4.513   1.128 -0.8494 -0.1593 -0.3541
14670TIP3    H265426   5.423   4.518   0.980 -0.4522  0.7475 -0.4137
14671TIP3   OH265427   0.567   3.558  14.741 -0.0466 -0.9272  0.2490
14671TIP3    H165428   0.585   3.642  14.699  1.3537 -1.4501 -0.2646
14671TIP3    H265429   0.526   3.505  14.672  0.4546 -1.1534  0.1246
14672TIP3   OH265430   6.745   2.289  10.421 -0.0804 -0.0728  0.1144
14672TIP3    H165431   6.827   2.339  10.428 -0.7863  1.0245  0.8733
14672TIP3    H265432   6.700   2.329  10.346  0.3961 -1.1853 -0.7916
14673TIP3   OH265433   2.429   4.887   0.555 -0.2984  0.7842 -0.1273
14673TIP3    H165434   2.386   4.934   0.483  0.8295  0.2518 -1.1793
14673TIP3    H265435   2.497   4.835   0.512 -0.1006 -0.1351  1.2550
14674TIP3   OH265436   1.557   1.939   2.116 -0.0110 -0.4492  0.1663
14674TIP3    H165437   1.535   1.908   2.028  1.4752 -1.9821  0.2811
14674TIP3    H265438   1.529   2.030   2.117  3.2130  0.7850 -3.1935
14675TIP3   OH265439   1.324   4.302  14.616 -0.4203 -0.3757  0.1636
14675TIP3    H165440   1.374   4.281  14.695  0.9750  1.6970 -0.0784
14675TIP3    H265441   1.368   4.254  14.546  0.0742 -0.0523  0.2465
14676TIP3   OH265442   5.367   4.072  14.500 -0.2992  0.4544 -0.3778
14676TIP3    H165443   5.389   4.020  14.577 -1.8792  0.8326  0.3847
14676TIP3    H265444   5.407   4.026  14.427  2.0508  0.5743  0.7333
14677TIP3   OH265445   3.775   1.697  15.798  0.0527  0.0167  0.7594
14677TIP3    H165446   3.791   1.790  15.811  1.0736 -0.0541  0.1816
14677TIP3    H265447   3.683   1.691  15.771  0.8816  1.3112 -2.9896
14678TIP3   OH265448   4.282   1.867   3.175 -0.4029 -0.2330  0.0354
14678TIP3    H165449   4.374   1.849   3.157 -0.3504 -1.0834  1.0338
14678TIP3    H265450   4.283   1.910   3.261 -0.7279  2.4328 -1.2149
14679TIP3   OH265451   3.918   6.559  16.636  0.8867  0.7450  0.2792
14679TIP3    H165452   3.929   6.468  16.606 -3.1979 -0.4158  1.6109
14679TIP3    H265453   3.878   6.604  16.562  1.9895  1.2602 -0.0298
14680TIP3   OH265454   1.102   6.135   2.473  0.4442 -0.2295  0.2675
14680TIP3    H165455   1.191   6.148   2.508 -0.1644  0.9039  1.4812
14680TIP3    H265456   1.105   6.047   2.434  2.4183  0.2277 -0.7799
14681TIP3   OH265457   1.351   1.672   6.156  0.5533 -0.0789 -0.0489
14681TIP3    H165458   1.297   1.688   6.233  1.1799 -2.2251  0.9130
14681TIP3    H265459   1.288   1.662   6.085 -0.0026  2.5261 -0.0035
14682TIP3   OH265460   4.997   1.090  14.610  0.1654  0.1302  0.3593
14682TIP3    H165461   4.966   1.065  14.697  1.5648  2.0892  1.4978
14682TIP3    H265462   5.089   1.110  14.622  0.2303  1.1457 -1.4333
14683TIP3   OH265463   1.359   1.184  11.865  0.5633 -0.0335 -0.1007
14683TIP3    H165464   1.337   1.249  11.799  2.4094  2.6169  1.6781
14683TIP3    H265465   1.299   1.202  11.938 -0.6680 -2.1455 -0.5184
14684TIP3   OH265466   4.478   2.788  13.754  0.1925 -0.1092  0.4795
14684TIP3    H165467   4.501   2.875  13.786 -0.5178  0.1543  0.2732
14684TIP3    H265468   4.513   2.728  13.820  1.3699  0.2812  0.2370
14685TIP3   OH265469   6.178   1.459  11.003 -0.6571  0.2281  0.1155
14685TIP3    H165470   6.146   1.383  10.954 -1.6141  1.0034 -0.5048
14685TIP3    H265471   6.266   1.435  11.030 -1.1253 -1.2955  0.3545
14686TIP3   OH265472   2.414   4.737   4.524 -0.1518  0.2681  0.0601
14686TIP3    H165473   2.360   4.660   4.505  1.1404 -0.4634 -0.7722
14686TIP3    H265474   2.481   4.706   4.585  0.6726  0.5940 -0.6606
14687TIP3   OH265475   0.492   4.640   3.907 -0.1137 -0.4944  0.3872
14687TIP3    H165476   0.542   4.720   3.923  0.8165 -1.0824  0.4820
14687TIP3    H265477   0.502   4.589   3.988  1.2611 -1.7255 -0.5150
14688TIP3   OH265478   0.698   1.212  16.826  0.5724 -0.5060 -0.1158
14688TIP3    H165479   0.609   1.177  16.821  1.1185 -2.1267  0.6468
14688TIP3    H265480   0.747   1.163  16.759  1.0248 -0.0981 -0.0837
14689TIP3   OH265481   5.454   6.314   1.434 -0.3529 -0.2205 -0.0566
14689TIP3    H165482   5.360   6.329   1.435 -0.2811  0.2415  0.2105
14689TIP3    H265483   5.473   6.280   1.346 -1.1236 -2.8076  0.6824
14690TIP3   OH265484   4.047   1.579  14.966  0.8165  0.1110  0.6058
14690TIP3    H165485   4.138   1.549  14.974  1.5682  1.7459 -1.0163
14690TIP3    H265486   4.044   1.623  14.881 -1.8803 -1.0929 -0.0392
14691TIP3   OH265487   2.016   4.063  14.222 -0.3002  0.1565  0.4023
14691TIP3    H165488   2.079   4.019  14.279  1.2447 -0.4408 -1.6399
14691TIP3    H265489   1.951   3.996  14.201 -0.0144 -0.0806  0.2608
14692TIP3   OH265490   1.130   6.319  15.671 -0.8716  0.5703  0.4804
14692TIP3    H165491   1.130   6.224  15.680 -0.3867  0.4166 -0.8886
14692TIP3    H265492   1.045   6.346  15.704 -0.4101 -0.1613  2.3893
14693TIP3   OH265493   1.610   2.834   2.106 -0.3522 -0.1838 -0.1718
14693TIP3    H165494   1.567   2.914   2.138  0.8839  0.3121  0.2961
14693TIP3    H265495   1.549   2.763   2.131 -1.2727  0.5653 -0.2422
14694TIP3   OH265496   3.328   2.146   0.735 -0.8076  0.2199 -0.0653
14694TIP3    H165497   3.399   2.201   0.769  0.0544 -0.2786 -0.9952
14694TIP3    H265498   3.357   2.056   0.752 -1.7601  0.0278  0.5799
14695TIP3   OH265499   3.851   1.661  15.129  0.5935 -0.2628  0.6230
14695TIP3    H165500   3.772   1.615  15.099 -0.1843  0.9631  0.7158
14695TIP3    H265501   3.917   1.642  15.062 -0.8598  1.7132 -1.5215
14696TIP3   OH265502   0.909   6.042  15.944 -0.1166  0.0908 -0.2332
14696TIP3    H165503   0.860   6.122  15.925 -1.0192 -0.4770 -0.3639
14696TIP3    H265504   0.917   6.042  16.040  0.6357  0.7587 -0.2874
14697TIP3   OH265505   5.641   5.548   6.131  0.0812  0.3309 -0.8240
14697TIP3    H165506   5.622   5.527   6.222  1.7807  0.2592 -0.4459
14697TIP3    H265507   5.649   5.644   6.130 -2.1190  0.5468 -1.3839
14698TIP3   OH265508   1.576   3.453  17.014 -0.3160  0.3621 -0.0605
14698TIP3    H165509   1.615   3.414  17.092 -1.0427 -1.0170 -0.3547
14698TIP3    H265510   1.613   3.403  16.941 -0.8760  0.5498 -0.4859
14699TIP3   OH265511   5.364   5.181  11.638 -0.6645  0.2046  0.0208
14699TIP3    H165512   5.441   5.124  11.637 -1.4738 -0.9251  0.4227
14699TIP3    H265513   5.290   5.121  11.646 -1.5658  1.2993  0.0716
14700TIP3   OH265514   5.386   3.165   3.361 -0.2960  0.2466  0.2294
14700TIP3    H165515   5.456   3.173   3.426  0.2437 -2.3166  0.0577
14700TIP3    H265516   5.305   3.172   3.411  0.0479  2.1446  0.5859
14701TIP3   OH265517   3.391   6.370   5.738 -0.7102 -0.5021 -0.6484
14701TIP3    H165518   3.474   6.415   5.751  0.1319 -1.6571 -1.7173
14701TIP3    H265519   3.339   6.430   5.685 -0.2219 -0.1150 -0.7001
14702TIP3   OH265520   3.814   3.938   1.015 -0.7670  0.0390 -0.2548
14702TIP3    H165521   3.820   4.013   1.074  4.2022 -0.4173  0.2110
14702TIP3    H265522   3.845   3.970   0.931 -0.8375 -0.9738 -0.6926
14703TIP3   OH265523   6.298   3.720   0.393  0.3684 -0.7300  0.0204
14703TIP3    H165524   6.333   3.764   0.470 -0.4542  0.8692 -0.4762
14703TIP3    H265525   6.206   3.746   0.389  0.4283 -0.6437 -1.5808
14704TIP3   OH265526   2.983   6.106  12.770  0.0624 -0.0655  0.3482
14704TIP3    H165527   3.038   6.090  12.694  0.7981 -0.1125  0.8769
14704TIP3    H265528   2.928   6.028  12.777  0.9313 -0.6694  0.6489
14705TIP3   OH265529   6.522   3.209  15.530  0.4895  0.0908 -0.8363
14705TIP3    H165530   6.558   3.126  15.561  0.7102  0.1252 -0.9895
14705TIP3    H265531   6.442   3.185  15.483  0.5199 -0.0289 -0.8274
14706TIP3   OH265532   2.339   3.549   1.209 -0.1729  0.3618  0.0718
14706TIP3    H165533   2.262   3.492   1.212 -2.1075  2.6041 -2.3216
14706TIP3    H265534   2.383   3.534   1.293 -1.8496 -2.8122  0.5255
14707TIP3   OH265535   0.630   3.528  12.778  0.7045 -0.7700 -0.4046
14707TIP3    H165536   0.565   3.489  12.836  1.5834  0.4974  1.5539
14707TIP3    H265537   0.710   3.477  12.792  1.2113  0.1966  0.3537
14708TIP3   OH265538   0.689   1.658  10.832 -0.7965 -0.7279 -0.1452
14708TIP3    H165539   0.755   1.710  10.786 -0.5250  0.2930  1.3180
14708TIP3    H265540   0.606   1.698  10.807 -0.5313  1.4475  2.0292
14709TIP3   OH265541   5.563   5.553  15.516  0.2204  0.2435 -0.4422
14709TIP3    H165542   5.634   5.566  15.580 -0.4816 -0.4854  0.5126
14709TIP3    H265543   5.495   5.614  15.544 -1.5107 -2.4351  1.7148
14710TIP3   OH265544   3.967   0.863  10.544 -0.0116  0.4616 -0.1725
14710TIP3    H165545   3.910   0.893  10.473  0.2631 -1.3716 -1.2259
14710TIP3    H265546   3.952   0.769  10.549  1.4079  0.2580  0.9090
14711TIP3   OH265547   1.517   2.169   4.815 -0.5700  0.3127 -0.1986
14711TIP3    H165548   1.460   2.204   4.883  1.0083  0.1578  1.2960
14711TIP3    H265549   1.521   2.075   4.833 -0.3367  0.2291 -0.6678
14712TIP3   OH265550   4.352   5.244  12.992  0.0673 -0.0789 -0.4766
14712TIP3    H165551   4.300   5.297  12.932 -1.8214  0.4238  1.4873
14712TIP3    H265552   4.425   5.300  13.017 -2.4290  2.2688  2.3911
14713TIP3   OH265553   0.907   6.410   1.418 -0.1915  0.7348 -0.4577
14713TIP3    H165554   0.869   6.450   1.340  2.0213  0.9509 -1.5177
14713TIP3    H265555   0.896   6.476   1.487 -0.6207  1.2791 -1.0379
14714TIP3   OH265556   5.212   0.601  16.962 -0.1018  0.0857 -0.5078
14714TIP3    H165557   5.254   0.517  16.983  0.9412  0.7796  0.2701
14714TIP3    H265558   5.250   0.663  17.024 -2.8412  0.6366  0.8065
14715TIP3   OH265559   1.572   2.543  12.051 -0.1265 -0.2865 -0.0258
14715TIP3    H165560   1.529   2.564  12.134  0.4494 -0.1715  0.2497
14715TIP3    H265561   1.500   2.527  11.990 -0.5884  1.5252 -0.0044
14716TIP3   OH265562   1.155   4.030   0.842 -0.1538 -0.4082  0.3151
14716TIP3    H165563   1.120   4.007   0.756 -1.6609  0.7954  0.5555
14716TIP3    H265564   1.105   3.975   0.904 -0.8174  0.4715  0.5783
14717TIP3   OH265565   3.194   3.609  14.393 -0.1337 -0.1780  0.4498
14717TIP3    H165566   3.163   3.617  14.303  1.0705  2.0861  0.1589
14717TIP3    H265567   3.263   3.544  14.390  0.8708  0.8817 -0.6007
14718TIP3   OH265568   2.348   1.733  15.237  0.0904  0.0083  0.4800
14718TIP3    H165569   2.306   1.769  15.160  1.3729  2.1673  0.7209
14718TIP3    H265570   2.430   1.695  15.204 -0.5686 -1.4713  0.4480
14719TIP3   OH265571   4.996   3.202  16.507  0.3022 -0.0443  0.2136
14719TIP3    H165572   4.980   3.199  16.413  2.9454  0.5609 -0.3331
14719TIP3    H265573   4.986   3.295  16.530 -0.4418 -0.2068  0.5644
14720TIP3   OH265574   0.104   4.632  17.044  0.3046 -0.4802 -0.1217
14720TIP3    H165575   0.133   4.672  16.961  0.3658 -0.1391  0.0619
14720TIP3    H265576   0.048   4.559  17.017  0.9235 -0.8280 -0.4728
14721TIP3   OH265577   6.337   1.265   3.629 -0.1498 -0.3866  0.2428
14721TIP3    H165578   6.266   1.268   3.565  0.1907  0.0984 -0.1225
14721TIP3    H265579   6.385   1.184   3.608 -1.6532 -1.7213  1.6754
14722TIP3   OH265580   5.011   6.719   2.807  0.2795 -0.1796 -0.0105
14722TIP3    H165581   5.088   6.757   2.763  1.3594 -0.5848  1.4544
14722TIP3    H265582   4.968   6.667   2.739 -0.5699  2.5760 -1.7693
14723TIP3   OH265583   2.076   4.441   3.285 -0.4294  0.1499  0.4659
14723TIP3    H165584   2.001   4.409   3.335  0.0276  1.8301  2.3602
14723TIP3    H265585   2.096   4.370   3.224 -3.0977 -0.6449  0.3494
14724TIP3   OH265586   6.638   6.364   2.687  0.0506 -0.0641  0.1989
14724TIP3    H165587   6.731   6.386   2.687  0.1478 -0.4298  1.2198
14724TIP3    H265588   6.635   6.270   2.704 -0.4682 -0.3362 -1.2545
14725TIP3   OH265589   6.371   5.685  11.457 -0.5652 -0.2658 -0.4611
14725TIP3    H165590   6.352   5.607  11.406 -0.0424 -0.7633  0.0769
14725TIP3    H265591   6.466   5.693  11.454 -0.5978  0.2160 -0.3152
14726TIP3   OH265592   4.726   3.719   4.719 -0.7047 -0.5498 -0.0636
14726TIP3    H165593   4.706   3.732   4.626 -0.9851 -2.6917 -0.3513
14726TIP3    H265594   4.646   3.681   4.755 -0.2441 -0.6851  0.8332
14727TIP3   OH265595   5.860   6.310   2.993 -0.3328  0.1841  0.0552
14727TIP3    H165596   5.943   6.357   2.982 -0.7834  1.1243  0.6024
14727TIP3    H265597   5.794   6.370   2.961 -0.6964 -1.2575 -2.1511
14728TIP3   OH265598   5.168   6.135   4.067 -0.4414  0.0337 -0.0654
14728TIP3    H165599   5.245   6.108   4.016 -1.1057  0.8009 -1.5446
14728TIP3    H265600   5.205   6.175   4.146  0.6593 -0.4396 -0.3119
14729TIP3   OH265601   3.215   6.048   0.222 -0.1994  0.0458 -0.5839
14729TIP3    H165602   3.213   6.028   0.129  1.7724  1.1349 -0.9127
14729TIP3    H265603   3.283   5.990   0.258 -1.1365 -0.5720  0.2650
14730TIP3   OH265604   4.210   5.448  12.536 -0.2322 -0.5504  0.2503
14730TIP3    H165605   4.189   5.470  12.445  3.2577 -0.1989 -0.5897
14730TIP3    H265606   4.160   5.368  12.554 -0.4739 -1.0177 -2.2187
14731TIP3   OH265607   4.011   3.453  15.133 -0.4653  0.2093 -0.2296
14731TIP3    H165608   4.078   3.395  15.097  0.3174  1.4231 -0.7876
14731TIP3    H265609   3.999   3.422  15.223  2.4804  1.3050  0.6472
14732TIP3   OH265610   4.304   6.709  17.208  0.1786  0.1315  0.0346
14732TIP3    H165611   4.251   6.761  17.269  1.7484  3.0793 -0.9167
14732TIP3    H265612   4.283   6.744  17.122  1.5236 -0.6211 -0.6289
14733TIP3   OH265613   6.164   5.311  14.737 -0.3111  0.5619  0.0875
14733TIP3    H165614   6.241   5.262  14.766  0.6560  2.0955  0.2519
14733TIP3    H265615   6.162   5.300  14.642  0.0075  0.3462  0.1053
14734TIP3   OH265616   3.442   1.999  15.271  0.7148  0.8079  0.2148
14734TIP3    H165617   3.480   1.972  15.355  0.5330 -2.5034 -0.6278
14734TIP3    H265618   3.354   2.029  15.293  0.3575 -0.8128  1.2028
14735TIP3   OH265619   1.881   0.579  14.354 -0.0946  0.6132 -0.2203
14735TIP3    H165620   1.952   0.535  14.309 -1.1588  0.1458 -1.4985
14735TIP3    H265621   1.865   0.525  14.432  0.4726  0.3299 -0.2971
14736TIP3   OH265622   0.525   1.840  11.164  0.3316 -0.0851 -0.4471
14736TIP3    H165623   0.543   1.867  11.254  1.6107  1.1081 -1.0174
14736TIP3    H265624   0.593   1.776  11.145  2.0213  1.9032 -1.5014
14737TIP3   OH265625   6.420   5.165  13.891  0.1829  0.3390 -0.4027
14737TIP3    H165626   6.366   5.087  13.902  0.0957  0.2912 -1.1362
14737TIP3    H265627   6.358   5.238  13.897  0.6883  0.6682  4.1222
14738TIP3   OH265628   2.581   2.727  14.146  0.0875  0.0826 -0.2259
14738TIP3    H165629   2.543   2.782  14.076 -2.9335 -1.3168  0.1459
14738TIP3    H265630   2.572   2.638  14.113  3.0696 -0.3889  0.0221
14739TIP3   OH265631   6.706   4.573  15.134  0.0465 -0.6392  0.4770
14739TIP3    H165632   6.624   4.600  15.092 -0.3667 -1.7609  0.5424
14739TIP3    H265633   6.723   4.643  15.197  0.5173  0.9037 -1.2780
14740TIP3   OH265634   5.737   5.364  15.281  0.1581  0.0390 -0.0687
14740TIP3    H165635   5.664   5.313  15.316 -0.6207 -0.2598 -1.9966
14740TIP3    H265636   5.815   5.328  15.323 -0.6528 -0.7294  0.8098
14741TIP3   OH265637   1.160   0.761   3.482 -0.1295  0.5671 -0.0256
14741TIP3    H165638   1.160   0.854   3.461  0.0905  1.0629  1.9423
14741TIP3    H265639   1.118   0.756   3.568  1.8786 -0.8553  0.9562
14742TIP3   OH265640   4.756   1.658   1.745  0.2446 -0.4310 -0.1759
14742TIP3    H165641   4.667   1.643   1.777  0.8207 -1.5237  1.0156
14742TIP3    H265642   4.783   1.574   1.709  0.3624  0.2371 -1.7408
14743TIP3   OH265643   4.628   1.363  11.847 -0.1577  0.1341 -0.5120
14743TIP3    H165644   4.613   1.272  11.822 -2.2480  0.7338 -1.6708
14743TIP3    H265645   4.557   1.412  11.806  0.4308  2.2088  0.7556
14744TIP3   OH265646   3.923   6.626  13.995  0.4828  0.1934 -0.3381
14744TIP3    H165647   3.962   6.671  13.920  2.6794  0.1184  0.6892
14744TIP3    H265648   3.981   6.552  14.012 -0.7334 -0.5806  0.5902
14745TIP3   OH265649   5.867   3.225  12.884  0.3415  0.6178 -0.2494
14745TIP3    H165650   5.925   3.292  12.920  2.6665 -1.9112  1.1051
14745TIP3    H265651   5.921   3.180  12.818 -0.9467 -0.3081 -0.7121
14746TIP3   OH265652   4.791   4.673  10.410 -1.1550  0.3026  0.0693
14746TIP3    H165653   4.824   4.737  10.347 -0.7236  0.5161  0.5029
14746TIP3    H265654   4.729   4.620  10.360 -0.6820  0.3470 -0.5864
14747TIP3   OH265655   1.900   0.558   1.375  0.5489  0.1171  1.3269
14747TIP3    H165656   1.860   0.541   1.290 -1.2614 -0.0962  2.1565
14747TIP3    H265657   1.831   0.537   1.438  1.6213  0.8796  2.8267
14748TIP3   OH265658   6.389   3.249  11.837  0.3573  0.1749 -0.6990
14748TIP3    H165659   6.314   3.196  11.866  1.4348 -0.0889  1.9551
14748TIP3    H265660   6.356   3.339  11.838 -0.5044 -0.0988 -1.7813
14749TIP3   OH265661   4.256   4.258  12.691 -0.1176  0.0108  0.1631
14749TIP3    H165662   4.339   4.232  12.651 -0.9485  0.6721 -2.1172
14749TIP3    H265663   4.235   4.341  12.650 -0.8575  0.9656  2.3540
14750TIP3   OH265664   6.671   0.490   2.310 -0.1306  0.0426  0.2225
14750TIP3    H165665   6.582   0.457   2.302 -1.4839  3.6419 -1.8851
14750TIP3    H265666   6.665   0.559   2.377  0.9046  0.7809 -0.4112
14751TIP3   OH265667   0.213   2.633   5.568  0.4078 -0.2989 -0.2280
14751TIP3    H165668   0.265   2.567   5.612 -0.4229 -0.7812  0.0405
14751TIP3    H265669   0.201   2.702   5.633 -0.2463 -0.7057  0.0937
14752TIP3   OH265670   4.734   2.153  11.602  0.0179 -0.0019 -0.2969
14752TIP3    H165671   4.772   2.197  11.679  1.0590 -1.6512  0.1911
14752TIP3    H265672   4.668   2.213  11.570 -1.2099  0.3197  2.5434
14753TIP3   OH265673   2.842   6.769   6.136  0.6536  0.3968  0.2369
14753TIP3    H165674   2.801   6.855   6.146 -1.5412 -0.2081 -2.3107
14753TIP3    H265675   2.924   6.787   6.090  0.7026  1.2102  0.6228
14754TIP3   OH265676   5.447   3.173  13.433 -0.3177  0.2873  0.2627
14754TIP3    H165677   5.410   3.132  13.355 -0.6598  0.7608  0.1687
14754TIP3    H265678   5.441   3.106  13.501  1.2281 -0.6106 -0.4322
14755TIP3   OH265679   6.545   0.197  16.801  0.0830 -0.1312 -0.6861
14755TIP3    H165680   6.453   0.220  16.786  0.7020  1.4476 -2.3907
14755TIP3    H265681   6.573   0.255  16.872 -0.1902 -0.5526 -0.2250
14756TIP3   OH265682   2.110   3.826  12.910 -0.5366  0.5656  0.3627
14756TIP3    H165683   2.032   3.777  12.938 -0.7149  0.5999 -0.0679
14756TIP3    H265684   2.171   3.817  12.983  0.4715 -2.5120 -0.6914
14757TIP3   OH265685   3.322   2.109   5.492  0.6312  0.5268  0.2913
14757TIP3    H165686   3.351   2.024   5.525 -1.7061 -0.2962  0.4081
14757TIP3    H265687   3.289   2.091   5.404 -0.2285  1.2229  0.4489
14758TIP3   OH265688   0.949   3.855  11.655 -0.1360  0.3235  0.6804
14758TIP3    H165689   0.925   3.909  11.580 -0.7164  0.1159  0.7068
14758TIP3    H265690   1.033   3.816  11.631  0.8020  2.0241  1.0890
14759TIP3   OH265691   1.795   4.168  17.082 -0.2803  0.0330  0.0842
14759TIP3    H165692   1.800   4.079  17.116 -2.1442  0.0325  0.4225
14759TIP3    H265693   1.886   4.200  17.085  0.1746 -1.2959  1.4340
14760TIP3   OH265694   1.291   6.573  15.579  0.0097  0.4154 -0.5357
14760TIP3    H165695   1.327   6.519  15.509  0.4778  0.2510 -0.1780
14760TIP3    H265696   1.240   6.513  15.633 -1.0510  0.7022 -1.1973
14761TIP3   OH265697   0.873   6.780  13.415 -0.0439  0.2095  0.5794
14761TIP3    H165698   0.815   6.854  13.432  0.4860  0.7876 -0.0580
14761TIP3    H265699   0.874   6.772  13.320 -0.4533 -0.9207  0.6626
14762TIP3   OH265700   2.584   4.481   4.914 -0.3618  0.4242 -0.2133
14762TIP3    H165701   2.538   4.404   4.883  0.8268 -0.3193 -0.1914
14762TIP3    H265702   2.525   4.554   4.894 -1.1501 -0.3930 -0.9652
14763TIP3   OH265703   5.611   0.983  14.652 -0.3090  0.0123 -0.2591
14763TIP3    H165704   5.554   0.947  14.720 -0.1260  0.4637  0.1352
14763TIP3    H265705   5.615   0.914  14.585 -0.0513 -0.6521  0.4332
14764TIP3   OH265706   1.210   0.347  12.950 -0.4633 -0.4582  0.1651
14764TIP3    H165707   1.165   0.267  12.924  1.0561 -1.3683  0.2213
14764TIP3    H265708   1.219   0.341  13.045  0.6706 -0.8068  0.0538
14765TIP3   OH265709   1.071   0.426   3.391  0.3391 -0.1459  0.1618
14765TIP3    H165710   1.113   0.493   3.338 -1.4986  0.3823 -0.7116
14765TIP3    H265711   1.114   0.432   3.476 -0.3097  2.7504  0.3948
14766TIP3   OH265712   5.748   6.168  14.310  0.2900  0.0223  0.7830
14766TIP3    H165713   5.821   6.168  14.249  0.7266 -1.3956  1.2533
14766TIP3    H265714   5.741   6.258  14.341 -0.9556  1.2055 -2.4907
14767TIP3   OH265715   5.850   5.012  11.828 -0.7865 -0.0246 -0.2335
14767TIP3    H165716   5.894   5.072  11.767 -1.0643  0.2352 -0.1741
14767TIP3    H265717   5.763   5.049  11.841  0.0824  1.3376  2.3132
14768TIP3   OH265718   0.203   5.896  15.880  0.0954  0.3085  0.7496
14768TIP3    H165719   0.264   5.824  15.894 -0.4889 -0.1563  0.9490
14768TIP3    H265720   0.226   5.961  15.946 -0.0211 -0.1287  1.2299
14769TIP3   OH265721   0.426   2.622   4.092 -0.5049 -0.4104 -0.4364
14769TIP3    H165722   0.358   2.609   4.159 -0.8165  2.7563  0.0103
14769TIP3    H265723   0.504   2.581   4.130 -1.5607 -2.1263  0.0390
14770TIP3   OH265724   6.569   3.210   5.588 -0.1172  0.4399  0.1027
14770TIP3    H165725   6.604   3.281   5.533 -1.8362 -0.2085 -1.9732
14770TIP3    H265726   6.613   3.132   5.556 -0.6615  0.1430  0.0653
14771TIP3   OH265727   0.423   4.622  15.365 -0.2006 -0.2517 -0.3996
14771TIP3    H165728   0.448   4.546  15.418  0.3006  0.7740  0.8888
14771TIP3    H265729   0.341   4.596  15.323 -0.9080 -0.9163  1.3167
14772TIP3   OH265730   2.408   5.687  12.509 -0.4084 -0.0637 -0.0586
14772TIP3    H165731   2.449   5.637  12.439  1.1191  0.8662  0.1220
14772TIP3    H265732   2.369   5.763  12.466 -0.7575 -0.2453 -0.0666
14773TIP3   OH265733   1.453   1.461   5.949 -0.1058  0.2076 -0.2188
14773TIP3    H165734   1.375   1.516   5.946  0.9342  1.6629 -1.5419
14773TIP3    H265735   1.427   1.386   6.004 -1.7399  1.6770  1.1193
14774TIP3   OH265736   2.143   4.172   2.584 -0.6934  0.1102 -0.2421
14774TIP3    H165737   2.106   4.127   2.660 -0.3998  0.4562  0.1091
14774TIP3    H265738   2.236   4.150   2.587 -0.6356  0.3413 -0.3510
14775TIP3   OH265739   3.950   2.721   1.087 -0.5452  1.0332 -1.1891
14775TIP3    H165740   3.975   2.752   1.174 -0.7534 -0.8187 -0.4350
14775TIP3    H265741   4.016   2.759   1.029 -0.5132  2.4580 -0.2876
14776TIP3   OH265742   0.204   0.453   5.587 -0.0838 -0.1427 -0.1000
14776TIP3    H165743   0.133   0.466   5.525 -1.4429  1.0683  1.5746
14776TIP3    H265744   0.242   0.541   5.598  1.3606 -0.6822 -0.5832
14777TIP3   OH265745   3.450   6.482   0.489  0.6243  0.7567  0.1692
14777TIP3    H165746   3.385   6.430   0.537  0.5343 -0.4030 -1.1500
14777TIP3    H265747   3.496   6.530   0.557 -0.1307 -0.1078  1.3391
14778TIP3   OH265748   4.403   4.356  14.693 -0.0866 -0.1526  0.2659
14778TIP3    H165749   4.483   4.391  14.731  0.4174  0.3670 -1.1896
14778TIP3    H265750   4.428   4.271  14.657 -0.5400 -0.6171  1.0321
14779TIP3   OH265751   5.145   4.416  14.740  0.0693 -0.2432 -0.0742
14779TIP3    H165752   5.055   4.446  14.730 -0.4145 -0.4502  2.8930
14779TIP3    H265753   5.165   4.372  14.657 -1.6821  1.8606 -1.7425
14780TIP3   OH265754   4.100   0.760  10.837 -0.4728 -0.6409  0.1944
14780TIP3    H165755   4.149   0.704  10.897  1.5714  0.2337 -0.5502
14780TIP3    H265756   4.098   0.711  10.755 -2.5380 -1.4696  0.6646
14781TIP3   OH265757   3.439   0.405  14.412  0.1661 -0.1634 -0.2333
14781TIP3    H165758   3.454   0.311  14.398  1.1530  0.2489 -2.3944
14781TIP3    H265759   3.516   0.434  14.462  1.7757  0.0806 -2.6641
14782TIP3   OH265760   2.064   2.145   1.984 -0.1704  0.6762  0.0945
14782TIP3    H165761   2.138   2.088   1.962 -1.3909 -0.7229 -0.5917
14782TIP3    H265762   2.097   2.202   2.053  1.9426  1.0031 -1.0822
14783TIP3   OH265763   4.287   0.588   2.618 -0.1735 -0.8000  0.2062
14783TIP3    H165764   4.308   0.665   2.671 -1.8209 -0.0921 -0.0926
14783TIP3    H265765   4.249   0.625   2.537  0.4820 -1.8953 -0.6201
14784TIP3   OH265766   0.867   4.055   3.230 -0.0880 -0.5429 -0.4852
14784TIP3    H165767   0.898   4.080   3.317 -0.5996 -0.5359 -0.3018
14784TIP3    H265768   0.814   3.976   3.246  1.0284 -1.4092 -0.9765
14785TIP3   OH265769   4.726   4.894  14.847 -0.0009  0.7309  0.4220
14785TIP3    H165770   4.819   4.872  14.839 -0.2507 -0.2120  0.0394
14785TIP3    H265771   4.684   4.847  14.776 -0.6764  1.8393  0.0580
14786TIP3   OH265772   3.856   2.730  12.625 -0.3868  0.2576  0.4930
14786TIP3    H165773   3.858   2.703  12.533  4.0557  0.7785  0.2011
14786TIP3    H265774   3.889   2.653  12.672  2.6475  1.6125  0.8329
14787TIP3   OH265775   3.869   0.995   2.554  0.0642 -0.6803 -0.7701
14787TIP3    H165776   3.838   1.085   2.556  1.0020 -0.3615  0.3144
14787TIP3    H265777   3.941   0.996   2.491 -0.4828 -0.8905 -1.4243
14788TIP3   OH265778   5.535   1.662   3.129  0.2399 -0.4443 -0.0269
14788TIP3    H165779   5.507   1.753   3.134 -2.0435 -1.1292  0.8437
14788TIP3    H265780   5.480   1.624   3.061 -0.3520 -1.6512  1.0998
14789TIP3   OH265781   1.570   5.813  13.316 -0.5870 -0.2415 -0.2317
14789TIP3    H165782   1.482   5.799  13.281 -0.2479 -0.5534 -0.9614
14789TIP3    H265783   1.584   5.907  13.307  0.5714 -0.6093 -3.6092
14790TIP3   OH265784   5.350   4.885  17.173 -0.1274 -0.0304 -0.5035
14790TIP3    H165785   5.326   4.929  17.254  1.3962  1.2580 -0.6994
14790TIP3    H265786   5.354   4.954  17.107  0.1838 -0.7966 -1.3254
14791TIP3   OH265787   2.859   4.036  17.011 -0.5150  0.1711 -0.0273
14791TIP3    H165788   2.787   4.094  17.038  0.7253  2.3205 -1.0425
14791TIP3    H265789   2.921   4.038  17.084 -0.9634 -0.8008  0.3936
14792TIP3   OH265790   2.636   6.696   3.756  0.0734  0.1708 -0.0844
14792TIP3    H165791   2.668   6.742   3.833 -3.5065 -0.0571  1.7589
14792TIP3    H265792   2.605   6.765   3.697  3.0822  0.3634 -1.6536
14793TIP3   OH265793   6.353   5.889  16.048  0.1479 -0.5708  0.2208
14793TIP3    H165794   6.432   5.905  15.996  0.1029 -2.5755 -0.5709
14793TIP3    H265795   6.301   5.969  16.039  0.8341 -0.2804 -1.5879
14794TIP3   OH265796   4.802   5.734   2.132  0.2861 -0.1377 -0.2604
14794TIP3    H165797   4.868   5.767   2.193 -0.0940  0.2428 -0.0524
14794TIP3    H265798   4.723   5.785   2.152  0.2515  0.2299 -1.3019
14795TIP3   OH265799   4.164   4.885   1.170  0.3495 -0.3021  0.0208
14795TIP3    H165800   4.082   4.926   1.197  0.6870 -0.4936  1.4279
14795TIP3    H265801   4.139   4.796   1.143  0.0500 -0.2355  0.0731
14796TIP3   OH265802   3.173   2.882  14.543  0.4788  0.6237 -0.0965
14796TIP3    H165803   3.091   2.836  14.522 -0.4915  1.7590  1.0380
14796TIP3    H265804   3.164   2.967  14.500  1.5900  0.3464 -0.9113
14797TIP3   OH265805   6.584   5.344   6.359 -0.1229 -0.2215 -0.7483
14797TIP3    H165806   6.543   5.303   6.435 -0.3936  0.5735 -0.4617
14797TIP3    H265807   6.658   5.393   6.394  0.1907 -0.4352 -1.0910
14798TIP3   OH265808   3.114   2.060   0.377  0.0579 -0.4657 -0.1772
14798TIP3    H165809   3.137   2.131   0.318 -1.2924 -0.1706 -0.3924
14798TIP3    H265810   3.086   2.104   0.458  1.9813 -0.8636  0.7714
14799TIP3   OH265811   4.253   5.097  15.149 -0.0309  0.4101 -0.5770
14799TIP3    H165812   4.178   5.039  15.152 -0.3275  0.8060 -0.2609
14799TIP3    H265813   4.323   5.048  15.191 -0.5120  0.6133  0.4768
14800TIP3   OH265814   1.144   0.379   4.363 -0.1135 -0.1994 -0.2077
14800TIP3    H165815   1.164   0.464   4.404  0.4746  0.3341 -1.5292
14800TIP3    H265816   1.049   0.381   4.349  0.2270  2.0559 -3.7951
14801TIP3   OH265817   4.955   1.140   2.044  0.3550 -0.4586 -0.2554
14801TIP3    H165818   4.971   1.217   2.099  0.2521  0.9139 -2.0768
14801TIP3    H265819   5.042   1.110   2.019  0.3698 -0.5173 -0.1389
14802TIP3   OH265820   4.531   3.675  14.795  0.3401  0.2028 -0.2604
14802TIP3    H165821   4.507   3.584  14.779 -1.3561  0.6229 -0.3360
14802TIP3    H265822   4.544   3.680  14.890  1.0293 -0.2308 -0.3259
14803TIP3   OH265823   4.630   4.086  11.877  0.0286  0.0652 -0.3737
14803TIP3    H165824   4.665   4.031  11.947  1.2210 -2.0932 -2.5014
14803TIP3    H265825   4.707   4.126  11.837 -0.4581 -0.0412 -1.4586
14804TIP3   OH265826   1.245   5.729  16.834 -0.3919  0.0716  0.2450
14804TIP3    H165827   1.338   5.720  16.856 -0.6547  0.9842  1.9210
14804TIP3    H265828   1.245   5.750  16.740  1.0318 -0.5966  0.0542
14805TIP3   OH265829   4.513   4.245  15.950  0.4776  0.0124  0.3228
14805TIP3    H165830   4.529   4.185  16.023 -4.1624 -0.3361  1.3963
14805TIP3    H265831   4.483   4.188  15.879 -1.4752  0.7660  0.4814
14806TIP3   OH265832   4.259   2.147   2.684 -0.0501 -0.0340 -0.3436
14806TIP3    H165833   4.275   2.088   2.757 -0.7226 -0.3663 -0.4491
14806TIP3    H265834   4.184   2.108   2.639 -0.4273  0.8339 -0.4843
14807TIP3   OH265835   4.288   3.208  16.844  0.1162  0.2683 -0.3480
14807TIP3    H165836   4.335   3.268  16.787  0.1649  0.0531 -0.5385
14807TIP3    H265837   4.346   3.196  16.919  0.4079 -0.0554 -0.6174
14808TIP3   OH265838   3.691   0.500  15.484  0.3618 -0.4886  0.1757
14808TIP3    H165839   3.658   0.436  15.421 -3.4159  2.1156 -0.8783
14808TIP3    H265840   3.639   0.484  15.563 -0.3309  0.9143  0.0330
14809TIP3   OH265841   0.634   4.566  13.899 -0.1579 -0.4305  0.1221
14809TIP3    H165842   0.594   4.518  13.827 -0.1601  0.1017 -0.2327
14809TIP3    H265843   0.606   4.518  13.978 -2.4320  0.5680 -0.0130
14810TIP3   OH265844   6.015   0.959   1.544 -0.3575 -0.5439 -0.5353
14810TIP3    H165845   5.989   0.971   1.635 -0.1454 -0.3754 -0.4949
14810TIP3    H265846   6.110   0.945   1.548 -0.4879 -1.5071 -0.6495
14811TIP3   OH265847   4.602   0.818   3.218  0.0456 -0.3365 -0.0151
14811TIP3    H165848   4.554   0.795   3.138  1.1026 -2.4785 -0.1045
14811TIP3    H265849   4.549   0.781   3.289  1.1838 -2.2741 -0.0828
14812TIP3   OH265850   4.330   2.422   2.979 -0.3184  0.1045  0.0206
14812TIP3    H165851   4.251   2.450   2.932  0.3605 -0.6945 -1.6948
14812TIP3    H265852   4.315   2.330   2.998  0.1203 -0.0108 -0.1751
14813TIP3   OH265853   0.900   3.588   0.176 -0.3585 -0.3785  0.2718
14813TIP3    H165854   0.845   3.518   0.142 -0.6531 -0.3580  0.7048
14813TIP3    H265855   0.839   3.659   0.198  0.0976  0.9082 -2.2108
14814TIP3   OH265856   5.281   4.418   0.192  0.0156 -0.5655  0.3731
14814TIP3    H165857   5.262   4.324   0.188  1.7171 -0.9596  0.8216
14814TIP3    H265858   5.363   4.428   0.144  0.1202  0.6251  0.7694
14815TIP3   OH265859   1.553   6.523  10.535  0.1819 -0.0112 -0.6498
14815TIP3    H165860   1.501   6.528  10.455 -0.2378  1.5791 -0.3155
14815TIP3    H265861   1.506   6.460  10.590  0.2703 -0.8344 -1.5076
14816TIP3   OH265862   6.658   4.593   1.560 -0.4417  0.0399 -0.3026
14816TIP3    H165863   6.608   4.652   1.504 -0.3784  1.3707  0.9842
14816TIP3    H265864   6.727   4.647   1.597 -1.3251 -0.3646  2.1799
14817TIP3   OH265865   4.115   1.916   3.793 -0.6930 -0.3301  0.4179
14817TIP3    H165866   4.177   1.873   3.734 -0.0228 -0.8362  1.4556
14817TIP3    H265867   4.155   1.906   3.879 -1.7138  0.2843  0.9673
14818TIP3   OH265868   4.776   3.547   3.147  0.4522 -0.1365  0.2342
14818TIP3    H165869   4.830   3.593   3.211  1.8169  0.5426 -1.3427
14818TIP3    H265870   4.834   3.532   3.073 -1.2788 -0.2329 -1.1574
14819TIP3   OH265871   1.616   3.699  13.444  0.1816  0.3947  0.5467
14819TIP3    H165872   1.549   3.768  13.448 -1.1317 -0.8165  0.3180
14819TIP3    H265873   1.571   3.620  13.474  1.3471 -0.5876 -0.1913
14820TIP3   OH265874   1.082   3.273  14.820  0.1226  0.6967  0.0136
14820TIP3    H165875   1.124   3.187  14.825  0.0972  0.7602  1.7071
14820TIP3    H265876   1.027   3.268  14.742 -2.1819 -1.9174  1.6230
14821TIP3   OH265877   5.165   2.699   0.342  0.0386  0.2114 -0.4644
14821TIP3    H165878   5.197   2.752   0.415  1.1224 -1.7083  0.5133
14821TIP3    H265879   5.227   2.627   0.335 -1.2490 -0.8283 -1.9023
14822TIP3   OH265880   1.292   3.801   5.404 -0.1899  0.3092  0.0229
14822TIP3    H165881   1.383   3.771   5.402  0.0035  0.5005  2.6232
14822TIP3    H265882   1.297   3.893   5.379  0.1844  0.0813 -0.7849
14823TIP3   OH265883   5.398   1.473   2.221  0.7090  0.7331  0.4029
14823TIP3    H165884   5.374   1.474   2.314 -1.4294  1.5666 -0.0824
14823TIP3    H265885   5.407   1.566   2.199 -0.2667  0.6258 -0.5244
14824TIP3   OH265886   1.301   5.992  11.702  0.8025  0.0491  0.3650
14824TIP3    H165887   1.219   5.956  11.668  0.7333  0.4686  0.0856
14824TIP3    H265888   1.306   6.080  11.665  1.5443 -0.0969  0.1104
14825TIP3   OH265889   4.472   2.635   3.115 -0.2184  0.0181  0.3470
14825TIP3    H165890   4.415   2.569   3.076 -0.1287  0.5139 -0.6713
14825TIP3    H265891   4.491   2.695   3.042 -0.7729  1.4884  1.3632
14826TIP3   OH265892   0.959   1.113  12.399  0.0036 -0.0538 -0.0273
14826TIP3    H165893   0.963   1.207  12.417 -1.4033  0.7472 -3.1747
14826TIP3    H265894   0.889   1.081  12.456  0.5742  0.7336  1.1706
14827TIP3   OH265895   2.868   6.759   1.605  0.5582 -0.1635  0.8393
14827TIP3    H165896   2.875   6.854   1.619 -0.0563  0.5853 -2.8496
14827TIP3    H265897   2.803   6.751   1.534  0.2604 -3.3992  1.3578
14828TIP3   OH265898   1.240   0.266   2.593  0.0750  0.0988  0.3606
14828TIP3    H165899   1.155   0.281   2.551  0.1672 -0.0650  0.1119
14828TIP3    H265900   1.301   0.257   2.520  0.2732  0.0174  0.5359
14829TIP3   OH265901   4.894   0.810  12.477  0.2331 -0.1170  0.0394
14829TIP3    H165902   4.823   0.749  12.458 -0.6854  0.9698 -0.0812
14829TIP3    H265903   4.856   0.896  12.463  1.7576  0.4812 -0.6647
14830TIP3   OH265904   4.676   1.398  12.518  0.4987 -0.0603  0.1437
14830TIP3    H165905   4.703   1.319  12.564 -0.5552 -1.4544 -1.4876
14830TIP3    H265906   4.739   1.406  12.446 -0.6673 -0.7279 -0.9964
14831TIP3   OH265907   0.471   0.510   5.426 -0.0624 -0.4475  0.0960
14831TIP3    H165908   0.518   0.547   5.351 -0.0727 -1.1317 -0.2562
14831TIP3    H265909   0.539   0.466   5.477 -0.2899 -1.3643 -0.3692
14832TIP3   OH265910   4.162   2.369  10.520 -0.2548  0.1753 -0.5918
14832TIP3    H165911   4.135   2.279  10.539  0.3913 -0.2427 -1.5578
14832TIP3    H265912   4.231   2.359  10.454 -1.3703  1.4696 -2.0111
14833TIP3   OH265913   3.477   1.393   0.363  0.3801 -0.1838 -0.2189
14833TIP3    H165914   3.497   1.486   0.377  0.5261 -0.2689  0.1612
14833TIP3    H265915   3.451   1.362   0.450 -1.7188 -0.0044 -0.7423
14834TIP3   OH265916   0.605   2.759  13.058  0.4214  0.3232 -0.0141
14834TIP3    H165917   0.638   2.756  12.968  3.0648  0.8467  0.8292
14834TIP3    H265918   0.648   2.836  13.096 -1.2874  0.5957  1.4874
14835TIP3   OH265919   3.381   1.349   4.546  0.4006 -0.2099 -0.2936
14835TIP3    H165920   3.336   1.433   4.545  0.5359 -0.0865  1.2542
14835TIP3    H265921   3.469   1.369   4.514  0.2589  0.1271 -0.4820
14836TIP3   OH265922   3.565   1.207   4.331  0.2165  0.4226  0.2460
14836TIP3    H165923   3.660   1.201   4.323  0.1196  0.3982 -0.9675
14836TIP3    H265924   3.537   1.118   4.352  0.4760  0.4943  0.9414
14837TIP3   OH265925   0.844   4.203   2.726  0.2890  0.1003  0.0890
14837TIP3    H165926   0.772   4.200   2.789  1.2990 -1.2283  1.2376
14837TIP3    H265927   0.914   4.153   2.768  1.4862  0.3979 -1.4934
14838TIP3   OH265928   6.760   2.810   1.325  0.5384 -0.4590  0.5956
14838TIP3    H165929   6.668   2.784   1.335  0.8348 -2.1786 -0.6995
14838TIP3    H265930   6.809   2.729   1.336  1.9796  0.5124  1.7126
14839TIP3   OH265931   2.121   1.996  17.009 -0.5604  0.0460  0.3675
14839TIP3    H165932   2.150   2.081  16.975 -3.5607  0.5747 -1.1880
14839TIP3    H265933   2.076   2.016  17.091  0.3644 -0.3459  0.9978
14840TIP3   OH265934   5.729   4.503  14.005  0.1283  0.0291 -0.0274
14840TIP3    H165935   5.737   4.512  14.100  0.1475 -1.1256  0.0894
14840TIP3    H265936   5.635   4.506  13.988  0.0796 -0.5869  0.1207
14841TIP3   OH265937   2.155   0.841   4.659 -0.2406  0.0776  0.3238
14841TIP3    H165938   2.062   0.853   4.677 -1.0114 -2.0030 -1.8204
14841TIP3    H265939   2.169   0.886   4.576  0.2098 -1.1762 -0.2998
14842TIP3   OH265940   1.112   6.535  12.676 -0.3977 -0.1311  0.4551
14842TIP3    H165941   1.083   6.605  12.734 -0.1230 -0.2629  0.7558
14842TIP3    H265942   1.066   6.457  12.709 -0.6263 -0.1149  0.1838
14843TIP3   OH265943   5.345   3.313  16.498 -0.0573  0.1723 -0.2736
14843TIP3    H165944   5.354   3.363  16.416  0.0515  1.1124  0.2921
14843TIP3    H265945   5.305   3.375  16.559  2.1944  0.3400  1.1365
14844TIP3   OH265946   2.534   5.201  11.531  0.1864 -0.3157 -0.1927
14844TIP3    H165947   2.457   5.256  11.541  0.9369  0.6001  0.7168
14844TIP3    H265948   2.530   5.169  11.441 -0.1603  1.3797 -0.7983
14845TIP3   OH265949   1.231   0.459   2.793 -0.3271  0.0635  0.1451
14845TIP3    H165950   1.172   0.452   2.869 -0.3962  2.7426  0.4398
14845TIP3    H265951   1.235   0.370   2.758 -1.4758 -0.9805  2.4002
14846TIP3   OH265952   5.943   0.946   3.794 -0.0051  0.5954 -0.3443
14846TIP3    H165953   5.858   0.901   3.797  0.2241  0.1891  0.1877
14846TIP3    H265954   5.924   1.029   3.750 -1.1316  1.4927  1.6976
14847TIP3   OH265955   1.283   5.285   0.096  0.4796  0.0521  0.7240
14847TIP3    H165956   1.347   5.343   0.137 -0.2467 -1.1209  3.7651
14847TIP3    H265957   1.334   5.233   0.034  2.2439  0.0563  2.0959
14848TIP3   OH265958   3.071   4.293  12.010 -0.5126 -0.3384  0.2239
14848TIP3    H165959   3.131   4.355  12.051 -0.7971 -0.1554  0.3607
14848TIP3    H265960   3.097   4.291  11.918  0.0679 -0.6802  0.3895
14849TIP3   OH265961   5.183   0.997   4.363 -0.0319 -0.5895 -0.2312
14849TIP3    H165962   5.265   1.004   4.411 -0.2354  1.1089 -0.0664
14849TIP3    H265963   5.151   1.087   4.356 -1.8544 -1.1876 -0.3310
14850TIP3   OH265964   2.649   4.803   2.617  0.0642  0.3157 -0.8297
14850TIP3    H165965   2.744   4.792   2.631  0.0394  1.1060  0.0763
14850TIP3    H265966   2.623   4.868   2.682 -1.1795 -0.1752 -0.8075
14851TIP3   OH265967   2.884   6.769   4.665 -0.8867  0.0102 -0.0322
14851TIP3    H165968   2.864   6.821   4.587 -0.5706  1.2308  0.6715
14851TIP3    H265969   2.834   6.811   4.735  0.4031  0.2048  0.8123
14852TIP3   OH265970   3.539   5.064   5.258 -0.3891 -0.0539 -0.0954
14852TIP3    H165971   3.630   5.073   5.286  0.0140 -1.6123 -0.7694
14852TIP3    H265972   3.506   4.987   5.305 -1.4882  0.7154  0.4269
14853TIP3   OH265973   2.832   1.216   4.702  0.1479 -0.1544  0.1310
14853TIP3    H165974   2.891   1.271   4.650  1.9328 -0.1433  2.0493
14853TIP3    H265975   2.848   1.127   4.670 -0.7550  0.1083 -1.1240
14854TIP3   OH265976   0.138   2.480  10.733  0.4196  0.2151 -0.0079
14854TIP3    H165977   0.122   2.491  10.639  0.6186 -1.3526 -0.2520
14854TIP3    H265978   0.166   2.389  10.742 -0.9660 -0.0987  1.7567
14855TIP3   OH265979   1.965   4.938   3.571 -0.2199  0.5705 -0.5880
14855TIP3    H165980   1.971   4.845   3.549  0.9093  0.7381 -1.0562
14855TIP3    H265981   1.872   4.959   3.560 -0.5052 -0.5122 -0.4091
14856TIP3   OH265982   0.837   2.452  16.921  0.4372 -0.0632  0.3249
14856TIP3    H165983   0.845   2.389  16.849  0.4921  0.5332 -0.2117
14856TIP3    H265984   0.789   2.525  16.882 -0.1912 -0.0454  1.1170
14857TIP3   OH265985   6.418   4.533  13.053 -0.2488  0.3970  0.2576
14857TIP3    H165986   6.422   4.556  13.146 -0.7776 -1.3806  0.7498
14857TIP3    H265987   6.331   4.497  13.040  0.0005  0.1379 -0.8125
14858TIP3   OH265988   1.455   0.809  16.847  0.1775  0.6799 -0.3852
14858TIP3    H165989   1.414   0.748  16.908 -0.7630 -0.9607 -2.5580
14858TIP3    H265990   1.382   0.844  16.795  0.9397  2.1411 -0.5255
14859TIP3   OH265991   5.208   5.652   3.461  0.4691  0.3347  0.4634
14859TIP3    H165992   5.245   5.740   3.454 -0.0180  0.4144 -2.1076
14859TIP3    H265993   5.185   5.629   3.371 -1.0616 -1.7232  1.3175
14860TIP3   OH265994   6.452   1.912   1.296 -0.0512  0.0289 -0.5877
14860TIP3    H165995   6.522   1.853   1.270 -1.5643 -1.7844 -0.6883
14860TIP3    H265996   6.410   1.938   1.214 -1.7074 -1.7564 -0.3606
14861TIP3   OH265997   6.282   2.344  14.407 -0.2627  0.1152 -0.0145
14861TIP3    H165998   6.290   2.432  14.370 -0.5276  0.4493  0.7122
14861TIP3    H265999   6.193   2.342  14.443  0.3222  0.1226  1.4607
14862TIP3   OH266000   1.941   1.755  14.892 -0.6535 -0.4597 -0.1060
14862TIP3    H166001   1.846   1.766  14.887 -0.6869 -0.9154 -0.4584
14862TIP3    H266002   1.963   1.698  14.819 -0.1843 -0.8757  0.3486
14863TIP3   OH266003   0.806   4.378   0.524  0.4509  0.2921  0.5367
14863TIP3    H166004   0.893   4.416   0.531  0.2903  0.5436  1.2237
14863TIP3    H266005   0.802   4.343   0.435  1.4119 -0.1225  0.6455
14864TIP3   OH266006   0.059   0.198   3.912 -0.3226  0.1525  0.3554
14864TIP3    H166007  -0.030   0.230   3.926 -0.8187 -0.9265 -0.2258
14864TIP3    H266008   0.060   0.111   3.952  0.7188  0.4616  1.0646
14865TIP3   OH266009   1.589   5.528   5.630  0.2896 -0.5275 -0.0868
14865TIP3    H166010   1.605   5.613   5.671  1.1571 -0.5603 -0.3508
14865TIP3    H266011   1.494   5.525   5.618  0.2982  0.6412 -0.5710
14866TIP3   OH266012   5.467   5.581   1.088  0.0932  0.0763  0.2310
14866TIP3    H166013   5.389   5.628   1.117 -1.6508 -1.0740 -2.1692
14866TIP3    H266014   5.456   5.492   1.122 -0.8473 -0.6706 -1.8214
14867TIP3   OH266015   2.885   6.432  15.071  0.4918  0.2580  0.5097
14867TIP3    H166016   2.917   6.471  15.153  2.5543  0.9916 -0.5692
14867TIP3    H266017   2.947   6.462  15.004 -0.4959 -1.2039 -1.1605
14868TIP3   OH266018   4.123   4.791   5.297  0.6524 -0.2564  0.1760
14868TIP3    H166019   4.184   4.817   5.366  0.5328  0.4581  0.0201
14868TIP3    H266020   4.140   4.697   5.284  1.1751 -0.2364  0.6677
14869TIP3   OH266021   4.134   1.400  14.704  0.0813 -0.1009  0.4210
14869TIP3    H166022   4.154   1.321  14.652  1.8463 -0.5188  1.6630
14869TIP3    H266023   4.087   1.457  14.643  0.1388 -1.4729 -0.9751
14870TIP3   OH266024   5.829   3.834   6.753 -0.2944 -0.1442 -0.4149
14870TIP3    H166025   5.855   3.813   6.843  0.5406 -2.9879 -1.2383
14870TIP3    H266026   5.734   3.843   6.758 -0.6717 -3.2585  0.3386
14871TIP3   OH266027   2.871   3.054   2.133 -0.6415  0.3342 -0.1694
14871TIP3    H166028   2.864   3.097   2.219  0.3681 -0.2677  0.2356
14871TIP3    H266029   2.948   3.095   2.093  0.5588 -1.3059  0.3733
14872TIP3   OH266030   0.357   4.884  16.600  0.1231  0.0126 -0.2311
14872TIP3    H166031   0.323   4.795  16.591  0.0330 -0.0328  0.4799
14872TIP3    H266032   0.401   4.883  16.685  2.3678 -0.0880 -1.3099
14873TIP3   OH266033   2.557   4.755   3.939 -0.1650 -0.1917  0.0406
14873TIP3    H166034   2.648   4.726   3.945 -0.0226  0.5384  1.8398
14873TIP3    H266035   2.514   4.717   4.015 -0.5824  2.0819  1.0116
14874TIP3   OH266036   6.422   3.224  12.216 -0.7073 -0.8616  0.7282
14874TIP3    H166037   6.451   3.168  12.288  0.7539 -2.0205 -0.6627
14874TIP3    H266038   6.468   3.189  12.139  0.6709  2.5312 -0.1695
14875TIP3   OH266039   0.683   1.226  14.223 -0.3498  0.2355 -0.3211
14875TIP3    H166040   0.731   1.143  14.222  0.1933  0.4897  1.5256
14875TIP3    H266041   0.595   1.203  14.195  0.2378 -0.6202 -1.6065
14876TIP3   OH266042   6.771   3.088   3.447 -0.1827 -0.1312 -0.0184
14876TIP3    H166043   6.839   3.155   3.453  0.2064 -0.2664 -2.0872
14876TIP3    H266044   6.819   3.006   3.435 -0.6875 -0.5326  0.6081
14877TIP3   OH266045   1.523   4.777  15.420  0.1931 -0.2163 -0.2801
14877TIP3    H166046   1.551   4.774  15.511  1.0831 -1.4585 -0.5739
14877TIP3    H266047   1.431   4.804  15.425  0.3780  0.2544  0.9444
14878TIP3   OH266048   5.676   4.794  11.815  0.3934 -0.0409  0.0415
14878TIP3    H166049   5.753   4.851  11.825  0.3490  0.5493 -2.3678
14878TIP3    H266050   5.640   4.787  11.903  2.2128  1.0923  0.9340
14879TIP3   OH266051   6.140   0.779   4.730  0.1216 -0.3445 -0.0026
14879TIP3    H166052   6.167   0.688   4.731 -0.2872 -0.4692  0.0093
14879TIP3    H266053   6.101   0.793   4.644  0.3735 -0.1246 -0.0818
14880TIP3   OH266054   6.397   4.753   4.832 -0.3832  0.0081 -0.4429
14880TIP3    H166055   6.358   4.703   4.904 -1.3844  1.2966 -0.0703
14880TIP3    H266056   6.400   4.690   4.759 -1.9577 -0.5220 -0.0990
14881TIP3   OH266057   5.401   5.300  13.113  0.0841  0.3046  0.0973
14881TIP3    H166058   5.374   5.209  13.123 -0.0918  0.4795  1.4179
14881TIP3    H266059   5.334   5.340  13.057 -1.1673  0.1779  1.4458
14882TIP3   OH266060   4.989   5.639   3.640 -0.1066  0.1308  0.2069
14882TIP3    H166061   5.057   5.627   3.574 -1.6760  0.2784 -1.5162
14882TIP3    H266062   5.004   5.568   3.703 -0.0532 -1.5976 -1.6559
14883TIP3   OH266063   2.185   2.994  16.549 -0.2375 -0.7281 -0.1910
14883TIP3    H166064   2.201   2.960  16.461  0.9430 -1.2338  0.2075
14883TIP3    H266065   2.171   2.916  16.602 -1.7352 -0.3965 -0.0541
14884TIP3   OH266066   2.140   0.999  12.595 -0.2545 -0.6856  0.2348
14884TIP3    H166067   2.232   0.973  12.591  0.6835  2.2010  0.3429
14884TIP3    H266068   2.131   1.066  12.527 -1.5945  0.8538  1.8123
14885TIP3   OH266069   2.276   5.903  11.664 -0.0064 -0.2248 -0.3614
14885TIP3    H166070   2.261   5.855  11.745  1.0444 -2.5262 -1.4271
14885TIP3    H266071   2.218   5.862  11.600 -2.4035  2.9254 -0.4313
14886TIP3   OH266072   1.919   0.855   2.607 -0.0351 -0.3250 -0.2663
14886TIP3    H166073   1.911   0.871   2.701 -0.5648 -2.2182  0.0537
14886TIP3    H266074   1.992   0.794   2.599 -1.3371 -1.9089 -0.8059
14887TIP3   OH266075   0.133   4.170   5.629 -0.2834 -0.1613  0.0211
14887TIP3    H166076   0.220   4.186   5.591 -1.6229  1.5939 -2.6089
14887TIP3    H266077   0.103   4.256   5.658 -1.3472 -0.6594  0.4705
14888TIP3   OH266078   3.711   4.265   0.872  0.3756 -0.3131  0.3777
14888TIP3    H166079   3.733   4.198   0.807 -0.6696  0.2053 -0.5527
14888TIP3    H266080   3.795   4.304   0.896  0.6808  0.5962 -1.9308
14889TIP3   OH266081   3.712   0.701   3.546 -0.0988  0.0640 -0.2873
14889TIP3    H166082   3.657   0.780   3.546  0.8833  0.8328 -2.6451
14889TIP3    H266083   3.794   0.729   3.505  0.8595 -1.8359  0.2290
14890TIP3   OH266084   1.172   4.263   3.644 -0.3537 -0.0845 -0.1318
14890TIP3    H166085   1.180   4.216   3.727  0.3366 -1.7808 -1.1145
14890TIP3    H266086   1.246   4.232   3.592  0.2933  2.3086 -0.7662
14891TIP3   OH266087   0.943   6.519   2.898  0.2330 -0.1459  0.8481
14891TIP3    H166088   0.862   6.522   2.848  0.6399  0.5423  0.2056
14891TIP3    H266089   0.915   6.512   2.989 -0.5232 -1.9388  0.5251
14892TIP3   OH266090   5.115   6.436   4.627 -0.2895 -0.1096 -0.0847
14892TIP3    H166091   5.034   6.386   4.613 -0.2467 -0.1774 -0.0867
14892TIP3    H266092   5.169   6.380   4.682 -1.2158  0.9214  1.9883
14893TIP3   OH266093   6.122   5.097  11.895  0.3936 -0.4395  0.0356
14893TIP3    H166094   6.083   5.178  11.861  0.9682  0.4126  1.3267
14893TIP3    H266095   6.137   5.043  11.817 -0.2506  0.5858 -0.8255
14894TIP3   OH266096   3.648   3.244   3.867  0.3519  0.4310  0.0665
14894TIP3    H166097   3.697   3.320   3.834 -0.6393  0.7144 -0.8296
14894TIP3    H266098   3.574   3.236   3.807 -1.0619  0.4167  1.7279
14895TIP3   OH266099   4.051   4.638  11.720  0.6478 -0.0918  0.1821
14895TIP3    H166100   4.141   4.607  11.731  0.7519 -0.6915 -1.8809
14895TIP3    H266101   4.056   4.732  11.738  1.7649 -0.0611 -0.1569
14896TIP3   OH266102   5.370   4.556  16.467 -0.1230  0.4335  0.1774
14896TIP3    H166103   5.313   4.548  16.544  0.6259  1.3200  0.8566
14896TIP3    H266104   5.413   4.641  16.478  2.8618 -1.0103  0.7937
14897TIP3   OH266105   0.713   5.014   1.583  0.0670 -0.3595 -0.5712
14897TIP3    H166106   0.745   4.942   1.528 -1.1094 -0.4589 -1.1576
14897TIP3    H266107   0.629   5.037   1.544 -0.1333  0.5123  0.3678
14898TIP3   OH266108   1.789   5.280  12.417  0.2355  0.4596 -0.1692
14898TIP3    H166109   1.783   5.187  12.438 -2.3371 -0.0210 -2.4647
14898TIP3    H266110   1.793   5.324  12.502  0.4880 -1.6670  0.9888
14899TIP3   OH266111   5.469   5.636  16.089 -0.0312 -0.2260 -0.6950
14899TIP3    H166112   5.422   5.604  16.166 -1.7132 -0.0144 -1.5793
14899TIP3    H266113   5.428   5.719  16.069 -0.0225 -0.5480 -2.1570
14900TIP3   OH266114   5.931   5.991   4.107  0.1104  0.6406 -0.2389
14900TIP3    H166115   5.987   6.066   4.084  0.0291  0.4665 -1.0377
14900TIP3    H266116   5.941   5.982   4.201 -1.3871  2.9085  0.2250
14901TIP3   OH266117   6.366   5.925   5.642 -0.0221 -0.3069 -0.0781
14901TIP3    H166118   6.284   5.905   5.686  0.7710 -0.5155  1.3605
14901TIP3    H266119   6.434   5.900   5.704  1.1707 -0.9195 -1.5498
14902TIP3   OH266120   0.073   4.136   1.099 -0.0276 -0.1224  0.0241
14902TIP3    H166121   0.020   4.119   1.021  1.2171 -0.2435 -0.8223
14902TIP3    H266122   0.010   4.165   1.164 -1.0344  0.5549 -1.1953
14903TIP3   OH266123   1.772   6.688  15.331 -0.4183 -0.2318  0.2900
14903TIP3    H166124   1.817   6.745  15.393  0.1690 -0.3512 -0.0223
14903TIP3    H266125   1.719   6.747  15.278  0.0063 -0.0033  0.1189
14904TIP3   OH266126   4.906   4.207  12.237  0.4127  0.3415 -0.0526
14904TIP3    H166127   4.970   4.253  12.291  1.1041 -0.8109  0.1418
14904TIP3    H266128   4.946   4.204  12.149  0.4672 -0.0424 -0.0186
14905TIP3   OH266129   3.938   0.202  15.285  0.4230 -0.5054  0.0615
14905TIP3    H166130   3.930   0.202  15.189 -0.1262  1.0373  0.0815
14905TIP3    H266131   4.031   0.185  15.301  0.2792 -2.2476 -0.6712
14906TIP3   OH266132   0.034   0.260  15.313 -0.5912  0.4069  0.0047
14906TIP3    H166133   0.103   0.296  15.369 -0.2794  0.0942 -0.1695
14906TIP3    H266134   0.073   0.180  15.277 -0.3144  1.2466 -1.6528
14907TIP3   OH266135   6.450   6.584  14.143  0.0238 -0.4814 -0.4105
14907TIP3    H166136   6.390   6.602  14.216 -0.1263  0.7484 -0.8190
14907TIP3    H266137   6.494   6.503  14.168  1.1918  0.7632  1.8397
14908TIP3   OH266138   0.373   6.450   4.246  0.5092  0.2063 -0.2205
14908TIP3    H166139   0.298   6.505   4.269  0.3599 -0.0225 -0.1589
14908TIP3    H266140   0.418   6.433   4.329 -0.0913 -0.7088 -0.0675
14909TIP3   OH266141   2.916   5.145   2.239  0.5482  0.2345  0.2003
14909TIP3    H166142   2.881   5.223   2.283 -0.8393 -0.0751 -0.3052
14909TIP3    H266143   2.847   5.079   2.249  0.7954 -0.2724 -1.2224
14910TIP3   OH266144   5.671   0.268  14.518  0.5709 -0.2952 -0.4189
14910TIP3    H166145   5.649   0.278  14.425  1.1147  1.8504 -0.3639
14910TIP3    H266146   5.592   0.295  14.564  0.8272  0.1761 -0.2547
14911TIP3   OH266147   4.897   2.118  13.527  0.2262  0.2938  0.4799
14911TIP3    H166148   4.809   2.139  13.494  0.6222 -0.9517 -1.5805
14911TIP3    H266149   4.956   2.166  13.469  0.9274  1.5546  2.1918
14912TIP3   OH266150   1.920   6.579   5.438 -0.0197 -0.4880  0.0911
14912TIP3    H166151   1.885   6.667   5.444  0.3378 -0.2620 -0.9191
14912TIP3    H266152   1.881   6.532   5.512 -2.7024 -0.3547 -1.1123
14913TIP3   OH266153   6.142   5.920   6.063 -0.0347  0.1947 -0.6118
14913TIP3    H166154   6.157   6.012   6.044 -1.1704  0.5025 -0.0740
14913TIP3    H266155   6.051   5.915   6.092  0.0800 -1.0574 -0.3852
14914TIP3   OH266156   3.546   0.034   0.752  0.9237 -0.0797 -0.6198
14914TIP3    H166157   3.574  -0.054   0.779  0.2775  0.1306  0.8292
14914TIP3    H266158   3.497   0.020   0.671  2.7103 -0.7807 -1.6313
14915TIP3   OH266159   5.014   2.314   5.927 -0.7248 -0.7770 -0.5090
14915TIP3    H166160   5.093   2.276   5.965 -0.0521  0.4651 -0.6001
14915TIP3    H266161   4.946   2.298   5.992  0.0933  0.0546  0.5928
14916TIP3   OH266162   4.356   6.085  15.956  0.0065  0.4251 -0.2723
14916TIP3    H166163   4.435   6.100  15.904  0.4450  1.0344  0.5357
14916TIP3    H266164   4.291   6.142  15.917  0.9106  2.5154  1.0738
14917TIP3   OH266165   5.934   3.242   2.405 -0.0667  0.0262 -0.4421
14917TIP3    H166166   5.976   3.159   2.427  2.2154  1.4754  1.0802
14917TIP3    H266167   6.004   3.297   2.371 -1.2997  1.6809 -0.4510
14918TIP3   OH266168   6.260   5.560  13.474  0.4358  1.0241  0.5022
14918TIP3    H166169   6.176   5.557  13.429  0.5130  0.5970  0.3803
14918TIP3    H266170   6.324   5.570  13.404  0.6729 -1.1219  0.3561
14919TIP3   OH266171   4.816   5.137   1.643  0.1014 -0.8011 -0.0878
14919TIP3    H166172   4.864   5.126   1.561  2.7074  4.0533  0.3957
14919TIP3    H266173   4.733   5.178   1.617  0.0348 -1.1424 -0.4121
14920TIP3   OH266174   2.815   2.972   0.350  0.4805  0.1018  0.2760
14920TIP3    H166175   2.785   3.019   0.429  0.1225  0.2400  0.0598
14920TIP3    H266176   2.740   2.976   0.290  1.4392  1.8335 -0.9006
14921TIP3   OH266177   3.407   0.377  16.984 -0.3037  0.5668  0.2870
14921TIP3    H166178   3.384   0.400  17.075  0.6432  1.1682  0.3843
14921TIP3    H266179   3.406   0.281  16.983  1.2374  0.5068  1.3651
14922TIP3   OH266180   1.908   3.154  13.428  0.0770 -0.5891 -0.5325
14922TIP3    H166181   1.825   3.199  13.411 -0.4149 -1.0514  0.5564
14922TIP3    H266182   1.957   3.161  13.346 -0.7064  0.3983 -0.9254
14923TIP3   OH266183   1.587   2.927   3.122  0.3503  0.3086  0.0019
14923TIP3    H166184   1.597   2.948   3.215  1.0435  1.5095 -0.3261
14923TIP3    H266185   1.659   2.973   3.079 -0.0159 -0.1525 -1.1490
14924TIP3   OH266186   5.701   2.508   0.615 -0.4715 -0.3333  0.2434
14924TIP3    H166187   5.636   2.437   0.621  1.9266 -2.7219 -0.3138
14924TIP3    H266188   5.759   2.493   0.690  0.9222  0.1282 -0.7186
14925TIP3   OH266189   6.397   2.116   3.321 -0.4827 -0.3015 -0.1565
14925TIP3    H166190   6.369   2.140   3.409 -1.9166 -0.0572 -0.6563
14925TIP3    H266191   6.389   2.020   3.318  0.4068 -0.3955  0.2421
14926TIP3   OH266192   1.384   2.165   6.533 -0.4657  0.0662  0.0743
14926TIP3    H166193   1.353   2.081   6.568  0.6770  0.0535  1.1026
14926TIP3    H266194   1.477   2.168   6.556  0.9081 -0.7060 -4.4340
14927TIP3   OH266195   4.731   2.819  16.636 -0.2928  0.1456 -0.6571
14927TIP3    H166196   4.645   2.777  16.626 -0.5837  0.8677 -1.2431
14927TIP3    H266197   4.784   2.780  16.567  0.3744 -1.5441  0.7370
14928TIP3   OH266198   5.232   3.641  11.049 -0.0500  0.0595 -0.6173
14928TIP3    H166199   5.193   3.554  11.038 -1.7540  0.3318  2.1247
14928TIP3    H266200   5.159   3.701  11.037  0.7626  1.0139 -0.8694
14929TIP3   OH266201   4.501   6.572  11.638 -0.1910  0.0428 -0.1911
14929TIP3    H166202   4.426   6.524  11.673  0.7818 -0.7202  0.9217
14929TIP3    H266203   4.490   6.661  11.671 -0.6079 -0.0519 -0.0655
14930TIP3   OH266204   6.788   6.614  15.148 -0.0472  0.9784  0.4632
14930TIP3    H166205   6.739   6.683  15.104 -1.3245  0.1385  0.4770
14930TIP3    H266206   6.768   6.626  15.241  0.0908  0.8718  0.5075
14931TIP3   OH266207   1.652   4.324  11.288 -0.5225 -0.3404  0.2114
14931TIP3    H166208   1.685   4.235  11.300  0.7499 -0.0583 -0.8182
14931TIP3    H266209   1.720   4.380  11.326 -1.3697  0.1876  0.9616
14932TIP3   OH266210   5.869   6.584   3.168 -0.4285  0.1589  0.3407
14932TIP3    H166211   5.872   6.503   3.219 -0.8489  0.2432  0.5092
14932TIP3    H266212   5.813   6.642   3.220 -0.6209  0.3469 -0.0739
14933TIP3   OH266213   1.302   5.323   4.545 -0.0991  0.1896 -0.3770
14933TIP3    H166214   1.266   5.292   4.628  0.4926  0.9694  0.1769
14933TIP3    H266215   1.381   5.371   4.569  1.3322 -1.4242 -1.5554
14934TIP3   OH266216   3.668   3.750   3.282  0.4069 -0.4459 -0.0918
14934TIP3    H166217   3.602   3.681   3.285 -0.0365 -0.0151  0.3648
14934TIP3    H266218   3.718   3.732   3.203 -1.0069 -0.1165 -1.1093
14935TIP3   OH266219   3.657   0.130  15.683  0.3641  0.0309 -0.5347
14935TIP3    H166220   3.685   0.116  15.592 -0.1094  1.2510 -0.9019
14935TIP3    H266221   3.578   0.077  15.692  1.3569 -1.4663 -0.2667
14936TIP3   OH266222   4.109   1.313   3.868  0.1584  0.3271  0.4318
14936TIP3    H166223   4.096   1.256   3.793 -0.1532 -0.4255  1.0441
14936TIP3    H266224   4.055   1.390   3.850 -1.3956 -0.6666  0.7373
14937TIP3   OH266225   1.772   1.193   3.239  0.1144  0.4423  0.3553
14937TIP3    H166226   1.695   1.188   3.183  1.8087 -0.9103 -2.0316
14937TIP3    H266227   1.844   1.216   3.180  1.3210  3.9379  2.8144
14938TIP3   OH266228   3.404   3.657  16.840 -0.6494  0.1006 -0.0248
14938TIP3    H166229   3.482   3.601  16.839 -1.2588 -0.7624 -0.5337
14938TIP3    H266230   3.384   3.668  16.932  0.0641  0.3145  0.1124
14939TIP3   OH266231   0.714   1.464   3.473 -0.5125  0.3107 -0.2203
14939TIP3    H166232   0.693   1.476   3.380 -0.6275 -1.9451 -0.5343
14939TIP3    H266233   0.728   1.370   3.482  2.2003  0.7860  1.5055
14940TIP3   OH266234   5.710   0.203   2.697 -0.4884  0.1102 -0.0638
14940TIP3    H166235   5.751   0.251   2.769  0.2739 -1.4803  0.6251
14940TIP3    H266236   5.654   0.139   2.741  0.9327 -1.7192 -0.7895
14941TIP3   OH266237   5.694   4.691  11.441  0.3399 -0.1730  0.0392
14941TIP3    H166238   5.623   4.712  11.380 -0.0596 -0.0451  0.5427
14941TIP3    H266239   5.668   4.608  11.480  0.3619 -0.0213  0.3774
14942TIP3   OH266240   5.176   1.927  15.688 -0.1300  0.2122  0.1364
14942TIP3    H166241   5.267   1.896  15.694  0.1857  1.0412 -0.1607
14942TIP3    H266242   5.126   1.848  15.666  0.3259 -0.5083  1.5313
14943TIP3   OH266243   6.620   3.092  13.648 -0.4010 -0.1420  0.4340
14943TIP3    H166244   6.700   3.140  13.669 -0.2409  0.4677 -1.3634
14943TIP3    H266245   6.650   3.006  13.617 -0.3011  0.4645 -1.2962
14944TIP3   OH266246   5.364   2.351   3.259  0.3471 -0.0202 -0.1006
14944TIP3    H166247   5.436   2.308   3.214  1.0498  0.1980  0.7844
14944TIP3    H266248   5.330   2.414   3.196  0.6742 -0.3967 -0.6606
14945TIP3   OH266249   3.507   5.970   2.486 -0.1658  0.5950 -0.6899
14945TIP3    H166250   3.537   5.900   2.427 -0.7171 -1.3723  1.2234
14945TIP3    H266251   3.436   6.013   2.437  0.0278 -0.3350 -1.8413
14946TIP3   OH266252   4.989   0.265   5.839  0.1777  0.8349 -0.1163
14946TIP3    H166253   5.029   0.256   5.752 -0.6984  2.9423 -0.7880
14946TIP3    H266254   5.062   0.258   5.900  1.2414  2.0788 -1.1913
14947TIP3   OH266255   2.080   3.354  12.358 -0.5400 -0.7034  0.1604
14947TIP3    H166256   2.082   3.427  12.419 -0.6817 -0.6589  0.1114
14947TIP3    H266257   1.993   3.357  12.318 -0.8995 -1.4719  0.8583
14948TIP3   OH266258   1.004   2.896  16.394  0.7195  0.1488  0.1626
14948TIP3    H166259   0.961   2.872  16.311 -1.3843 -1.8095  1.6795
14948TIP3    H266260   1.075   2.833  16.403  0.6980  0.1066  0.0452
14949TIP3   OH266261   5.120   5.489   4.490 -0.0979  0.1813  0.0596
14949TIP3    H166262   5.130   5.458   4.400 -1.7419  0.7040 -0.3458
14949TIP3    H266263   5.189   5.445   4.539 -0.0275 -1.1652 -1.1947
14950TIP3   OH266264   3.708   0.747  14.282  0.0106  0.0080  0.2952
14950TIP3    H166265   3.648   0.760  14.208  0.6524  0.3511 -0.1685
14950TIP3    H266266   3.767   0.677  14.254  0.2400  0.1197  0.4946
14951TIP3   OH266267   4.588   5.338  11.602  0.1879 -0.0140  0.5107
14951TIP3    H166268   4.652   5.386  11.655  1.4877 -1.3427  0.2250
14951TIP3    H266269   4.503   5.374  11.627  1.0262  1.6324  1.0961
14952TIP3   OH266270   2.794   3.777  10.455  0.0495  0.0111  0.9022
14952TIP3    H166271   2.870   3.757  10.400 -1.1507 -0.9516 -0.4603
14952TIP3    H266272   2.784   3.872  10.447  0.3883 -0.0099  0.1356
14953TIP3   OH266273   4.421   1.892   5.818  0.7648  0.0053 -0.2261
14953TIP3    H166274   4.493   1.936   5.863  2.0570 -1.9522 -0.2302
14953TIP3    H266275   4.464   1.842   5.748 -0.5294 -1.3835 -0.0875
14954TIP3   OH266276   5.937   5.448   2.910  0.2109 -0.0463  0.1584
14954TIP3    H166277   6.008   5.384   2.920  1.2439  0.6334 -2.0368
14954TIP3    H266278   5.979   5.523   2.868 -1.8303  0.2884 -1.4731
14955TIP3   OH266279   2.140   3.417   3.082 -0.1129  0.1095  0.5214
14955TIP3    H166280   2.121   3.482   3.149 -0.9303  1.0721 -0.5934
14955TIP3    H266281   2.212   3.455   3.031  0.4933 -0.6033  0.8193
14956TIP3   OH266282   4.369   6.413  15.054 -0.1381 -0.1074 -0.4339
14956TIP3    H166283   4.418   6.353  15.110 -0.5245 -0.8386 -0.8514
14956TIP3    H266284   4.281   6.415  15.092 -0.2235 -0.0952 -0.6271
14957TIP3   OH266285   0.868   6.266  16.708 -0.4540  0.3861 -0.1150
14957TIP3    H166286   0.797   6.300  16.762  0.1460 -0.6369  1.4011
14957TIP3    H266287   0.948   6.294  16.753  0.0595 -1.2435  0.0504
14958TIP3   OH266288   6.484   0.618   6.364 -0.3981 -0.3436 -0.1366
14958TIP3    H166289   6.568   0.572   6.366 -0.4336 -0.3872  0.9852
14958TIP3    H266290   6.434   0.575   6.295 -0.3509 -1.8806  0.7377
14959TIP3   OH266291   2.853   6.335   2.935  0.1355 -0.0838  0.0274
14959TIP3    H166292   2.904   6.378   3.004 -1.4537  1.0159  0.5737
14959TIP3    H266293   2.912   6.268   2.900  1.0687 -0.5935  2.3421
14960TIP3   OH266294   2.025   0.838   4.393  0.3286  0.3201 -0.3193
14960TIP3    H166295   2.021   0.934   4.387  0.5391  0.4537  1.3665
14960TIP3    H266296   1.951   0.809   4.339  2.1524  1.2500 -3.6165
14961TIP3   OH266297   4.654   6.518  12.398 -0.2922 -0.3759  0.7761
14961TIP3    H166298   4.659   6.612  12.413 -1.9706 -0.3511  1.4309
14961TIP3    H266299   4.733   6.483  12.437  1.1710  0.8830 -0.8693
14962TIP3   OH266300   2.124   2.389   0.413 -0.3976 -0.0052 -0.0138
14962TIP3    H166301   2.043   2.364   0.458  0.3619 -0.2202  1.2736
14962TIP3    H266302   2.130   2.484   0.427  0.2945 -0.2033  1.1503
14963TIP3   OH266303   3.890   0.567  12.003  0.2985 -0.1866 -0.2024
14963TIP3    H166304   3.935   0.629  11.945 -0.6408 -1.6236 -2.6354
14963TIP3    H266305   3.882   0.614  12.086  2.3911  1.7224 -0.9614
14964TIP3   OH266306   6.191   5.441   0.460 -0.0178 -0.7136 -0.3637
14964TIP3    H166307   6.144   5.454   0.378  0.2866 -2.1973 -0.8098
14964TIP3    H266308   6.263   5.504   0.458  0.1152 -0.8908 -1.3417
14965TIP3   OH266309   0.853   6.388  15.635  0.1197 -0.2686 -0.3089
14965TIP3    H166310   0.783   6.331  15.669 -2.6749  3.1294  0.2099
14965TIP3    H266311   0.816   6.476  15.638  4.8076  2.0069  0.8782
14966TIP3   OH266312   4.853   4.834  13.147  0.1468  0.5861  0.2225
14966TIP3    H166313   4.810   4.916  13.122  0.7423  1.2026  1.1616
14966TIP3    H266314   4.783   4.781  13.184  0.1533  1.6525  1.9044
14967TIP3   OH266315   0.712   2.108  11.804 -0.4727  0.3162 -1.2413
14967TIP3    H166316   0.792   2.142  11.844 -1.0244 -0.2802  0.4530
14967TIP3    H266317   0.730   2.016  11.788 -1.7844 -0.6139  2.0146
14968TIP3   OH266318   4.194   4.521  17.169 -0.0318 -0.0928  0.2625
14968TIP3    H166319   4.190   4.617  17.174 -0.5617 -0.1271  0.6206
14968TIP3    H266320   4.267   4.497  17.225 -0.0154  0.0911  0.3211
14969TIP3   OH266321   3.819   4.250   5.272  0.6180 -0.2029  0.8850
14969TIP3    H166322   3.883   4.321   5.264  0.4661 -0.2313 -0.8180
14969TIP3    H266323   3.745   4.290   5.318  0.3917  0.8706 -0.3582
14970TIP3   OH266324   5.726   2.474  10.966  0.3351 -0.2561 -0.2295
14970TIP3    H166325   5.670   2.469  11.044  0.3355  1.2205 -0.1040
14970TIP3    H266326   5.677   2.427  10.898 -1.1308  1.0794 -0.1500
14971TIP3   OH266327   1.299   5.488  16.560 -0.0935 -0.4754  0.4265
14971TIP3    H166328   1.346   5.405  16.550  1.4229  0.3130  0.6191
14971TIP3    H266329   1.304   5.508  16.654  1.5501  0.8861  0.1056
14972TIP3   OH266330   0.650   4.497  16.473 -0.2398  0.2468 -0.4069
14972TIP3    H166331   0.735   4.481  16.431 -1.1611 -0.4472 -2.0969
14972TIP3    H266332   0.669   4.562  16.541  1.2276  1.9887 -2.3408
14973TIP3   OH266333   5.748   1.615   3.507  0.2499 -0.4241 -0.5275
14973TIP3    H166334   5.805   1.678   3.463  0.5162 -0.7998 -0.7183
14973TIP3    H266335   5.666   1.663   3.521  0.7245  0.2347  0.0713
14974TIP3   OH266336   4.361   4.450  14.418 -0.1179  0.1021 -0.6604
14974TIP3    H166337   4.440   4.504  14.418  0.3434 -0.5115 -2.2576
14974TIP3    H266338   4.372   4.392  14.493  1.1298 -0.1971 -1.0429
14975TIP3   OH266339   0.203   0.144   1.788  0.0844 -0.0619  0.4401
14975TIP3    H166340   0.207   0.051   1.769 -1.0157  0.1709 -1.0631
14975TIP3    H266341   0.115   0.157   1.825 -1.4679  0.9431 -3.1647
14976TIP3   OH266342   0.496   6.428  13.668 -0.2573 -0.1064 -0.2561
14976TIP3    H166343   0.429   6.363  13.644  1.1894 -0.8794 -2.5283
14976TIP3    H266344   0.534   6.393  13.749 -1.4876 -0.5106  0.1749
14977TIP3   OH266345   4.743   0.538  15.406 -0.2371 -0.2504 -0.1782
14977TIP3    H166346   4.721   0.514  15.496 -1.2092 -1.5529 -0.7168
14977TIP3    H266347   4.758   0.632  15.408  1.6058 -0.5160  1.6818
14978TIP3   OH266348   1.816   2.695  16.089  0.2424 -0.0003 -0.1671
14978TIP3    H166349   1.786   2.635  16.022  1.4843 -2.2291  1.1645
14978TIP3    H266350   1.912   2.689  16.087  0.3453  0.7462  1.0383
14979TIP3   OH266351   1.878   3.969   2.153  0.4489 -0.3184  0.1350
14979TIP3    H166352   1.858   3.877   2.138  1.5074 -0.7197  1.0264
14979TIP3    H266353   1.949   3.968   2.218  1.6487  1.0639 -1.0881
14980TIP3   OH266354   2.626   5.578   0.055  0.4705  0.1480 -0.2282
14980TIP3    H166355   2.657   5.537  -0.026  0.0364 -1.4644  0.3890
14980TIP3    H266356   2.705   5.596   0.105  0.6966  0.5629 -0.7182
14981TIP3   OH266357   2.056   2.195   3.183 -0.2294  0.3577 -0.1903
14981TIP3    H166358   2.093   2.255   3.119 -1.7791 -0.3334 -1.7966
14981TIP3    H266359   2.132   2.148   3.219  0.7058  1.1137 -1.1326
14982TIP3   OH266360   0.754   5.379  13.951 -0.4985 -0.2891 -0.5408
14982TIP3    H166361   0.688   5.314  13.928 -0.5177 -0.1071 -1.0099
14982TIP3    H266362   0.831   5.355  13.900 -0.2646 -0.3713 -0.1607
14983TIP3   OH266363   0.180   5.573  14.359  0.1282  0.3726 -0.1821
14983TIP3    H166364   0.177   5.498  14.299  0.0011  0.5732 -0.4324
14983TIP3    H266365   0.227   5.541  14.436  1.8464  0.6023 -1.0827
14984TIP3   OH266366   5.223   4.503   3.311 -0.2296 -0.1930 -0.3051
14984TIP3    H166367   5.254   4.528   3.397  2.6166  1.5700 -1.6896
14984TIP3    H266368   5.180   4.418   3.324  0.1283  0.0046  2.7871
14985TIP3   OH266369   0.374   0.494   4.572  0.3487  0.3464  0.3405
14985TIP3    H166370   0.313   0.563   4.546  1.1261  1.0190  0.2752
14985TIP3    H266371   0.342   0.416   4.527 -0.1715  0.8006 -0.0947
14986TIP3   OH266372   2.883   0.283   6.184  0.2300  0.2810  0.2017
14986TIP3    H166373   2.895   0.368   6.142  2.1624 -1.1626 -2.4677
14986TIP3    H266374   2.789   0.276   6.200 -0.0630  2.5375 -0.2570
14987TIP3   OH266375   1.625   0.091  15.236  0.0677  0.0750 -0.5247
14987TIP3    H166376   1.642   0.098  15.142  1.2011 -2.2192 -0.5731
14987TIP3    H266377   1.542   0.044  15.241  0.1244 -0.0145 -0.4119
14988TIP3   OH266378   4.520   1.866   6.264 -0.1303  0.3867  0.6115
14988TIP3    H166379   4.465   1.912   6.201 -1.2723 -0.9022  0.6322
14988TIP3    H266380   4.571   1.805   6.211 -1.0796 -0.6867  0.9208
14989TIP3   OH266381   3.328   1.311   2.243  0.0063  0.9995  0.0887
14989TIP3    H166382   3.268   1.286   2.313  0.8618 -0.3082  0.3922
14989TIP3    H266383   3.279   1.293   2.163 -0.5182  1.3049  0.3315
14990TIP3   OH266384   3.899   5.378   2.945 -0.1041 -0.2351 -0.0940
14990TIP3    H166385   3.830   5.440   2.923  2.3733  1.8402 -2.8763
14990TIP3    H266386   3.853   5.299   2.975 -3.5599  1.2235 -1.1141
14991TIP3   OH266387   0.545   3.710   2.372  0.2806 -0.3411  0.5365
14991TIP3    H166388   0.490   3.632   2.380  1.4008 -1.4701 -1.7101
14991TIP3    H266389   0.483   3.780   2.349 -0.3733 -1.5079 -1.5919
14992TIP3   OH266390   3.756   6.156  15.582  0.2375  0.5232 -1.1879
14992TIP3    H166391   3.832   6.214  15.576  0.1847  0.9754  1.3320
14992TIP3    H266392   3.793   6.068  15.585  0.6789  0.7329 -0.1191
14993TIP3   OH266393   4.683   5.008  12.128  0.0894 -0.7496  0.1510
14993TIP3    H166394   4.687   5.102  12.147  0.8253 -0.6160 -0.5784
14993TIP3    H266395   4.729   4.967  12.201  1.5841 -0.3624 -0.5303
14994TIP3   OH266396   6.222   6.557  12.451 -0.5580 -0.0325 -0.1732
14994TIP3    H166397   6.250   6.552  12.360 -1.0250  1.6396 -0.4473
14994TIP3    H266398   6.142   6.610  12.448 -0.6085  0.0045  1.2025
14995TIP3   OH266399   3.365   1.852  11.916 -0.6669  0.2920  0.3643
14995TIP3    H166400   3.374   1.920  11.849  1.6252  1.9288  2.1697
14995TIP3    H266401   3.274   1.857  11.944 -1.3801  0.3232 -1.7701
14996TIP3   OH266402   1.335   2.648   0.601 -0.1397 -0.1123 -0.2735
14996TIP3    H166403   1.293   2.660   0.516 -2.2050  1.0171  0.8190
14996TIP3    H266404   1.378   2.731   0.618 -0.9621  0.2017  0.3709
14997TIP3   OH266405   2.352   0.136   2.977  0.1978  0.1265 -0.2959
14997TIP3    H166406   2.405   0.188   3.037  1.5632 -0.0549 -1.2997
14997TIP3    H266407   2.345   0.190   2.898 -1.4496  0.2971 -0.0712
14998TIP3   OH266408   5.816   5.382  14.995  0.4301  0.5585  0.4000
14998TIP3    H166409   5.769   5.373  15.077 -0.3403 -4.0966 -0.3080
14998TIP3    H266410   5.897   5.332  15.008  1.4477  1.7301 -1.0070
14999TIP3   OH266411   0.611   0.428   2.900  0.2193  0.3359 -0.1977
14999TIP3    H166412   0.580   0.445   2.990  2.4869 -1.1025  0.9346
14999TIP3    H266413   0.596   0.334   2.887  0.0969  0.4925 -1.2823
15000TIP3   OH266414   2.130   4.410   1.648  0.0864  0.0026 -0.4354
15000TIP3    H166415   2.180   4.348   1.701  0.4521  0.3727 -0.3393
15000TIP3    H266416   2.181   4.418   1.567 -0.2213 -0.2001 -0.6487
15001TIP3   OH266417   5.607   5.128  14.118 -0.6621 -0.1006  0.2224
15001TIP3    H166418   5.678   5.153  14.059 -0.4977 -0.7971  0.1214
15001TIP3    H266419   5.613   5.033  14.125 -1.1232 -0.0956  0.8029
15002TIP3   OH266420   4.514   4.742   0.931  0.0608 -0.2502  0.2820
15002TIP3    H166421   4.434   4.784   0.961 -0.3859 -1.9688  1.6991
15002TIP3    H266422   4.490   4.650   0.919  1.0103 -0.2126 -2.5974
15003TIP3   OH266423   4.719   5.215  16.638  0.2608  0.1590 -0.5686
15003TIP3    H166424   4.709   5.310  16.630  1.9481  0.5727  1.2162
15003TIP3    H266425   4.684   5.194  16.724  4.1162  0.0552  1.2087
15004TIP3   OH266426   5.575   0.527   0.923 -0.1646  0.1949  1.1007
15004TIP3    H166427   5.528   0.447   0.900 -0.8802  1.3694 -2.2013
15004TIP3    H266428   5.662   0.498   0.950 -0.4318 -1.7249  0.0574
15005TIP3   OH266429   2.452   5.714  15.232 -0.4067 -0.6425  0.1410
15005TIP3    H166430   2.518   5.718  15.301  0.5322 -1.5252 -0.6738
15005TIP3    H266431   2.496   5.750  15.154 -0.9706 -0.9710 -0.3385
15006TIP3   OH266432   6.264   6.592   4.041 -0.1951  0.5439  0.1426
15006TIP3    H166433   6.267   6.683   4.068 -1.9868  0.6744  0.0232
15006TIP3    H266434   6.228   6.594   3.952  1.7159 -0.1659 -0.7074
15007TIP3   OH266435   1.754   6.052  14.925 -0.3169 -0.1727  0.3811
15007TIP3    H166436   1.704   6.057  14.843 -0.0507  0.0805  0.2336
15007TIP3    H266437   1.696   6.004  14.985 -0.1479 -1.1411 -0.2122
15008TIP3   OH266438   1.513   1.518  16.746  0.0463  0.2972 -0.4514
15008TIP3    H166439   1.450   1.542  16.678  0.0536  1.6460 -0.0092
15008TIP3    H266440   1.514   1.422  16.744 -1.3549  0.2636 -1.0593
15009TIP3   OH266441   2.249   0.688  15.917 -0.3149 -0.2922 -0.0031
15009TIP3    H166442   2.330   0.717  15.960  0.9427 -1.3774 -1.5369
15009TIP3    H266443   2.203   0.769  15.894  2.0188  0.5279 -2.1840
15010TIP3   OH266444   6.014   5.500  12.002 -0.1753 -0.1603  0.3259
15010TIP3    H166445   5.994   5.526  11.912 -2.7728 -1.7635  0.3475
15010TIP3    H266446   5.954   5.552  12.056  1.3788  0.8114  1.1977
15011TIP3   OH266447   4.790   3.488   2.611  0.5156  0.4475  0.7337
15011TIP3    H166448   4.854   3.545   2.653 -0.1547  1.2797  0.6777
15011TIP3    H266449   4.781   3.413   2.669  1.2404  0.5182  0.9386
15012TIP3   OH266450   3.943   5.944  13.065 -0.1883  0.3292 -0.1879
15012TIP3    H166451   3.981   5.999  13.133  0.4294  0.2397 -0.4537
15012TIP3    H266452   3.875   5.999  13.025  0.3395  0.8576 -0.3681
15013TIP3   OH266453   5.969   4.460   1.273 -0.0722 -0.1710  0.0427
15013TIP3    H166454   6.033   4.469   1.202 -0.8099 -0.2386 -0.6433
15013TIP3    H266455   5.986   4.373   1.309 -1.3666 -1.2078 -1.7485
15014TIP3   OH266456   4.986   6.560   0.283 -0.5202  0.1429  0.0178
15014TIP3    H166457   4.896   6.533   0.300  0.1603 -1.3987  1.4432
15014TIP3    H266458   4.979   6.625   0.213 -2.4975 -2.0525 -1.9872
15015TIP3   OH266459   6.402   0.431  13.014  0.3318  0.1054  0.3132
15015TIP3    H166460   6.435   0.480  13.090 -0.7907  1.4037 -0.0096
15015TIP3    H266461   6.315   0.467  12.998 -0.6220 -2.0915  0.1253
15016TIP3   OH266462   6.123   2.007  11.453  0.3218 -0.2963  0.4852
15016TIP3    H166463   6.186   2.008  11.380  1.4661 -2.9929  1.3222
15016TIP3    H266464   6.042   1.974  11.413  1.1878 -2.6330  0.5040
15017TIP3   OH266465   0.919   0.088   6.505  0.7736 -0.3059 -0.0488
15017TIP3    H166466   0.859   0.041   6.447 -0.6328  0.8298  0.4147
15017TIP3    H266467   0.920   0.037   6.586 -0.4844  0.2344  0.3349
15018TIP3   OH266468   0.183   4.077  12.646 -0.1533 -0.2473 -0.0651
15018TIP3    H166469   0.096   4.044  12.667 -0.0144 -1.1201 -0.8052
15018TIP3    H266470   0.170   4.170  12.630 -0.9238 -0.3414 -0.0320
15019TIP3   OH266471   0.124   5.385   1.070  0.1352  0.2084  0.1963
15019TIP3    H166472   0.193   5.320   1.053 -0.0752 -0.4847  1.8321
15019TIP3    H266473   0.069   5.345   1.137 -1.8124  0.8143 -0.9678
15020TIP3   OH266474   0.218   4.580  13.891 -0.1960  0.4909  0.6044
15020TIP3    H166475   0.204   4.504  13.834  0.7787  0.0190  0.9725
15020TIP3    H266476   0.139   4.582  13.946 -0.7149  0.3936 -0.1141
15021TIP3   OH266477   5.690   3.775  11.101  0.1723  0.2824 -0.4144
15021TIP3    H166478   5.615   3.728  11.064 -1.0493  2.8640 -1.4550
15021TIP3    H266479   5.744   3.798  11.025 -0.4035  2.3719 -0.2612
15022TIP3   OH266480   1.867   1.742  16.203  0.3025  0.1771 -0.5983
15022TIP3    H166481   1.960   1.764  16.194  0.0840  1.3311 -0.2156
15022TIP3    H266482   1.865   1.671  16.266  0.7711  1.8770  1.4286
15023TIP3   OH266483   4.960   4.749  12.543 -0.5369  0.1503 -0.7460
15023TIP3    H166484   4.880   4.724  12.589 -1.1918 -0.9449 -2.3740
15023TIP3    H266485   5.011   4.668  12.540  0.9773  0.9683  0.8109
15024TIP3   OH266486   6.312   0.673   4.321  0.3896  0.5287 -0.0165
15024TIP3    H166487   6.309   0.658   4.227 -0.8239 -0.7205  0.1805
15024TIP3    H266488   6.350   0.760   4.331 -3.0791  2.4653 -1.8675
15025TIP3   OH266489   2.386   0.914  12.468  0.4466  0.4976  0.2307
15025TIP3    H166490   2.371   0.879  12.380  2.0747 -0.8904  0.4555
15025TIP3    H266491   2.456   0.978  12.457  0.8431  0.1258  0.5268
15026TIP3   OH266492   1.299   2.446   1.808 -0.0255  0.5244  0.2098
15026TIP3    H166493   1.356   2.409   1.876  0.1746  2.6582  1.2960
15026TIP3    H266494   1.230   2.492   1.857 -0.8970  0.6473 -1.0732
15027TIP3   OH266495   0.269   1.798  11.952 -0.1327 -0.4102 -0.2939
15027TIP3    H166496   0.279   1.722  12.009  0.8834  0.3582  0.5874
15027TIP3    H266497   0.175   1.802  11.934 -0.2925 -1.4428  0.2457
15028TIP3   OH266498   1.067   4.996   0.332  0.0969  0.1250 -0.7574
15028TIP3    H166499   1.031   4.995   0.243  0.2605  0.3463 -0.8266
15028TIP3    H266500   1.143   4.939   0.328 -1.0218 -1.4757 -0.2749
15029TIP3   OH266501   1.572   0.110   4.848  0.1490 -0.1644  0.6936
15029TIP3    H166502   1.607   0.167   4.917  1.7955  0.5145 -0.6284
15029TIP3    H266503   1.641   0.045   4.834  0.3138  0.3461 -1.0282
15030TIP3   OH266504   4.249   4.448  10.618 -0.9832  0.0231  0.3641
15030TIP3    H166505   4.341   4.435  10.639 -1.3169 -2.6639  0.5560
15030TIP3    H266506   4.246   4.528  10.567  1.6016 -0.4392 -0.6166
15031TIP3   OH266507   6.331   2.913   0.461 -0.2595 -0.3781  0.2428
15031TIP3    H166508   6.282   2.989   0.492 -1.2680 -0.3013 -1.4292
15031TIP3    H266509   6.395   2.949   0.400 -1.0192 -0.8916 -0.8781
15032TIP3   OH266510   5.797   0.721  15.345  0.1063 -0.0547  0.1524
15032TIP3    H166511   5.826   0.692  15.259  0.2022 -2.3005  0.8860
15032TIP3    H266512   5.702   0.707  15.345  0.0289  0.4225  0.2613
15033TIP3   OH266513   4.716   4.027  14.477  0.2109 -0.3626 -0.3420
15033TIP3    H166514   4.803   3.998  14.504  0.0591 -0.4120  0.1020
15033TIP3    H266515   4.731   4.076  14.396  0.7429  0.2570  0.1251
15034TIP3   OH266516   3.510   1.861   3.964 -0.0859  0.2886  0.3127
15034TIP3    H166517   3.576   1.811   4.011 -0.2979  0.6946  1.0493
15034TIP3    H266518   3.517   1.831   3.873  1.3776  0.6232  0.3002
15035TIP3   OH266519   3.669   6.646  12.476 -0.2366  0.3515  0.8661
15035TIP3    H166520   3.673   6.565  12.425 -1.8888  1.9299 -2.0252
15035TIP3    H266521   3.759   6.659  12.507  0.5494 -1.4508 -0.4679
15036TIP3   OH266522   6.339   0.933   4.425 -0.4388  0.0952  0.0172
15036TIP3    H166523   6.431   0.939   4.448 -0.2977 -0.2791 -0.4284
15036TIP3    H266524   6.332   0.979   4.341 -0.6879  0.2454  0.1168
15037TIP3   OH266525   4.739   3.979  12.314  0.4288  0.0059  0.5863
15037TIP3    H166526   4.658   3.989  12.264  0.2870 -0.8868  0.6183
15037TIP3    H266527   4.801   4.040  12.273 -0.3422  0.9451  0.7710
15038TIP3   OH266528   0.815   2.647   5.910  0.6032 -0.2234  0.2930
15038TIP3    H166529   0.817   2.733   5.952 -1.9326 -0.1414  0.4173
15038TIP3    H266530   0.844   2.586   5.978  1.0457  0.3796  0.6520
15039TIP3   OH266531   0.518   2.108  13.660 -0.1086  0.2630 -0.9545
15039TIP3    H166532   0.437   2.140  13.619 -0.7923  1.6989  1.2718
15039TIP3    H266533   0.488   2.063  13.739  1.2260  0.3026 -0.3968
15040TIP3   OH266534   4.071   4.297   1.923  0.3703  0.5960  0.7611
15040TIP3    H166535   4.033   4.336   1.844 -0.9636 -0.3674  0.8968
15040TIP3    H266536   4.025   4.214   1.934  2.1978 -0.4049  1.2515
15041TIP3   OH266537   5.077   5.794  14.919 -0.1112  0.4947 -0.3035
15041TIP3    H166538   5.074   5.713  14.869  0.9918 -0.2764  0.8384
15041TIP3    H266539   5.058   5.862  14.854 -0.2399 -0.5922 -1.4486
15042TIP3   OH266540   3.949   0.017   5.499  0.4336  0.2888 -0.7118
15042TIP3    H166541   3.976   0.076   5.569 -0.1633  0.0587 -0.2726
15042TIP3    H266542   4.012   0.031   5.429  1.0940  0.4609 -0.0884
15043TIP3   OH266543   1.901   2.640  16.895 -0.2150 -0.1004 -0.0691
15043TIP3    H166544   1.912   2.570  16.830  0.0747  0.1018 -0.2409
15043TIP3    H266545   1.823   2.615  16.944 -0.5651 -0.1387 -0.6404
15044TIP3   OH266546   6.035   0.767   6.371  0.5443  0.6797 -0.0707
15044TIP3    H166547   6.089   0.748   6.294  0.0856  0.6011 -0.3754
15044TIP3    H266548   6.095   0.809   6.432  1.2405 -0.4188  0.0467
15045TIP3   OH266549   6.445   0.307  13.934 -0.3376 -0.6563 -0.0959
15045TIP3    H166550   6.533   0.303  13.972 -0.1599 -4.3857 -0.4630
15045TIP3    H266551   6.446   0.241  13.865 -3.2235 -0.2635 -0.6381
15046TIP3   OH266552   0.966   3.660   4.968 -0.2301 -0.1917  0.9194
15046TIP3    H166553   0.887   3.712   4.976  1.3792  2.6919 -0.5518
15046TIP3    H266554   1.000   3.680   4.881  1.2389 -2.7329  0.7959
15047TIP3   OH266555   1.144   1.809  12.839  0.5441  0.0764 -0.3426
15047TIP3    H166556   1.114   1.759  12.764  0.6365 -2.2441  1.0860
15047TIP3    H266557   1.091   1.889  12.838 -1.7122 -1.3567 -1.0520
15048TIP3   OH266558   2.995   4.601   1.587  0.2443 -0.6609 -0.1715
15048TIP3    H166559   3.029   4.676   1.538 -0.4006 -0.0503  0.2880
15048TIP3    H266560   3.058   4.590   1.658  0.0727 -0.2187  0.0572
15049TIP3   OH266561   2.495   5.245   1.922  0.7705 -0.5171  0.4259
15049TIP3    H166562   2.561   5.176   1.914 -0.9723 -2.1635 -0.4642
15049TIP3    H266563   2.516   5.289   2.005  3.0786 -0.8226  0.0607
15050TIP3   OH266564   0.587   5.927   6.592  0.1132  1.0219  0.0046
15050TIP3    H166565   0.619   6.007   6.549  1.3723  1.0073  0.8767
15050TIP3    H266566   0.665   5.874   6.605 -0.7660 -0.5835 -0.9440
15051TIP3   OH266567   6.099   3.739   4.163 -0.0129 -0.2186  0.3263
15051TIP3    H166568   6.149   3.798   4.218  0.6862  0.8545 -1.4006
15051TIP3    H266569   6.044   3.796   4.109  0.5519 -1.1119 -1.2654
15052TIP3   OH266570   0.515   2.924   2.080  0.5767 -0.4588 -0.1001
15052TIP3    H166571   0.513   2.997   2.142  0.1849 -0.5446 -0.0079
15052TIP3    H266572   0.464   2.855   2.122  2.6607 -1.5814  0.7840
15053TIP3   OH266573   2.527   4.012   5.059 -0.0618 -0.3483  0.0860
15053TIP3    H166574   2.516   4.006   5.154  0.5950 -3.7712  0.0917
15053TIP3    H266575   2.620   4.030   5.047 -0.4140  1.6192  0.0308
15054TIP3   OH266576   3.051   3.578   3.170  0.4532  0.1879 -0.0902
15054TIP3    H166577   3.038   3.487   3.193  0.3946  0.2455  0.1034
15054TIP3    H266578   3.143   3.595   3.191  0.1398  0.5159  1.0409
15055TIP3   OH266579   1.072   4.840   4.026 -0.1489  0.2827 -0.0202
15055TIP3    H166580   1.139   4.904   4.051  0.1984  0.4121 -1.1967
15055TIP3    H266581   1.115   4.755   4.035  0.5300  0.4091 -1.6782
15056TIP3   OH266582   5.059   5.347  13.100  0.7383 -0.0052 -0.2411
15056TIP3    H166583   5.079   5.253  13.094  1.8788  0.2091 -0.0556
15056TIP3    H266584   5.000   5.354  13.175 -0.0541 -0.6679 -0.7864
15057TIP3   OH266585   3.107   4.222   2.555 -0.1047  0.6918  0.6823
15057TIP3    H166586   3.108   4.133   2.521 -0.1311  0.2733  1.7140
15057TIP3    H266587   3.142   4.276   2.485  0.1013 -0.1645  0.1183
15058TIP3   OH266588   6.147   2.997   0.910  0.4076  0.3107  0.4494
15058TIP3    H166589   6.059   2.969   0.934  1.3231 -1.7552  1.5725
15058TIP3    H266590   6.174   3.054   0.982  0.3897  0.1140  0.6107
15059TIP3   OH266591   5.191   1.031   1.993 -0.2679  0.3644  0.1144
15059TIP3    H166592   5.201   0.945   2.034 -0.7264  1.1919  2.0264
15059TIP3    H266593   5.163   1.011   1.903  1.7484 -1.5239 -0.1963
15060TIP3   OH266594   1.388   2.480  15.673  0.2416 -0.2732 -0.1389
15060TIP3    H166595   1.326   2.521  15.612  1.0297 -0.3526 -1.0123
15060TIP3    H266596   1.337   2.465  15.752 -0.5432  0.7650 -0.4216
15061TIP3   OH266597   2.820   4.906   1.347  0.0347  0.0763 -0.4550
15061TIP3    H166598   2.882   4.856   1.295 -1.8028 -2.7463 -0.1892
15061TIP3    H266599   2.803   4.851   1.423 -1.4417  1.5432  0.3465
15062TIP3   OH266600   1.878   3.576  17.047 -0.1010  0.0547  0.0489
15062TIP3    H166601   1.886   3.642  17.116  0.2832 -1.6124  1.6953
15062TIP3    H266602   1.840   3.500  17.091  1.5422 -1.5854 -1.2036
15063TIP3   OH266603   0.551   3.218  12.858  0.3550 -0.2775 -0.1427
15063TIP3    H166604   0.485   3.151  12.838 -0.6571  0.5083  0.4793
15063TIP3    H266605   0.503   3.285  12.907  1.9428 -0.4129  1.6847
15064TIP3   OH266606   2.644   0.877   0.038 -0.0039  0.1643 -0.0139
15064TIP3    H166607   2.557   0.863   0.076 -0.0764 -0.8225 -0.5154
15064TIP3    H266608   2.683   0.945   0.093 -0.8946  0.2494  0.5388
15065TIP3   OH266609   4.016   2.827  17.062 -0.3194  0.8371 -0.1032
15065TIP3    H166610   4.014   2.794  17.151 -1.3837 -1.7610 -1.0030
15065TIP3    H266611   3.961   2.905  17.063  0.5245  1.4644  1.6654
15066TIP3   OH266612   6.526   6.053   6.207  0.0449  0.8210  0.2663
15066TIP3    H166613   6.605   6.079   6.254  0.6163 -0.2995 -0.0290
15066TIP3    H266614   6.470   6.012   6.274  1.4547 -2.0815 -0.1646
15067TIP3   OH266615   3.668   6.776  11.627  0.0659 -0.1945  0.3135
15067TIP3    H166616   3.644   6.736  11.543  1.5304 -0.8775  0.1883
15067TIP3    H266617   3.586   6.784  11.674 -0.5129 -1.7665 -0.3587
15068TIP3   OH266618   1.556   5.517   0.956 -0.0885  0.3721  0.2556
15068TIP3    H166619   1.531   5.457   1.027  1.4747 -0.8711 -0.1902
15068TIP3    H266620   1.629   5.567   0.992  1.7975 -1.3824 -0.9206
15069TIP3   OH266621   4.044   2.372  13.913  0.4676  0.3515  0.0273
15069TIP3    H166622   4.069   2.428  13.840  2.8492  1.8141  1.8018
15069TIP3    H266623   4.102   2.296  13.905 -0.9576 -0.6925 -0.8963
15070TIP3   OH266624   4.797   2.516  14.591  0.1232  0.1178 -0.6586
15070TIP3    H166625   4.716   2.465  14.585  0.6135 -0.6528 -0.8204
15070TIP3    H266626   4.830   2.521  14.501  1.5632 -1.7686 -0.3094
15071TIP3   OH266627   0.780   6.220   0.298 -0.1003 -0.0301 -0.6100
15071TIP3    H166628   0.732   6.152   0.251 -0.9592  1.1373 -1.5012
15071TIP3    H266629   0.740   6.222   0.385 -1.3503  0.5534 -1.1666
15072TIP3   OH266630   5.744   5.586   1.080 -0.0852 -0.0987  0.0272
15072TIP3    H166631   5.649   5.591   1.082 -0.0372  1.3226 -0.6885
15072TIP3    H266632   5.774   5.673   1.108  0.9727  0.1445 -1.7240
15073TIP3   OH266633   5.465   0.327   1.195 -0.0203 -0.3714  0.1051
15073TIP3    H166634   5.400   0.394   1.221 -0.1156 -1.0182  1.6419
15073TIP3    H266635   5.421   0.277   1.126  0.0659  1.1368 -1.1088
15074TIP3   OH266636   5.540   2.691   1.785 -0.1283  0.4440 -0.1199
15074TIP3    H166637   5.612   2.657   1.837  0.5878  2.7853  0.5656
15074TIP3    H266638   5.552   2.653   1.698  0.4857 -1.0839  0.6119
15075TIP3   OH266639   2.103   6.211   5.975 -0.2415  0.1138  0.0112
15075TIP3    H166640   2.039   6.281   5.960 -0.7073 -0.2212  0.4422
15075TIP3    H266641   2.076   6.141   5.915 -0.6965 -0.2983  0.6863
15076TIP3   OH266642   4.921   6.743  14.739  0.1127 -0.2293  0.1181
15076TIP3    H166643   4.939   6.820  14.685  2.7129 -1.8585 -1.5454
15076TIP3    H266644   4.924   6.777  14.829  2.2182  1.5083 -0.4985
15077TIP3   OH266645   6.252   5.355  13.158  0.6615  0.4547  0.2394
15077TIP3    H166646   6.174   5.398  13.194  0.7891  1.0673 -0.1992
15077TIP3    H266647   6.324   5.386  13.212  0.6800  0.3342  0.2850
15078TIP3   OH266648   4.092   5.150  16.959 -0.4502  0.2124  0.0244
15078TIP3    H166649   4.114   5.135  17.050  2.4509 -1.8507 -0.8760
15078TIP3    H266650   4.155   5.215  16.929 -2.0215  1.6415 -0.3496
15079TIP3   OH266651   4.379   0.328  15.171 -0.4529 -0.1068  0.1572
15079TIP3    H166652   4.433   0.318  15.092 -0.0886 -0.1024  0.4052
15079TIP3    H266653   4.435   0.296  15.242 -1.5724 -2.3065  0.1434
15080TIP3   OH266654   5.562   5.381  12.113 -0.4960 -0.4028  0.5091
15080TIP3    H166655   5.547   5.391  12.019 -0.0209  1.5488  0.5927
15080TIP3    H266656   5.527   5.461  12.151 -1.0016 -1.3286  2.0503
15081TIP3   OH266657   4.073   5.871   1.704 -0.2748 -0.0384 -0.3277
15081TIP3    H166658   3.991   5.823   1.713  0.2246 -0.8967 -0.2452
15081TIP3    H266659   4.122   5.850   1.784  0.8374 -1.1638 -1.2651
15082TIP3   OH266660   1.252   2.389  13.877  0.0660 -0.4455 -0.0436
15082TIP3    H166661   1.330   2.362  13.925  0.4865 -0.0769 -0.5073
15082TIP3    H266662   1.204   2.445  13.939  0.8228  0.3845 -0.1922
15083TIP3   OH266663   5.130   1.715  14.455 -0.5232 -0.2584 -0.6045
15083TIP3    H166664   5.223   1.713  14.479 -0.1629 -0.6331 -1.9236
15083TIP3    H266665   5.130   1.713  14.359 -1.9016 -0.6351 -0.6241
15084TIP3   OH266666   5.298   3.212  12.215 -0.6170  0.5317 -0.4760
15084TIP3    H166667   5.223   3.221  12.156 -0.0001  0.8655 -1.2256
15084TIP3    H266668   5.273   3.142  12.275 -1.2210  0.1115 -1.1991
15085TIP3   OH266669   6.537   4.565  16.216  0.6290  0.3870 -0.1918
15085TIP3    H166670   6.580   4.606  16.291  0.3275  1.2830 -0.4996
15085TIP3    H266671   6.542   4.471  16.235 -1.6457  0.6172  2.1999
15086TIP3   OH266672   4.281   3.404  14.406  0.2402 -0.5144 -0.4381
15086TIP3    H166673   4.238   3.320  14.393  0.7411 -0.8603  0.1053
15086TIP3    H266674   4.348   3.387  14.472 -0.2252  0.4972  0.3373
15087TIP3   OH266675   0.143   6.439   5.351 -0.2027 -0.1323  0.3034
15087TIP3    H166676   0.078   6.507   5.371 -0.9097 -1.1615  1.5951
15087TIP3    H266677   0.207   6.484   5.296  0.1362  2.0035  2.2892
15088TIP3   OH266678   4.120   5.802  14.152 -0.4021  0.2342 -0.1645
15088TIP3    H166679   4.175   5.736  14.194 -0.4642 -0.9430 -1.8319
15088TIP3    H266680   4.180   5.874  14.132  0.0167 -0.0072  0.2143
15089TIP3   OH266681   4.776   3.126   0.914 -0.1485  0.5967  0.0674
15089TIP3    H166682   4.786   3.158   0.825  0.7751 -0.4695 -0.2393
15089TIP3    H266683   4.812   3.195   0.969  0.2038  0.8260 -0.4473
15090TIP3   OH266684   4.413   4.378   6.502  0.0810  0.3203  0.3005
15090TIP3    H166685   4.346   4.377   6.571  1.0455 -0.2475  1.2618
15090TIP3    H266686   4.491   4.414   6.545  0.6588  0.1074 -0.5423
15091TIP3   OH266687   5.567   5.794  16.459  0.1932  0.0026 -0.4599
15091TIP3    H166688   5.513   5.775  16.383 -0.0436  0.3864 -0.3959
15091TIP3    H266689   5.549   5.723  16.521 -0.6464  0.3981 -0.2322
15092TIP3   OH266690   2.024   1.143   5.077 -0.1590  0.4864  0.0913
15092TIP3    H166691   2.096   1.113   5.022 -0.4164 -1.0084  0.5311
15092TIP3    H266692   1.967   1.192   5.017  1.1979  1.7112 -0.2522
15093TIP3   OH266693   6.596   0.650   1.426 -0.4080  0.0749 -0.4449
15093TIP3    H166694   6.691   0.643   1.429 -0.2206  1.6366 -1.4031
15093TIP3    H266695   6.575   0.645   1.332 -1.1272  1.0286 -0.3464
15094TIP3   OH266696   1.062   3.597  11.097  0.1556 -0.6367  0.0663
15094TIP3    H166697   1.020   3.678  11.070  0.4511 -1.2938 -2.6313
15094TIP3    H266698   1.139   3.625  11.146  0.5090  0.7320 -1.2153
15095TIP3   OH266699   0.497   5.874  10.641  0.0449 -0.0659 -0.4006
15095TIP3    H166700   0.476   5.799  10.585 -2.0014  2.0033 -2.6271
15095TIP3    H266701   0.593   5.872  10.648  0.1153 -2.2913 -1.2153
15096TIP3   OH266702   6.187   4.884  12.683 -0.1569  0.3129  0.8529
15096TIP3    H166703   6.226   4.813  12.736  0.9558 -0.0859 -0.4379
15096TIP3    H266704   6.261   4.941  12.662 -0.7249  0.8830  0.3783
15097TIP3   OH266705   4.741   1.078  16.888 -0.1303 -0.3963  0.0141
15097TIP3    H166706   4.715   1.039  16.972 -1.6979 -0.3409 -0.4138
15097TIP3    H266707   4.811   1.140  16.911 -0.4178 -0.5051  1.2576
15098TIP3   OH266708   0.851   5.503  11.951 -0.0241 -0.1973 -0.2283
15098TIP3    H166709   0.759   5.478  11.961 -0.1190 -0.2170 -1.1423
15098TIP3    H266710   0.894   5.461  12.026 -0.3731 -2.0868 -1.0253
15099TIP3   OH266711   2.962   5.211  12.561  0.6485  0.3364  0.1636
15099TIP3    H166712   2.999   5.297  12.540 -0.3354  0.5266 -0.8564
15099TIP3    H266713   2.879   5.231  12.605  0.4341 -0.0852 -0.0478
15100TIP3   OH266714   0.158   4.962  11.990 -0.3781  0.4634  0.5994
15100TIP3    H166715   0.095   4.897  11.960 -1.7681  1.5218  1.1173
15100TIP3    H266716   0.140   5.040  11.938 -0.1562  1.0807  1.4138
15101TIP3   OH266717   0.949   2.392  16.181  0.2698  0.0450  0.3439
15101TIP3    H166718   0.874   2.452  16.188  1.4958  1.8487 -0.9707
15101TIP3    H266719   1.012   2.425  16.246  1.1930  0.5867 -0.7970
15102TIP3   OH266720   0.955   3.339  16.353 -0.1252  0.4508  0.3136
15102TIP3    H166721   0.924   3.282  16.424  0.6174  3.0346  2.9149
15102TIP3    H266722   0.945   3.286  16.274 -2.4435 -2.1018  2.0989
15103TIP3   OH266723   1.175   1.061   0.765 -0.3477  0.6177  0.1889
15103TIP3    H166724   1.131   0.976   0.760  2.5153 -0.9117 -1.2802
15103TIP3    H266725   1.179   1.091   0.674  0.2699  1.4409  0.4796
15104TIP3   OH266726   4.556   6.751   0.073  0.2533  0.4953 -0.2478
15104TIP3    H166727   4.479   6.772   0.021  0.9034 -0.9731 -1.9114
15104TIP3    H266728   4.527   6.680   0.131 -0.3100  1.7253  1.0192
15105TIP3   OH266729   1.690   1.238  11.514  0.2093 -0.1023  0.1589
15105TIP3    H166730   1.652   1.151  11.501  2.9499 -1.4829  0.7695
15105TIP3    H266731   1.714   1.266  11.426 -1.2623  0.3846 -0.1213
15106TIP3   OH266732   4.148   5.533  12.270  0.1892  0.1064  0.6800
15106TIP3    H166733   4.139   5.605  12.207  0.2072  0.8696  1.5383
15106TIP3    H266734   4.223   5.483  12.238 -0.2255  0.0703 -0.3014
15107TIP3   OH266735   4.655   2.904  12.819 -0.0550 -0.2696  0.0207
15107TIP3    H166736   4.658   2.979  12.878  1.2576 -0.2404 -0.0496
15107TIP3    H266737   4.566   2.905  12.783 -0.8447 -0.1625  1.8266
15108TIP3   OH266738   5.602   5.892  13.464  0.5395  0.4892 -0.2884
15108TIP3    H166739   5.673   5.878  13.401  0.7924 -0.7997  0.2555
15108TIP3    H266740   5.636   5.857  13.546 -0.3557  0.7728  0.2111
15109TIP3   OH266741   2.205   2.650  15.413  0.1392 -0.0025 -0.7359
15109TIP3    H166742   2.140   2.677  15.348  0.5297  3.0749  0.0271
15109TIP3    H266743   2.288   2.683  15.379  0.5390  0.5174  0.6891
15110TIP3   OH266744   1.737   3.637   6.220 -0.6536 -0.0240  0.0347
15110TIP3    H166745   1.718   3.609   6.309 -0.4052  0.7271  0.3354
15110TIP3    H266746   1.816   3.691   6.228 -1.0069  0.6031 -0.5417
15111TIP3   OH266747   0.818   1.464   1.020  0.3352 -0.4865 -0.0354
15111TIP3    H166748   0.786   1.549   1.049  0.6028 -0.1521 -0.6992
15111TIP3    H266749   0.743   1.406   1.029 -0.7826  0.4669 -2.3910
15112TIP3   OH266750   4.992   1.117  15.094 -0.0397 -0.1752 -0.2498
15112TIP3    H166751   4.956   1.190  15.144 -0.3466 -0.1291 -0.5312
15112TIP3    H266752   5.044   1.159  15.025  0.2890 -0.2358 -0.0400
15113TIP3   OH266753   3.870   2.265   5.267 -0.1041  0.0942  0.4370
15113TIP3    H166754   3.897   2.199   5.331  0.3611 -1.1071 -0.9577
15113TIP3    H266755   3.895   2.349   5.306  2.9047 -0.7693  0.5419
15114TIP3   OH266756   1.998   3.296  13.745 -0.6395  0.0213 -0.4709
15114TIP3    H166757   2.042   3.253  13.672 -0.3250 -1.8732  0.7747
15114TIP3    H266758   1.908   3.263  13.742 -0.8216  0.5040 -0.4205
15115TIP3   OH266759   1.727   6.141   0.390  0.1347  0.7438  0.1705
15115TIP3    H166760   1.692   6.212   0.443 -1.1161  0.0886  0.2576
15115TIP3    H266761   1.772   6.084   0.454  3.3768  2.6467 -0.1889
15116TIP3   OH266762   2.843   1.126   2.402 -0.0849  0.0768  0.0144
15116TIP3    H166763   2.808   1.054   2.349  1.8208 -0.7674 -0.1637
15116TIP3    H266764   2.787   1.127   2.479 -0.6507 -1.0694 -0.3490
15117TIP3   OH266765   2.139   2.788  13.036 -0.3591  0.2813 -0.0713
15117TIP3    H166766   2.135   2.867  12.981 -1.7568  0.8695  0.8224
15117TIP3    H266767   2.070   2.732  13.002 -1.7057  0.9412  1.4526
15118TIP3   OH266768   1.417   6.232   0.459 -0.2864  0.1854  0.2191
15118TIP3    H166769   1.332   6.273   0.439  0.4255  0.8518 -1.6028
15118TIP3    H266770   1.419   6.153   0.406 -0.4840 -0.8369  1.6555
15119TIP3   OH266771   4.720   4.121  12.542  0.5573 -0.3924  0.2739
15119TIP3    H166772   4.716   4.063  12.466 -0.3125  1.0527 -0.8520
15119TIP3    H266773   4.813   4.144  12.550  0.3220  3.1447 -3.4707
15120TIP3   OH266774   2.185   5.692  12.141  0.3682  0.0950  0.3886
15120TIP3    H166775   2.268   5.660  12.178  0.2763 -0.9125 -0.2404
15120TIP3    H266776   2.212   5.746  12.066  0.4617 -1.3367 -0.6644
15121TIP3   OH266777   6.554   4.889   1.047  0.2185 -0.0063  0.1870
15121TIP3    H166778   6.566   4.796   1.030  1.6947  0.4649 -1.5424
15121TIP3    H266779   6.470   4.910   1.006  0.0886 -0.4762  0.2054
15122TIP3   OH266780   0.379   3.320   6.456  0.3748 -0.5744  0.3214
15122TIP3    H166781   0.458   3.372   6.444  0.7738 -1.1741  0.3244
15122TIP3    H266782   0.307   3.382   6.441  0.8359  0.0225  0.5269
15123TIP3   OH266783   0.129   3.921   3.445 -0.3115  0.0476 -1.1840
15123TIP3    H166784   0.150   3.873   3.525 -0.3607  0.0582 -1.1649
15123TIP3    H266785   0.207   3.913   3.391 -0.7425 -1.0854 -1.6827
15124TIP3   OH266786   5.432   5.400   2.128 -0.6330 -0.0464 -0.0758
15124TIP3    H166787   5.414   5.348   2.206  0.1996  1.2471  1.0381
15124TIP3    H266788   5.349   5.401   2.080 -1.1537 -0.8910  0.7726
15125TIP3   OH266789   6.206   1.417  16.098  0.4126  0.0409  0.3586
15125TIP3    H166790   6.115   1.420  16.125 -0.0259  1.1845 -1.1310
15125TIP3    H266791   6.203   1.389  16.006  1.4649  1.1543 -0.0379
15126TIP3   OH266792   1.023   3.846  14.358 -0.3680  0.4174  0.1236
15126TIP3    H166793   1.078   3.802  14.422  2.1157 -0.0002 -2.1256
15126TIP3    H266794   0.940   3.798  14.361 -0.2077  0.1812  2.6722
15127TIP3   OH266795   3.590   1.858   3.697  0.0742 -0.4547 -0.0576
15127TIP3    H166796   3.556   1.919   3.631  1.1705 -0.5767 -0.7614
15127TIP3    H266797   3.685   1.864   3.688  0.2125 -1.6914  0.4092
15128TIP3   OH266798   5.484   1.979  11.715  0.2569 -0.0020 -0.5634
15128TIP3    H166799   5.431   1.902  11.734  0.0558  0.1697 -0.4179
15128TIP3    H266800   5.473   2.035  11.792  1.6255 -0.4958  0.0271
15129TIP3   OH266801   0.280   4.638  16.637 -0.2733 -0.3462 -0.4907
15129TIP3    H166802   0.289   4.592  16.721 -1.4626 -1.0651 -0.7412
15129TIP3    H266803   0.256   4.571  16.574  1.3284  0.0609 -1.6006
15130TIP3   OH266804   0.955   3.285  11.254  0.3842  0.1192  0.4600
15130TIP3    H166805   0.972   3.348  11.324  0.1211  0.8273 -0.0987
15130TIP3    H266806   0.898   3.332  11.193  0.5750 -0.5004 -0.2075
15131TIP3   OH266807   5.148   1.529  11.153 -0.1438  0.6235  0.1946
15131TIP3    H166808   5.176   1.437  11.158 -0.2612  0.5407 -0.5100
15131TIP3    H266809   5.204   1.567  11.085 -1.2155  0.6477 -0.6966
15132TIP3   OH266810   0.291   6.736  12.740  0.3088 -0.3746 -0.5654
15132TIP3    H166811   0.292   6.738  12.645  2.1877  0.3346 -0.5732
15132TIP3    H266812   0.340   6.814  12.766 -3.1859  1.5190  1.0735
15133TIP3   OH266813   3.105   3.755   2.182 -0.0923 -0.5039 -0.3229
15133TIP3    H166814   3.011   3.759   2.199  0.1761 -1.3124  1.7794
15133TIP3    H266815   3.132   3.846   2.173 -0.2848  0.4125  4.8773
15134TIP3   OH266816   4.873   1.445  12.317  0.1028 -0.0863 -0.2099
15134TIP3    H166817   4.813   1.427  12.245  0.1349 -1.3578  0.0639
15134TIP3    H266818   4.954   1.399  12.293 -0.2460 -1.4837  1.1377
15135TIP3   OH266819   0.377   6.737  14.007 -0.0917 -0.2185  0.1340
15135TIP3    H166820   0.286   6.726  14.037  0.0476  0.6422  0.9169
15135TIP3    H266821   0.374   6.716  13.914 -1.5403  1.9442 -0.3791
15136TIP3   OH266822   0.377   6.742   3.180 -0.5648 -0.2821  0.5184
15136TIP3    H166823   0.388   6.802   3.254 -1.1173 -1.5799  1.6968
15136TIP3    H266824   0.430   6.666   3.202 -0.6826 -0.6637 -0.4587
15137TIP3   OH266825   5.702   5.033  15.199  0.1881  0.8325  0.2073
15137TIP3    H166826   5.607   5.026  15.195  0.2487  0.6105 -1.6494
15137TIP3    H266827   5.720   5.059  15.289 -1.4352 -1.9146  1.4526
15138TIP3   OH266828   5.206   5.556   0.959  0.1218 -0.7324 -0.0534
15138TIP3    H166829   5.153   5.528   0.884 -1.3568  1.5772  0.0208
15138TIP3    H266830   5.296   5.539   0.933 -0.4304 -1.0518 -1.8684
15139TIP3   OH266831   5.322   4.567  11.274 -0.4942  0.1381 -0.0479
15139TIP3    H166832   5.395   4.506  11.274 -0.2175  0.4681 -0.1940
15139TIP3    H266833   5.257   4.527  11.216 -0.3997 -0.1157  0.0201
15140TIP3   OH266834   4.392   3.283  11.331  0.5539 -0.2233  0.2042
15140TIP3    H166835   4.408   3.298  11.238  1.9915  1.4014  0.6609
15140TIP3    H266836   4.328   3.212  11.333 -2.0182  1.8295 -2.1024
15141TIP3   OH266837   6.467   2.713   1.643  0.4252  0.1979  0.2487
15141TIP3    H166838   6.475   2.672   1.557  1.0999  0.5776  0.1247
15141TIP3    H266839   6.556   2.740   1.665  0.4914 -0.9741  1.6078
15142TIP3   OH266840   1.808   3.125   5.395  0.1265  0.6318 -0.3239
15142TIP3    H166841   1.727   3.175   5.403 -0.0258  0.2446  0.6764
15142TIP3    H266842   1.805   3.089   5.306 -0.4886  1.1237 -0.5143
15143TIP3   OH266843   3.018   2.502  14.498 -0.6985 -0.1211  0.4071
15143TIP3    H166844   3.106   2.487  14.463 -1.1713 -0.3746 -0.7262
15143TIP3    H266845   3.029   2.500  14.593  0.3511 -1.2014  0.2920
15144TIP3   OH266846   6.351   2.799  10.982  0.5362 -0.5238  0.1448
15144TIP3    H166847   6.416   2.773  11.047 -1.2013 -0.7542  1.9058
15144TIP3    H266848   6.361   2.894  10.975  1.2233 -0.5851  0.1949
15145TIP3   OH266849   2.894   4.950   3.778 -0.3171 -0.0978 -0.6217
15145TIP3    H166850   2.832   4.955   3.706 -0.6602  1.5538 -0.2385
15145TIP3    H266851   2.857   4.883   3.836 -2.1343  1.3036 -0.0788
15146TIP3   OH266852   1.466   5.553  13.715  0.7590  0.4507 -0.1225
15146TIP3    H166853   1.553   5.536  13.750  0.2601  1.2941  1.6333
15146TIP3    H266854   1.409   5.491  13.760  0.4810 -0.4508 -1.6352
15147TIP3   OH266855   1.153   2.027  10.940 -0.2148  0.1120 -0.0583
15147TIP3    H166856   1.168   1.942  10.981  0.2018  0.4585  0.5117
15147TIP3    H266857   1.149   2.007  10.846  2.5110 -0.2185 -0.1867
15148TIP3   OH266858   1.262   0.090  13.438 -0.0182 -0.4529 -0.7644
15148TIP3    H166859   1.307   0.077  13.354  0.8860 -0.5026 -0.2877
15148TIP3    H266860   1.245   0.001  13.470 -1.7159 -0.4595 -1.5688
15149TIP3   OH266861   5.983   5.995  13.995 -0.1798  0.1111  0.4602
15149TIP3    H166862   5.979   5.993  13.900  2.2104  0.8001  0.3002
15149TIP3    H266863   6.001   5.905  14.021  0.2887  0.1327  0.2012
15150TIP3   OH266864   2.841   5.758  13.541  1.1656  0.6206 -0.0956
15150TIP3    H166865   2.933   5.737  13.521  1.6208  2.2749  0.1010
15150TIP3    H266866   2.837   5.853  13.537  0.1953  0.8028  2.9848
15151TIP3   OH266867   1.237   4.057  17.145 -0.4560  0.1819  0.4387
15151TIP3    H166868   1.312   4.117  17.147  0.8786 -1.4332  0.6665
15151TIP3    H266869   1.165   4.109  17.180  0.5494  1.7770  0.2813
15152TIP3   OH266870   3.029   1.729  14.505 -0.0110  0.0214  0.6073
15152TIP3    H166871   2.983   1.709  14.424  1.1419  0.2422 -0.1241
15152TIP3    H266872   3.035   1.825  14.507 -0.5645  0.0486  1.2610
15153TIP3   OH266873   3.353   4.222  16.273  0.2897 -0.4837 -0.0718
15153TIP3    H166874   3.420   4.164  16.309 -0.0184 -0.1035  1.1528
15153TIP3    H266875   3.402   4.298  16.242  0.8990 -1.9607 -3.1592
15154TIP3   OH266876   1.891   1.948   0.913  0.1651  0.1265 -0.2758
15154TIP3    H166877   1.832   1.953   0.838 -1.0607  1.5307  0.7076
15154TIP3    H266878   1.978   1.943   0.875 -0.4170  0.9061 -1.8089
15155TIP3   OH266879   5.142   5.788  10.721 -0.1207 -0.1322 -0.0843
15155TIP3    H166880   5.074   5.852  10.743 -1.3701 -1.1408 -0.8774
15155TIP3    H266881   5.162   5.805  10.629 -0.7199 -1.0887 -0.4043
15156TIP3   OH266882   1.488   0.415  13.867  0.0510 -0.5046 -0.1109
15156TIP3    H166883   1.533   0.335  13.893 -0.0494 -0.3722  0.4848
15156TIP3    H266884   1.498   0.474  13.942  0.5288  0.2150 -0.7245
15157TIP3   OH266885   1.349   6.213  13.535  0.2776  0.0334  0.4928
15157TIP3    H166886   1.362   6.150  13.465  0.6614 -1.0976  1.5445
15157TIP3    H266887   1.259   6.244  13.524 -0.2822 -1.5087  0.5755
15158TIP3   OH266888   4.583   6.528  16.646 -0.1086  0.6754  0.1968
15158TIP3    H166889   4.561   6.597  16.583 -1.3519  0.6138  0.5401
15158TIP3    H266890   4.595   6.450  16.592  0.6319  0.9997 -0.1259
15159TIP3   OH266891   4.900   5.438  13.782  0.0217  0.1761 -0.1777
15159TIP3    H166892   4.981   5.393  13.806  0.1080  1.2601  1.8770
15159TIP3    H266893   4.856   5.380  13.720  2.6638 -0.1243 -1.8992
15160TIP3   OH266894   2.707   3.463   4.554 -0.3435 -0.0222  0.0141
15160TIP3    H166895   2.633   3.427   4.604 -0.2119  0.4923  0.5871
15160TIP3    H266896   2.666   3.511   4.482 -0.5281 -0.9917 -0.5445
15161TIP3   OH266897   1.727   4.996   2.494 -0.8747  0.4157  0.1214
15161TIP3    H166898   1.699   4.920   2.546 -0.6044  0.7715  0.8012
15161TIP3    H266899   1.646   5.030   2.457 -1.1499  0.4798  0.7612
15162TIP3   OH266900   3.905   3.082  17.020 -0.2717  0.6581 -0.2258
15162TIP3    H166901   3.818   3.117  17.000 -1.5236 -1.9534  0.2844
15162TIP3    H266902   3.926   3.119  17.106 -2.3512 -1.0394  1.1325
15163TIP3   OH266903   4.413   6.280  16.901 -0.1202  0.0677 -0.2289
15163TIP3    H166904   4.508   6.270  16.901 -0.1136  0.1318  0.0718
15163TIP3    H266905   4.381   6.203  16.853  0.0458 -0.3413  0.2984
15164TIP3   OH266906   0.698   6.207   3.838 -0.0396  0.3701 -0.8324
15164TIP3    H166907   0.635   6.275   3.860  1.7818  2.1358 -0.7407
15164TIP3    H266908   0.767   6.253   3.790  0.9551 -1.5417 -1.3199
15165TIP3   OH266909   1.457   4.558  12.838  0.0854  0.1514 -0.1371
15165TIP3    H166910   1.540   4.577  12.882 -1.3041  1.3969  2.1625
15165TIP3    H266911   1.423   4.481  12.882 -0.4628  0.2631 -0.3538
15166TIP3   OH266912   5.368   5.633  16.359 -0.8666 -0.2787 -0.0097
15166TIP3    H166913   5.360   5.550  16.406  0.6195 -0.2446  0.3485
15166TIP3    H266914   5.278   5.663  16.347 -1.3212 -0.6089  2.2268
15167TIP3   OH266915   2.063   2.570   1.728  0.7344 -0.4995 -0.0562
15167TIP3    H166916   1.995   2.502   1.726  0.5379 -0.3876  1.6082
15167TIP3    H266917   2.100   2.569   1.640 -1.9390 -0.0176 -1.2922
15168TIP3   OH266918   2.250   1.546   1.787  0.2045 -0.1727 -0.1570
15168TIP3    H166919   2.214   1.559   1.700 -2.5265  1.5555  1.0825
15168TIP3    H266920   2.217   1.460   1.814  2.1115 -1.3035 -1.1944
15169TIP3   OH266921   2.417   4.881   0.012  0.6891  0.0124  0.1063
15169TIP3    H166922   2.459   4.959   0.050  0.6795  0.5741 -1.0140
15169TIP3    H266923   2.444   4.881  -0.080  2.1247 -2.2877  0.4383
15170TIP3   OH266924   4.434   3.499  13.381 -0.0795  0.0527  0.1020
15170TIP3    H166925   4.498   3.466  13.318  0.1028  0.3341  0.1378
15170TIP3    H266926   4.384   3.422  13.408  0.5453 -0.2444  0.4159
15171TIP3   OH266927   3.134   2.881   1.858  0.5494 -0.4407 -0.3335
15171TIP3    H166928   3.083   2.962   1.858  1.5489  0.2278 -1.4799
15171TIP3    H266929   3.131   2.851   1.949 -2.4627 -0.8494 -0.4724
15172TIP3   OH266930   2.332   0.057   3.757  0.2613  0.2107 -0.1276
15172TIP3    H166931   2.269   0.051   3.684  0.1963  0.4768 -0.0966
15172TIP3    H266932   2.402   0.112   3.722  0.4934 -0.1153 -0.1731
15173TIP3   OH266933   1.085   5.382   2.246 -0.0072  0.4147 -0.2880
15173TIP3    H166934   1.067   5.344   2.332 -0.5949 -0.0133 -0.5929
15173TIP3    H266935   1.124   5.311   2.196 -0.8240  0.2957 -0.7661
15174TIP3   OH266936   0.641   2.872  15.461  0.1587  0.1280 -0.3308
15174TIP3    H166937   0.679   2.956  15.437 -1.6442  0.3869 -2.6732
15174TIP3    H266938   0.556   2.870  15.417 -0.3095 -2.5044  0.4716
15175TIP3   OH266939   6.664   3.308   0.808 -0.1716 -0.0870  0.5342
15175TIP3    H166940   6.675   3.377   0.743 -0.1210 -0.5948 -0.0009
15175TIP3    H266941   6.572   3.314   0.834 -1.4412 -2.5564 -2.7069
15176TIP3   OH266942   2.576   2.624   1.530  0.3833 -0.6565 -0.3670
15176TIP3    H166943   2.643   2.556   1.524  0.5121 -0.5222 -0.5123
15176TIP3    H266944   2.622   2.699   1.570  0.6226 -0.2058 -1.4364
15177TIP3   OH266945   4.871   6.742  10.604 -0.3421 -0.1714  0.8515
15177TIP3    H166946   4.857   6.785  10.689  0.3587  2.6157 -0.3192
15177TIP3    H266947   4.864   6.813  10.540 -1.1967 -2.2345 -1.4975
15178TIP3   OH266948   5.639   5.506   5.639  0.2020  0.0001 -0.7550
15178TIP3    H166949   5.647   5.419   5.677  1.2529  0.7374  0.8221
15178TIP3    H266950   5.550   5.508   5.603 -0.5346 -1.0907  0.8637
15179TIP3   OH266951   3.815   2.722  10.632 -0.0751 -0.7336  0.4759
15179TIP3    H166952   3.870   2.651  10.601  0.2336 -0.4762  0.4249
15179TIP3    H266953   3.877   2.791  10.656 -0.4314  0.2043 -1.1489
15180TIP3   OH266954   6.778   3.881  12.696 -0.7016 -0.5671  0.3653
15180TIP3    H166955   6.724   3.848  12.767 -2.4218 -2.3353 -1.6161
15180TIP3    H266956   6.745   3.836  12.618 -0.2527  2.6803 -1.9032
15181TIP3   OH266957   2.655   4.279  16.800 -0.2782 -0.1038 -0.0499
15181TIP3    H166958   2.585   4.335  16.766 -0.2327  0.0842  0.1692
15181TIP3    H266959   2.615   4.231  16.872 -0.3666 -0.4844 -0.3466
15182TIP3   OH266960   3.521   2.005   3.096 -0.0645  0.3623 -0.0204
15182TIP3    H166961   3.432   2.030   3.072 -0.5223  0.2107  1.4758
15182TIP3    H266962   3.539   1.927   3.043 -1.6940 -0.9902  1.3427
15183TIP3   OH266963   0.493   3.787   0.163  0.2648  0.1877  0.3550
15183TIP3    H166964   0.437   3.719   0.125  0.3608  0.2622  0.0757
15183TIP3    H266965   0.445   3.818   0.239 -0.7454  1.2266 -0.6656
15184TIP3   OH266966   4.424   3.270   0.641 -0.1083 -0.1158 -0.4185
15184TIP3    H166967   4.401   3.283   0.549  0.9084 -1.3279 -0.8593
15184TIP3    H266968   4.409   3.356   0.681  2.1923  1.2978 -2.3181
15185TIP3   OH266969   0.403   0.984  11.518 -0.9881  0.2291 -0.4381
15185TIP3    H166970   0.319   0.975  11.474 -1.6019  0.8625  0.5639
15185TIP3    H266971   0.451   0.904  11.496 -2.8054 -1.3258  1.0054
15186TIP3   OH266972   2.471   1.476   5.148  0.2741 -0.2800  0.1712
15186TIP3    H166973   2.514   1.561   5.152  0.2910 -0.2580 -0.3513
15186TIP3    H266974   2.413   1.474   5.224 -0.6148  0.7018 -0.4542
15187TIP3   OH266975   4.061   0.968   1.329 -0.6092 -0.2773 -0.2769
15187TIP3    H166976   4.011   0.925   1.398 -0.3916  0.2858  0.2351
15187TIP3    H266977   4.096   1.047   1.370 -0.9491  0.3661 -1.1800
15188TIP3   OH266978   2.328   2.237   6.503 -0.2756  0.6341  0.1484
15188TIP3    H166979   2.388   2.311   6.497  0.5535 -0.1072 -1.2178
15188TIP3    H266980   2.357   2.188   6.580 -0.4769  1.3950  0.7255
15189TIP3   OH266981   2.368   0.457  15.038 -0.3859 -0.0674 -0.5440
15189TIP3    H166982   2.275   0.437  15.030 -0.4757  0.2317 -0.2865
15189TIP3    H266983   2.371   0.537  15.091  0.0290 -0.2496 -0.2847
15190TIP3   OH266984   4.860   4.107   3.797  0.6131  0.4291 -0.3473
15190TIP3    H166985   4.944   4.061   3.786  0.8160  0.8474 -0.5666
15190TIP3    H266986   4.799   4.058   3.742  0.2940 -0.9325  1.1572
15191TIP3   OH266987   2.115   4.551   2.764  0.0125 -0.6991  0.4831
15191TIP3    H166988   2.062   4.630   2.752 -0.8270 -1.4621 -1.0405
15191TIP3    H266989   2.122   4.513   2.676  1.1917 -1.8304  1.0346
15192TIP3   OH266990   3.671   5.065   5.804 -0.1285  0.1173  0.5205
15192TIP3    H166991   3.595   5.113   5.771  1.9354  1.7237 -2.3737
15192TIP3    H266992   3.678   4.989   5.745  0.7763  0.2715  0.4186
15193TIP3   OH266993   5.789   6.702  12.043  0.5136  0.5055  0.0221
15193TIP3    H166994   5.720   6.764  12.067  0.3237 -0.6253  2.7772
15193TIP3    H266995   5.866   6.756  12.029 -1.0107  1.9242 -4.2532
15194TIP3   OH266996   4.732   6.559   1.737  0.4855  0.4459  0.1798
15194TIP3    H166997   4.766   6.474   1.765 -0.1569  0.0055 -0.3461
15194TIP3    H266998   4.810   6.610   1.715  0.8327 -0.6085 -1.1960
15195TIP3   OH266999   1.017   4.976  14.125 -0.1277  0.3204  0.2254
15195TIP3    H167000   1.014   5.020  14.210  0.3589 -0.0002  0.4143
15195TIP3    H267001   1.104   4.997  14.090 -1.2308  2.6302 -1.3925
15196TIP3   OH267002   1.557   4.972   0.213 -0.8951 -0.4176  0.2923
15196TIP3    H167003   1.490   4.961   0.146 -1.5029 -2.0907  1.1061
15196TIP3    H267004   1.638   4.940   0.172 -1.0463 -0.4404  0.0096
15197TIP3   OH267005   5.686   4.492  13.139 -0.4580 -0.9921  0.5903
15197TIP3    H167006   5.675   4.398  13.157 -0.3900 -0.7487  1.9663
15197TIP3    H267007   5.734   4.526  13.214  2.5102 -0.4322 -1.3981
15198TIP3   OH267008   1.193   4.779   4.814  0.3422 -0.3334  0.0290
15198TIP3    H167009   1.279   4.740   4.830  0.1241 -0.6419  0.4683
15198TIP3    H267010   1.144   4.713   4.766  0.4289 -0.0638 -0.4332
15199TIP3   OH267011   6.634   4.772   2.127 -0.1968 -0.2091  0.0813
15199TIP3    H167012   6.546   4.780   2.164 -0.0551 -2.4880  1.0495
15199TIP3    H267013   6.629   4.818   2.043 -1.8302  1.0989  0.8482
15200TIP3   OH267014   3.328   1.468  15.436 -0.0404 -0.7135 -0.3156
15200TIP3    H167015   3.404   1.512  15.473 -0.2524 -1.2477  0.7962
15200TIP3    H267016   3.281   1.536  15.389  0.0981  0.0519  0.6322
15201TIP3   OH267017   0.191   1.040   0.712  0.3919  0.0216 -0.6215
15201TIP3    H167018   0.205   1.130   0.740  1.2685 -0.3363  0.1245
15201TIP3    H267019   0.117   1.045   0.652 -1.2950  0.9062  1.3871
15202TIP3   OH267020   1.328   1.990  12.332  0.3629  0.1214  0.4305
15202TIP3    H167021   1.367   1.980  12.245  0.4544 -1.4902  0.6212
15202TIP3    H267022   1.400   2.019  12.388  0.0832  2.1436 -0.1834
15203TIP3   OH267023   0.807   5.436  14.791 -0.3577 -0.3361 -0.0807
15203TIP3    H167024   0.792   5.463  14.881 -1.6073 -0.8753 -0.1087
15203TIP3    H267025   0.726   5.393  14.765 -0.0362 -0.1418 -1.4846
15204TIP3   OH267026   1.230   2.741  16.469  0.1424  0.3806 -0.0297
15204TIP3    H167027   1.261   2.735  16.379  0.5003  0.7681  0.0645
15204TIP3    H267028   1.309   2.739  16.523 -0.0812 -0.0616  0.2919
15205TIP3   OH267029   0.766   0.734   0.705 -0.3126 -0.5814  0.1330
15205TIP3    H167030   0.801   0.760   0.790  0.6136 -0.1130 -0.3677
15205TIP3    H267031   0.675   0.710   0.722 -1.6584  3.8581  0.5803
15206TIP3   OH267032   4.358   5.598   1.657  0.0214  0.2778 -0.0966
15206TIP3    H167033   4.318   5.674   1.615 -1.2403 -0.8805 -1.0608
15206TIP3    H267034   4.300   5.577   1.729 -0.5056 -0.6981 -0.7829
15207TIP3   OH267035   6.098   2.044  16.786  0.6039  0.0069 -0.3164
15207TIP3    H167036   6.092   2.133  16.820 -0.3289  0.0629 -0.5962
15207TIP3    H267037   6.184   2.013  16.813 -0.0687  0.0564  2.0749
15208TIP3   OH267038   6.034   1.434   1.323  0.0325  0.2975  0.2206
15208TIP3    H167039   5.973   1.365   1.346 -0.5728  0.9190  0.5366
15208TIP3    H267040   5.986   1.515   1.341  0.9837  0.7985  0.5657
15209TIP3   OH267041   3.570   3.192  14.426  0.2308  0.3214  0.2979
15209TIP3    H167042   3.584   3.132  14.353 -0.3377  0.5913 -0.0420
15209TIP3    H267043   3.521   3.140  14.490  2.1698 -0.4404  1.2375
15210TIP3   OH267044   0.190   2.444   3.321  0.0010  0.3560  0.1846
15210TIP3    H167045   0.133   2.382   3.275  0.3243  0.1146  0.1071
15210TIP3    H267046   0.187   2.416   3.412  0.1526  0.2221  0.1486
15211TIP3   OH267047   6.725   1.109   0.978  0.0484 -0.3425 -0.2688
15211TIP3    H167048   6.787   1.152   1.037 -0.2041  0.9067 -0.8958
15211TIP3    H267049   6.775   1.035   0.942  0.6651 -0.2718  0.4129
15212TIP3   OH267050   4.324   6.761   3.591 -0.0842  0.5204 -0.2534
15212TIP3    H167051   4.385   6.773   3.664  0.8743 -0.9795 -0.7530
15212TIP3    H267052   4.240   6.790   3.625  0.3513 -0.0579  1.4224
15213TIP3   OH267053   3.360   0.325  13.768 -0.2696 -0.1354 -0.2213
15213TIP3    H167054   3.405   0.250  13.807 -0.5861  0.1316  0.6744
15213TIP3    H267055   3.403   0.402  13.805 -0.1232  0.1286 -0.9295
15214TIP3   OH267056   6.447   5.206   3.469 -0.2888  0.4508 -0.6029
15214TIP3    H167057   6.403   5.126   3.496 -0.3969  0.3543 -1.0519
15214TIP3    H267058   6.426   5.269   3.538 -0.8852  0.3235 -0.6583
15215TIP3   OH267059   2.585   6.224  13.957  0.4231 -0.0014  1.0594
15215TIP3    H167060   2.617   6.165  14.026 -0.0742 -1.1271  0.3494
15215TIP3    H267061   2.651   6.218  13.888  0.9531  1.1750  1.4340
15216TIP3   OH267062   3.089   5.947  16.358  0.1712  0.2267 -0.4785
15216TIP3    H167063   3.103   5.853  16.372 -1.0137 -0.1460 -1.5087
15216TIP3    H267064   3.147   5.990  16.420 -0.1044 -1.1990  0.8425
15217TIP3   OH267065   2.768   0.357   0.562  0.4296 -0.3094  0.1483
15217TIP3    H167066   2.740   0.371   0.653  1.5156 -1.9576  0.7815
15217TIP3    H267067   2.863   0.361   0.566  0.5171 -1.2640 -0.7698
15218TIP3   OH267068   1.423   0.274   0.716 -0.3191 -0.3358 -0.5841
15218TIP3    H167069   1.516   0.271   0.742 -0.6692  1.8041  1.1926
15218TIP3    H267070   1.405   0.367   0.704 -2.7168 -0.5068  1.0773
15219TIP3   OH267071   3.796   5.886  12.296  0.6473  0.3934  0.3477
15219TIP3    H167072   3.885   5.921  12.300  0.5692  0.5938  0.3361
15219TIP3    H267073   3.749   5.947  12.239  0.9404 -0.6713 -1.0778
15220TIP3   OH267074   0.026   3.577  11.216 -0.0374 -0.6851  0.1293
15220TIP3    H167075  -0.010   3.616  11.137  1.8249 -0.7773 -0.8141
15220TIP3    H267076  -0.040   3.513  11.243 -1.7325  0.9285 -0.0165
15221TIP3   OH267077   4.832   6.536  13.029  0.4831 -0.5037  0.7743
15221TIP3    H167078   4.916   6.546  13.075  1.2850 -2.4129 -0.1257
15221TIP3    H267079   4.854   6.548  12.937 -0.5114  0.2543  0.6187
15222TIP3   OH267080   0.260   6.698  14.377 -0.5890 -0.3338 -0.2001
15222TIP3    H167081   0.242   6.792  14.376  2.2616  0.3240  0.6567
15222TIP3    H267082   0.227   6.668  14.462 -0.3685  0.1793  0.0711
15223TIP3   OH267083   2.890   4.371  11.647 -0.1976 -0.3392 -0.4097
15223TIP3    H167084   2.935   4.453  11.669 -0.9959  1.0870 -3.5563
15223TIP3    H267085   2.841   4.349  11.727  1.4440  1.2079  1.1310
15224TIP3   OH267086   0.977   3.413   3.094 -0.1916  0.5502  0.1250
15224TIP3    H167087   0.963   3.398   3.188 -1.9931  0.5100 -0.1199
15224TIP3    H267088   0.897   3.382   3.053  0.5701  0.5914 -1.4457
15225TIP3   OH267089   2.536   2.848   1.069 -0.3116 -0.1619 -0.0446
15225TIP3    H167090   2.500   2.848   1.158  1.7069 -3.4674  0.9673
15225TIP3    H267091   2.496   2.771   1.028  2.2480 -1.4821 -0.2750
15226TIP3   OH267092   0.336   3.078   1.078  0.0751  0.1593 -1.1800
15226TIP3    H167093   0.326   3.057   1.171 -0.1344 -0.7850 -1.4050
15226TIP3    H267094   0.382   3.003   1.041  0.6440  0.7709 -1.7464
15227TIP3   OH267095   2.886   2.203   0.018 -0.4891 -0.3660  0.3539
15227TIP3    H167096   2.915   2.249  -0.061  0.9897  0.2953  1.2341
15227TIP3    H267097   2.823   2.263   0.059  2.1734  1.5473  2.0322
15228TIP3   OH267098   0.777   0.896   4.666  0.5808  0.6782  0.0340
15228TIP3    H167099   0.861   0.913   4.709  0.8156  1.5762 -0.7624
15228TIP3    H267100   0.736   0.829   4.721  0.1705  2.8506  2.6149
15229TIP3   OH267101   1.819   1.691  11.892  0.3252  0.4355 -0.2518
15229TIP3    H167102   1.893   1.738  11.932  0.1493  0.5706 -0.0842
15229TIP3    H267103   1.833   1.699  11.798  1.5965 -1.2044 -0.2515
15230TIP3   OH267104   3.965   4.373  17.075  0.0330 -0.4791  0.8300
15230TIP3    H167105   3.975   4.400  16.984 -1.5730 -0.8514  0.5187
15230TIP3    H267106   4.036   4.419  17.121  1.1710 -0.6682 -0.6585
15231TIP3   OH267107   6.275   5.398  12.848  0.2632  0.0104  0.3229
15231TIP3    H167108   6.239   5.390  12.936  0.3060  2.0102  0.5822
15231TIP3    H267109   6.264   5.491  12.826  0.4925 -0.3866 -1.6774
15232TIP3   OH267110   5.588   5.346   3.007 -0.2846  0.5167 -0.4955
15232TIP3    H167111   5.520   5.404   2.975 -0.0559 -0.3340 -2.7570
15232TIP3    H267112   5.628   5.310   2.927 -0.7645 -3.1314  0.7301
15233TIP3   OH267113   4.865   5.485   6.317 -0.5433 -0.4302 -0.3296
15233TIP3    H167114   4.872   5.393   6.342 -1.6144 -0.4355 -0.0329
15233TIP3    H267115   4.905   5.489   6.230  4.5094 -0.1623  1.6533
15234TIP3   OH267116   5.400   1.054   1.400  0.6903  0.0630 -0.2695
15234TIP3    H167117   5.425   1.109   1.474  0.9197 -1.9747  1.2389
15234TIP3    H267118   5.483   1.028   1.360  0.5763  0.9213 -1.1084
15235TIP3   OH267119   6.177   3.944   2.299  0.2823  0.2857 -0.1413
15235TIP3    H167120   6.124   4.012   2.339  1.1411  0.3447  0.9687
15235TIP3    H267121   6.221   3.987   2.226  3.2044  1.9331  2.3083
15236TIP3   OH267122   0.876   5.863  12.890  0.1546  0.2657  0.7271
15236TIP3    H167123   0.811   5.793  12.906 -0.5687  1.0984  1.5497
15236TIP3    H267124   0.959   5.824  12.917  0.0258 -0.8207 -0.3245
15237TIP3   OH267125   5.567   2.842  12.874 -0.0269 -0.1793 -0.4380
15237TIP3    H167126   5.649   2.793  12.886  0.0866  0.3061  0.9631
15237TIP3    H267127   5.551   2.882  12.959  0.2018  2.7554 -1.6819
15238TIP3   OH267128   2.600   3.508   0.763 -0.4987 -0.2311 -0.7757
15238TIP3    H167129   2.580   3.469   0.848 -2.6154  0.0237 -1.0918
15238TIP3    H267130   2.652   3.586   0.784 -0.1013 -0.7419  0.1936
15239TIP3   OH267131   4.738   5.490  16.585 -0.4207  0.4772  0.0530
15239TIP3    H167132   4.832   5.484  16.573 -0.5656 -0.1262 -0.9558
15239TIP3    H267133   4.712   5.568  16.536 -0.5573  0.0707 -0.5415
15240TIP3   OH267134   4.651   4.748  10.640 -0.0092  0.1236  0.3802
15240TIP3    H167135   4.682   4.720  10.554 -3.6515 -0.1965 -0.9837
15240TIP3    H267136   4.649   4.844  10.635  0.8691  0.1671  0.5971
15241TIP3   OH267137   5.219   4.825   6.133 -0.1845  0.0422 -0.5655
15241TIP3    H167138   5.295   4.877   6.105  0.9046 -1.0050  0.3055
15241TIP3    H267139   5.165   4.886   6.184  0.5860  0.5629 -0.3513
15242TIP3   OH267140   4.045   1.733  16.398 -0.2206  0.0429 -0.1365
15242TIP3    H167141   4.076   1.677  16.327  0.9920  1.2698 -0.6346
15242TIP3    H267142   4.117   1.733  16.461 -1.0616 -0.5894  0.8576
15243TIP3   OH267143   3.280   0.085  16.440  0.0989 -0.0619  0.1655
15243TIP3    H167144   3.274   0.180  16.442  0.6914 -0.0142  2.1164
15243TIP3    H267145   3.375   0.067  16.438 -0.0017 -0.6211  0.1360
15244TIP3   OH267146   6.036   0.385  12.814 -0.4643 -0.6127  0.0041
15244TIP3    H167147   6.036   0.290  12.797  0.1488 -0.3818 -1.3865
15244TIP3    H267148   6.043   0.391  12.910 -0.9926 -1.9728  0.1599
15245TIP3   OH267149   5.084   5.632  15.923  0.2144  0.4687  0.3641
15245TIP3    H167150   5.113   5.599  15.838  0.4933 -0.8540  0.9393
15245TIP3    H267151   5.128   5.575  15.987  0.2646  1.6397  1.4048
15246TIP3   OH267152   2.252   5.035   3.619 -0.2987  0.2188 -0.6257
15246TIP3    H167153   2.167   5.006   3.584  0.2156 -0.2633 -1.5020
15246TIP3    H267154   2.308   5.044   3.542  0.3919  0.7628 -0.0758
15247TIP3   OH267155   1.474   4.456   0.092  0.0531 -0.2632 -0.2116
15247TIP3    H167156   1.487   4.378   0.146 -0.2712 -0.8393 -0.9463
15247TIP3    H267157   1.410   4.429   0.026  0.8168  0.2546 -1.1979
15248TIP3   OH267158   6.708   3.654   5.495  0.3925 -0.3162 -0.1052
15248TIP3    H167159   6.686   3.664   5.588  0.9531  0.8625 -0.0821
15248TIP3    H267160   6.792   3.698   5.485  1.2148 -1.9838 -0.8267
15249TIP3   OH267161   4.283   1.231  11.419  0.6904 -0.0407  0.2784
15249TIP3    H167162   4.255   1.204  11.332  2.1803 -0.0229 -0.2452
15249TIP3    H267163   4.237   1.313  11.435 -1.0278 -0.9743  0.3157
15250TIP3   OH267164   6.132   1.096  14.078  0.5017  0.3283 -0.1672
15250TIP3    H167165   6.197   1.157  14.112  1.5659 -0.1046 -1.3471
15250TIP3    H267166   6.112   1.129  13.990 -0.4353  0.1159 -0.0478
15251TIP3   OH267167   1.541   1.960   2.443 -0.2336 -0.2488  0.1081
15251TIP3    H167168   1.577   1.895   2.383 -0.0654  0.2614 -0.3538
15251TIP3    H267169   1.447   1.956   2.430 -0.2738 -0.8518  0.5554
15252TIP3   OH267170   1.745   3.301  16.867  0.2618 -0.9727  0.3285
15252TIP3    H167171   1.730   3.212  16.898  0.3511 -1.4948 -1.0770
15252TIP3    H267172   1.839   3.305  16.849  0.7461  0.1832  2.6088
15253TIP3   OH267173   0.687   2.586  12.836  0.1556  0.0008 -0.0916
15253TIP3    H167174   0.704   2.542  12.752 -1.0283 -0.3186 -0.1770
15253TIP3    H267175   0.760   2.558  12.892  0.5704 -0.3612 -0.7901
15254TIP3   OH267176   3.743   0.117   5.764 -0.1470  0.0997  0.4592
15254TIP3    H167177   3.812   0.062   5.802 -0.1292 -1.5597 -1.7614
15254TIP3    H267178   3.662   0.085   5.803  0.0187 -0.4670  0.3516
15255TIP3   OH267179   3.122   1.686   3.808 -0.2467 -0.3262  0.0389
15255TIP3    H167180   3.151   1.676   3.899 -1.7423  0.0575  0.5825
15255TIP3    H267181   3.109   1.780   3.797  2.2513 -0.0620 -1.3663
15256TIP3   OH267182   4.789   1.425  12.060 -0.0538  0.3669  0.2233
15256TIP3    H167183   4.845   1.348  12.069  0.2961  0.6839  0.8559
15256TIP3    H267184   4.725   1.401  11.993 -1.0245 -1.1134  1.6014
15257TIP3   OH267185   5.543   0.124  14.121  0.3195 -0.0776  0.0352
15257TIP3    H167186   5.585   0.129  14.035  0.7142  1.2202  0.2778
15257TIP3    H267187   5.450   0.136  14.104  0.4645  0.8168 -0.1641
15258TIP3   OH267188   0.329   4.439  12.519 -0.0271 -0.1820  0.2496
15258TIP3    H167189   0.320   4.371  12.452  1.6122  0.3004 -0.5154
15258TIP3    H267190   0.257   4.422  12.580  0.1422 -2.4234 -0.0798
15259TIP3   OH267191   3.536   4.528  12.989  0.6492  0.0209 -0.3222
15259TIP3    H167192   3.607   4.580  12.952  0.8434  0.2149  0.3073
15259TIP3    H267193   3.459   4.583  12.981  0.0268 -1.0916 -3.2086
15260TIP3   OH267194   2.464   0.963   5.512 -0.1697 -0.0958  0.1789
15260TIP3    H167195   2.554   0.993   5.524  0.1795 -2.1353  5.1225
15260TIP3    H267196   2.410   1.042   5.521  1.0429  0.7347  0.2699
15261TIP3   OH267197   5.088   1.163  12.424  0.3656  0.0012 -0.8264
15261TIP3    H167198   5.095   1.167  12.329 -0.1854  0.1713 -0.8612
15261TIP3    H267199   5.160   1.218  12.456  0.2533  0.3387 -1.1501
15262TIP3   OH267200   0.541   3.913   2.700  0.4856  0.9813  0.2254
15262TIP3    H167201   0.455   3.952   2.713  1.3280  2.9587  0.1689
15262TIP3    H267202   0.597   3.956   2.764  1.3766 -0.5933  0.5676
15263TIP3   OH267203   3.661   0.269   0.636 -0.5225  0.5025 -0.0626
15263TIP3    H167204   3.687   0.272   0.544  0.8114  0.8865  0.2971
15263TIP3    H267205   3.641   0.177   0.652  1.8142 -0.0841 -0.1103
15264TIP3   OH267206   6.313   6.789   5.919  0.7899  0.1288  0.3607
15264TIP3    H167207   6.344   6.879   5.921  2.4267 -0.4104  1.4487
15264TIP3    H267208   6.370   6.742   5.980  0.6311 -1.8482 -0.8927
15265TIP3   OH267209   1.625   2.505  14.361  0.2650  1.2559  0.1019
15265TIP3    H167210   1.663   2.427  14.401 -1.1853  0.2993 -0.3023
15265TIP3    H267211   1.549   2.525  14.416 -0.9998  0.6919 -1.3821
15266TIP3   OH267212   1.975   1.755  15.786 -0.2945 -0.2093  0.4101
15266TIP3    H167213   1.998   1.822  15.722  1.3908 -0.3998  0.7642
15266TIP3    H267214   1.979   1.672  15.737  0.8958 -0.3453  0.7106
15267TIP3   OH267215   5.520   1.199  15.899 -0.4760 -0.1956  0.4991
15267TIP3    H167216   5.521   1.108  15.872 -0.1039  0.0248 -0.2523
15267TIP3    H267217   5.612   1.225  15.902 -0.5821  0.1839  0.5962
15268TIP3   OH267218   0.897   5.019   4.352  0.3585 -0.2354 -0.3279
15268TIP3    H167219   0.933   5.041   4.438  0.2520 -0.7400 -0.1485
15268TIP3    H267220   0.805   4.998   4.370  0.7363 -2.0168 -0.2801
15269TIP3   OH267221   0.634   3.706  17.080  0.0344  0.0430 -0.0517
15269TIP3    H167222   0.700   3.722  17.013  0.0789  0.7371  0.1441
15269TIP3    H267223   0.683   3.677  17.156 -0.0952 -1.6356 -0.5797
15270TIP3   OH267224   0.008   1.742   2.865  0.1349 -0.3243  0.2679
15270TIP3    H167225  -0.044   1.820   2.845 -0.4737 -1.0925 -1.3287
15270TIP3    H267226  -0.053   1.684   2.910 -0.1598 -0.8651 -0.7993
15271TIP3   OH267227   1.772   4.054  11.319 -0.1863  0.4187 -0.2790
15271TIP3    H167228   1.819   3.993  11.376 -1.5516 -0.5638 -0.1653
15271TIP3    H267229   1.681   4.023  11.320 -0.8587  2.2736 -0.4715
15272TIP3   OH267230   2.598   6.366  12.190  0.1476 -0.6342 -0.1149
15272TIP3    H167231   2.637   6.317  12.117  2.5765 -1.4394  1.5889
15272TIP3    H267232   2.555   6.299  12.244 -0.1127 -0.2978  0.1003
15273TIP3   OH267233   0.630   3.739  15.770  0.4493  0.4648  0.0449
15273TIP3    H167234   0.635   3.727  15.865  0.4371 -2.8437 -0.2478
15273TIP3    H267235   0.721   3.742  15.741  0.5001 -1.0295 -0.0174
15274TIP3   OH267236   5.611   1.144   0.699 -0.1218 -0.1633  0.5345
15274TIP3    H167237   5.672   1.151   0.625 -1.5888  0.6963 -0.6509
15274TIP3    H267238   5.527   1.123   0.659 -0.5196 -1.9807  2.1850
15275TIP3   OH267239   6.255   1.525   4.552  0.0854  0.1458  0.1078
15275TIP3    H167240   6.201   1.576   4.613 -0.9639 -2.4309  1.4889
15275TIP3    H267241   6.304   1.465   4.608  0.0309 -1.4730 -1.5013
15276TIP3   OH267242   3.438   0.564   4.314  0.0236 -0.3640 -0.7812
15276TIP3    H167243   3.443   0.544   4.408 -2.1002 -0.9065 -0.7229
15276TIP3    H267244   3.519   0.610   4.295  0.2008  0.4127  1.4982
15277TIP3   OH267245   5.406   2.869  16.156  0.4005 -0.2315  0.2243
15277TIP3    H167246   5.349   2.829  16.221 -0.0364 -0.8700 -0.5318
15277TIP3    H267247   5.461   2.930  16.206 -0.4331 -0.1479  1.0686
15278TIP3   OH267248   3.265   4.652  16.286  0.0179  0.7563 -0.3242
15278TIP3    H167249   3.330   4.683  16.222  0.6226  0.1939  0.0006
15278TIP3    H267250   3.274   4.557  16.284 -1.9280  0.5453 -1.4319
15279TIP3   OH267251   0.317   2.064   3.803 -0.6229 -0.1474  0.0476
15279TIP3    H167252   0.328   2.055   3.898  0.4305  0.5186  0.0041
15279TIP3    H267253   0.405   2.078   3.770 -0.8777 -1.1393 -1.1364
15280TIP3   OH267254   2.928   0.202  15.340  0.3666 -0.5313 -0.4752
15280TIP3    H167255   2.888   0.117  15.318 -1.4970  0.2196 -0.1692
15280TIP3    H267256   2.857   0.265  15.329  1.2328  0.7703  1.0249
15281TIP3   OH267257   0.559   2.446   5.360 -1.0128  0.3003  0.0970
15281TIP3    H167258   0.480   2.488   5.327 -1.5895  0.3754  1.4717
15281TIP3    H267259   0.572   2.370   5.304 -2.6169 -0.2429  0.3985
15282TIP3   OH267260   4.154   4.532  16.041  0.6287 -0.1566  0.3186
15282TIP3    H167261   4.181   4.472  15.971 -0.9747  1.6836 -2.0672
15282TIP3    H267262   4.072   4.495  16.073 -0.3504  0.6433 -1.1380
15283TIP3   OH267263   0.848   4.927  16.695 -0.3184 -0.1100  0.2885
15283TIP3    H167264   0.864   4.942  16.788 -1.7280  0.0157  0.5279
15283TIP3    H267265   0.832   5.014  16.658  1.6513  0.0187 -0.3956
15284TIP3   OH267266   3.909   3.731  12.755  0.0434 -0.3356 -0.2976
15284TIP3    H167267   3.928   3.688  12.672  0.3309 -0.1535 -0.3275
15284TIP3    H267268   3.995   3.745  12.795 -0.0123  0.7071 -0.5357
15285TIP3   OH267269   4.621   3.817   2.453  0.1578 -0.1881  0.4593
15285TIP3    H167270   4.587   3.773   2.531 -0.5924  1.3739  1.0417
15285TIP3    H267271   4.572   3.778   2.381 -0.8330  0.0200  1.0100
15286TIP3   OH267272   3.014   4.821  16.865  0.2374  0.4331 -0.0558
15286TIP3    H167273   2.950   4.811  16.935 -0.7584 -2.3613 -1.2231
15286TIP3    H267274   3.098   4.826  16.911 -0.5341  0.7136  1.3882
15287TIP3   OH267275   3.173   4.433  16.685  0.0601 -0.2840 -0.6838
15287TIP3    H167276   3.222   4.399  16.610  1.8030  3.5073 -1.4815
15287TIP3    H267277   3.082   4.432  16.656  0.2206 -2.4545 -1.2718
15288TIP3   OH267278   5.963   0.295  11.879 -0.6515  0.5324  0.3209
15288TIP3    H167279   5.878   0.323  11.845 -0.4685  0.3766 -0.2818
15288TIP3    H267280   6.004   0.249  11.806  0.1236  0.9748  0.4675
15289TIP3   OH267281   1.970   4.703   0.900  0.3696 -0.4010 -0.3860
15289TIP3    H167282   1.979   4.774   0.964  2.5629 -1.6067  0.7602
15289TIP3    H267283   2.051   4.707   0.849  0.8573 -2.4153  0.1475
15290TIP3   OH267284   1.426   1.453   2.117  0.5419 -0.0185  0.4990
15290TIP3    H167285   1.375   1.457   2.036  0.9513 -1.4181  0.1406
15290TIP3    H267286   1.392   1.524   2.171 -0.2577  0.4558 -0.6066
15291TIP3   OH267287   5.094   0.460  15.148 -0.2256  0.6043 -0.2666
15291TIP3    H167288   5.111   0.432  15.238 -0.3644  0.0169 -0.4172
15291TIP3    H267289   5.125   0.550  15.145  0.8570  0.2663  0.0572
15292TIP3   OH267290   3.576   2.570   0.081  0.2594 -0.0479  0.3832
15292TIP3    H167291   3.599   2.604   0.167 -0.1450 -1.6585  1.1650
15292TIP3    H267292   3.520   2.494   0.099  0.4670 -0.6421 -1.2793
15293TIP3   OH267293   4.231   1.516  17.108 -1.2240  0.0157 -0.7104
15293TIP3    H167294   4.297   1.479  17.050  0.2651 -3.1671  2.6162
15293TIP3    H267295   4.165   1.447  17.116 -2.2259  1.0253  0.0786
15294TIP3   OH267296   3.142   2.963   4.094  0.0628 -0.1209 -0.4930
15294TIP3    H167297   3.097   2.884   4.126  0.2921 -0.1805 -0.3150
15294TIP3    H267298   3.235   2.943   4.102  0.1224  0.0448 -0.7600
15295TIP3   OH267299   1.033   0.158  13.564  0.3300 -0.0771 -0.2725
15295TIP3    H167300   1.004   0.072  13.534 -0.5136  1.0173 -2.8556
15295TIP3    H267301   1.126   0.161  13.540  0.1626  0.0190 -0.9232
15296TIP3   OH267302   1.362   4.113  12.384 -0.1543 -0.0917  0.4785
15296TIP3    H167303   1.283   4.078  12.426 -0.7134 -0.2269 -0.6572
15296TIP3    H267304   1.330   4.178  12.322  0.5215 -0.9289 -0.7893
15297TIP3   OH267305   6.122   0.126  15.639  0.3488 -0.2943  0.1656
15297TIP3    H167306   6.146   0.066  15.569 -1.6228 -1.6885  0.5624
15297TIP3    H267307   6.036   0.159  15.613  0.3501  0.4930  1.1154
15298TIP3   OH267308   5.853   3.606   3.002 -0.4190  0.0702 -0.0083
15298TIP3    H167309   5.923   3.549   2.972 -1.3982 -1.2236  0.0765
15298TIP3    H267310   5.779   3.585   2.945 -1.2651  0.1250  1.0452
15299TIP3   OH267311   1.639   0.965   5.309 -0.2690 -0.4077 -0.0551
15299TIP3    H167312   1.667   1.008   5.390 -0.3382 -0.2178 -0.1316
15299TIP3    H267313   1.695   0.888   5.303  0.2590 -0.0239 -0.2163
15300TIP3   OH267314   0.041   1.575  13.240 -0.7786  0.3076 -0.1163
15300TIP3    H167315  -0.003   1.644  13.191 -1.6739 -1.0797 -1.3511
15300TIP3    H267316  -0.025   1.506  13.249  0.8023 -1.4330 -1.1420
15301TIP3   OH267317   2.788   1.881   4.748  0.2923 -0.0967  0.4935
15301TIP3    H167318   2.784   1.977   4.745  0.9693 -0.0543  0.7245
15301TIP3    H267319   2.718   1.853   4.690  0.8539  0.5533 -0.5496
15302TIP3   OH267320   4.920   2.768  13.595 -0.4452 -0.3039  0.2957
15302TIP3    H167321   4.835   2.802  13.568 -0.3820 -0.9522 -0.7780
15302TIP3    H267322   4.978   2.843  13.591 -1.0109  0.1981  1.2776
15303TIP3   OH267323   3.304   0.856  12.334  0.3900 -0.1257  0.7338
15303TIP3    H167324   3.356   0.807  12.398  0.0970 -0.0386  1.0463
15303TIP3    H267325   3.318   0.947  12.357  1.5076 -0.0069 -0.2963
15304TIP3   OH267326   3.771   4.132  13.603  0.1369 -0.2884 -0.3608
15304TIP3    H167327   3.777   4.111  13.696  0.5797  1.2156 -0.0279
15304TIP3    H267328   3.818   4.215  13.594 -3.8014  2.0835 -1.0682
15305TIP3   OH267329   5.324   6.564  11.014 -0.2062  0.6997  0.0063
15305TIP3    H167330   5.402   6.589  11.065  1.0568  2.0190 -2.4089
15305TIP3    H267331   5.288   6.648  10.983 -2.0378  0.0473  0.2288
15306TIP3   OH267332   5.134   3.370  14.908  0.1661 -0.4654 -0.6284
15306TIP3    H167333   5.119   3.357  15.001  0.3013  3.3920  0.0938
15306TIP3    H267334   5.048   3.397  14.874  0.9087  2.1480 -0.6541
15307TIP3   OH267335   5.884   5.400   0.204 -0.4953 -0.1282 -0.0110
15307TIP3    H167336   5.904   5.461   0.132 -0.2609 -1.4280 -1.0774
15307TIP3    H267337   5.883   5.456   0.282 -0.9935  1.3706 -1.0323
15308TIP3   OH267338   3.459   3.437   0.205 -0.0117 -0.2935  0.1321
15308TIP3    H167339   3.365   3.428   0.221  0.0322 -0.9608  0.0565
15308TIP3    H267340   3.476   3.380   0.130  0.6274 -0.9810  0.7766
15309TIP3   OH267341   1.959   0.897  15.525  0.1916  0.0662 -0.5580
15309TIP3    H167342   1.962   0.924  15.617  2.0150  1.5847 -0.9885
15309TIP3    H267343   1.876   0.851  15.516  0.9269 -2.1562  2.3727
15310TIP3   OH267344   5.398   4.611   3.076 -0.3296  0.1146  0.4940
15310TIP3    H167345   5.318   4.602   3.127 -0.1755  0.1452  0.7403
15310TIP3    H267346   5.376   4.674   3.008 -0.5846 -0.0508  0.4197
15311TIP3   OH267347   5.517   5.738   4.193  0.0990  0.4984  0.3918
15311TIP3    H167348   5.467   5.682   4.252  0.9684  0.6733  1.3124
15311TIP3    H267349   5.605   5.702   4.193  0.8790  2.2429  1.5851
15312TIP3   OH267350   0.970   4.077   5.349 -0.3082  0.1410 -0.3750
15312TIP3    H167351   1.044   4.094   5.407  0.8019 -0.8244 -1.4561
15312TIP3    H267352   1.007   4.025   5.278 -1.8121  0.5814 -1.5207
15313TIP3   OH267353   1.726   5.330  16.708 -0.4257  0.5443  0.6259
15313TIP3    H167354   1.775   5.354  16.630 -0.5042  0.4119  0.5340
15313TIP3    H267355   1.746   5.399  16.771  0.8549 -0.1359  1.0090
15314TIP3   OH267356   5.764   1.321   3.541  0.0319  0.1735  0.2673
15314TIP3    H167357   5.744   1.328   3.634  0.5654  1.4005  0.3104
15314TIP3    H267358   5.756   1.410   3.508  3.8676  0.5842 -0.0033
15315TIP3   OH267359   1.445   0.169   6.705 -0.6563 -0.6830  0.5380
15315TIP3    H167360   1.425   0.263   6.711  0.8960 -0.1943 -0.9320
15315TIP3    H267361   1.540   0.165   6.716 -0.6772 -2.0691  0.2928
15316TIP3   OH267362   1.332   0.146  14.384  0.1430  0.6363  0.2532
15316TIP3    H167363   1.362   0.152  14.474  2.0502 -0.5978 -0.2398
15316TIP3    H267364   1.261   0.081  14.387  0.6146  0.1327  0.7829
15317TIP3   OH267365   2.474   0.093   1.178  0.0303  0.2463 -0.1021
15317TIP3    H167366   2.476   0.004   1.143 -0.2822  0.4122 -0.5527
15317TIP3    H267367   2.400   0.135   1.133 -0.0908  0.6037  0.4171
15318TIP3   OH267368   2.396   0.416  11.622 -0.1966  0.0228 -0.5098
15318TIP3    H167369   2.318   0.368  11.650 -0.0399 -0.1884 -0.4284
15318TIP3    H267370   2.453   0.348  11.584  0.7524 -0.1617  1.1344
15319TIP3   OH267371   1.700   6.077  13.564 -0.3999 -0.1937 -0.1055
15319TIP3    H167372   1.715   6.125  13.646 -0.3532 -0.4129  0.0166
15319TIP3    H267373   1.648   6.001  13.590 -0.9634  0.0920 -0.3882
15320TIP3   OH267374   2.610   2.356  15.790  0.6532  0.3102  0.0509
15320TIP3    H167375   2.583   2.275  15.833 -0.4559  1.8983  2.6085
15320TIP3    H267376   2.598   2.339  15.696 -1.7232 -1.7367  0.6200
15321TIP3   OH267377   0.588   6.767  11.439  0.2939 -0.4676  0.1695
15321TIP3    H167378   0.680   6.795  11.434 -0.3967  1.9098 -0.6429
15321TIP3    H267379   0.543   6.821  11.374 -1.9488 -0.4656  1.6152
15322TIP3   OH267380   4.785   2.557  11.964 -0.3788  0.4053 -0.0133
15322TIP3    H167381   4.822   2.484  12.014 -1.5759  0.0737  0.4252
15322TIP3    H267382   4.861   2.599  11.924  0.3373 -1.1452 -0.3790
15323TIP3   OH267383   5.228   0.527  12.265 -0.6134 -0.3831 -0.2290
15323TIP3    H167384   5.221   0.585  12.340  0.5652 -1.4460  0.7474
15323TIP3    H267385   5.144   0.535  12.220 -1.3987  0.1611  1.2760
15324TIP3   OH267386   2.434   3.197  16.400 -0.1691 -0.6827  0.0657
15324TIP3    H167387   2.340   3.214  16.402 -0.3332 -1.2625 -1.4541
15324TIP3    H267388   2.444   3.121  16.343  1.2832 -0.0128 -0.6477
15325TIP3   OH267389   2.937   3.654   6.258 -0.0681  1.1099  0.5230
15325TIP3    H167390   2.875   3.724   6.275 -0.4390  0.7553  0.6493
15325TIP3    H267391   2.992   3.650   6.337 -0.2082  1.0914  0.6188
15326TIP3   OH267392   2.985   5.817   0.391 -0.2343  0.2612  0.8994
15326TIP3    H167393   2.893   5.834   0.411 -0.7851 -0.9947 -0.3792
15326TIP3    H267394   3.021   5.780   0.472 -0.7953  0.9184  1.4601
15327TIP3   OH267395   1.151   0.583  11.648 -0.2449 -0.1269 -0.4088
15327TIP3    H167396   1.149   0.676  11.629 -0.0403 -0.2033 -0.7989
15327TIP3    H267397   1.060   0.561  11.667 -0.3699  0.0526 -0.7940
15328TIP3   OH267398   3.794   0.700  15.051 -0.2669  0.3257 -0.7537
15328TIP3    H167399   3.707   0.730  15.023 -0.0426  0.3758 -1.4281
15328TIP3    H267400   3.815   0.753  15.127 -0.2159  1.3596 -1.4596
15329TIP3   OH267401   5.501   4.417  10.695  0.3503 -0.4885 -0.0660
15329TIP3    H167402   5.487   4.511  10.705  2.1485 -0.2029  0.1190
15329TIP3    H267403   5.580   4.410  10.641  0.7270 -1.8808  0.6188
15330TIP3   OH267404   5.063   6.548  11.827  0.3292  0.4475  0.0423
15330TIP3    H167405   5.012   6.517  11.752  0.5958 -0.6921  0.3025
15330TIP3    H267406   5.033   6.637  11.842  0.0740  0.5951 -1.2440
15331TIP3   OH267407   0.319   6.610  13.732 -0.5550 -0.1146  0.3168
15331TIP3    H167408   0.242   6.560  13.757 -0.5217  0.2937  1.2492
15331TIP3    H267409   0.384   6.543  13.708 -0.5641 -0.5192  1.3893
15332TIP3   OH267410   4.554   4.395  17.165  0.0847 -0.2844 -0.3810
15332TIP3    H167411   4.583   4.306  17.145  0.7426  0.1497 -1.4144
15332TIP3    H267412   4.630   4.450  17.146 -0.8277  0.6838 -1.3674
15333TIP3   OH267413   0.256   5.809   1.511  0.3611  0.6452 -0.1633
15333TIP3    H167414   0.168   5.846   1.513  0.2655  0.3965  1.7696
15333TIP3    H267415   0.250   5.737   1.448  0.0328  2.5477 -2.4447
15334TIP3   OH267416   5.010   2.286   2.753  0.2229 -1.0565  0.0901
15334TIP3    H167417   4.963   2.214   2.711 -0.4784 -0.1879 -0.6466
15334TIP3    H267418   5.094   2.248   2.778  0.6971 -1.6265 -2.1606
15335TIP3   OH267419   2.967   4.318   4.826 -0.0544 -0.0205  0.2880
15335TIP3    H167420   2.916   4.275   4.757 -0.3866  0.0395  0.4993
15335TIP3    H267421   2.907   4.381   4.865  0.8516  1.7651 -1.0189
15336TIP3   OH267422   2.911   1.901   3.006  0.3396 -0.5359  0.2203
15336TIP3    H167423   2.834   1.947   3.039  0.7312 -0.5640  1.1973
15336TIP3    H267424   2.960   1.877   3.084  1.4655 -0.3011 -0.3948
15337TIP3   OH267425   5.676   2.654   2.998 -0.6248 -0.1599 -0.2227
15337TIP3    H167426   5.668   2.750   2.995  0.7262  0.0183  0.6812
15337TIP3    H267427   5.769   2.639   3.017 -0.8529 -1.6529 -0.1729
15338TIP3   OH267428   1.683   0.173   2.121  0.0365  0.4501 -0.5155
15338TIP3    H167429   1.610   0.189   2.181 -1.4634 -0.1702 -2.1006
15338TIP3    H267430   1.660   0.092   2.075  1.4241  0.5753 -1.5080
15339TIP3   OH267431   6.782   5.467   0.784 -0.2208 -0.1404  0.4373
15339TIP3    H167432   6.769   5.425   0.869 -0.2044  1.5324  1.3088
15339TIP3    H267433   6.715   5.428   0.727  1.6603 -3.5535  0.2426
15340TIP3   OH267434   4.498   6.450   1.927 -0.1775  0.2906  0.1175
15340TIP3    H167435   4.510   6.472   2.019 -1.4039  1.0001  0.1330
15340TIP3    H267436   4.569   6.389   1.907  0.3103  0.4003  1.4325
15341TIP3   OH267437   5.750   5.620   4.170 -0.1228  0.6096  0.0230
15341TIP3    H167438   5.731   5.528   4.191 -0.4892  0.6554 -0.0954
15341TIP3    H267439   5.846   5.626   4.174 -0.1386  0.4449  0.9638
15342TIP3   OH267440   3.609   1.960  12.368  0.1629 -0.5485 -0.0837
15342TIP3    H167441   3.603   1.979  12.274 -2.9810 -0.8224 -0.0296
15342TIP3    H267442   3.590   1.867  12.375  0.5867 -0.5756  0.8272
15343TIP3   OH267443   2.679   4.773  16.504 -0.5199  0.3569 -0.5571
15343TIP3    H167444   2.756   4.825  16.481  0.4582 -0.1922  1.2798
15343TIP3    H267445   2.688   4.757  16.598 -1.0326 -2.6990 -0.9174
15344TIP3   OH267446   3.084   2.308   5.870  0.4351 -0.1476  1.0332
15344TIP3    H167447   3.001   2.297   5.824  1.4280  2.8455 -1.8439
15344TIP3    H267448   3.060   2.340   5.957 -1.4293 -3.5257  1.9303
15345TIP3   OH267449   0.827   0.677  13.405  0.0626  0.2077 -0.6018
15345TIP3    H167450   0.916   0.649  13.384  0.6705  1.7042 -0.1720
15345TIP3    H267451   0.836   0.727  13.486 -1.0139  1.1578 -1.0416
15346TIP3   OH267452   3.266   0.861   6.002 -0.1502  0.4302 -0.1631
15346TIP3    H167453   3.293   0.946   6.038 -1.8912  1.0104 -0.1593
15346TIP3    H267454   3.239   0.810   6.078  1.4809 -0.3871 -0.0970
15347TIP3   OH267455   1.099   3.805  16.310 -0.7611  0.3450 -0.1030
15347TIP3    H167456   1.105   3.725  16.363  0.8138 -0.6320 -1.6573
15347TIP3    H267457   1.184   3.848  16.321 -0.7657  0.6234 -1.0510
15348TIP3   OH267458   3.424   2.862  16.566 -0.3388 -0.2626 -0.1579
15348TIP3    H167459   3.356   2.855  16.634 -0.2480  2.1449  0.2450
15348TIP3    H267460   3.400   2.794  16.502 -1.4653 -1.3781  1.3544
15349TIP3   OH267461   3.669   2.193   3.259 -0.4870 -0.1027 -0.0700
15349TIP3    H167462   3.711   2.236   3.186 -0.1397  1.0569  0.7832
15349TIP3    H267463   3.623   2.119   3.220 -0.1595  0.3758 -1.4203
15350TIP3   OH267464   2.033   3.896   4.889  0.3405  0.4077 -0.1155
15350TIP3    H167465   2.007   3.886   4.981  0.3387  1.1145 -0.0306
15350TIP3    H267466   2.029   3.991   4.874  1.1160  0.3671 -0.6147
15351TIP3   OH267467   5.473   1.949   3.179  0.3001  0.1423 -0.0155
15351TIP3    H167468   5.559   1.986   3.198  1.4375 -1.1845 -2.1333
15351TIP3    H267469   5.423   2.022   3.140  1.6787  0.1639 -1.8988
15352TIP3   OH267470   1.640   1.813  11.518  0.5000  0.4165  0.4146
15352TIP3    H167471   1.607   1.799  11.430  0.7498 -1.6336  0.5822
15352TIP3    H267472   1.668   1.726  11.547  1.2138  1.1822  2.1976
15353TIP3   OH267473   0.688   2.177  17.028  0.0948 -0.2628  0.3386
15353TIP3    H167474   0.756   2.114  17.005  0.0798  0.3234 -1.4125
15353TIP3    H267475   0.680   2.233  16.952 -0.8280  1.0515  1.3534
15354TIP3   OH267476   3.355   5.308  12.331 -0.0029  0.3678 -0.2415
15354TIP3    H167477   3.448   5.307  12.353  0.1297  2.8871 -0.4448
15354TIP3    H267478   3.353   5.316  12.236 -0.4106  0.7251 -0.2055
15355TIP3   OH267479   6.772   3.753  15.271 -0.4596  0.1141 -0.3540
15355TIP3    H167480   6.837   3.769  15.203 -0.4527  0.6921 -0.2143
15355TIP3    H267481   6.695   3.723  15.222 -0.9816  2.0237 -0.8002
15356TIP3   OH267482   0.311   5.528  15.248  0.0271  0.2012  0.5304
15356TIP3    H167483   0.406   5.517  15.251 -0.1409 -2.0752 -0.5168
15356TIP3    H267484   0.277   5.440  15.235 -2.1210  1.2137 -1.3841
15357TIP3   OH267485   2.130   0.308  12.488  0.4919  0.3597  0.7375
15357TIP3    H167486   2.096   0.340  12.404 -0.3559 -0.8631  0.5905
15357TIP3    H267487   2.056   0.263  12.529  1.4098 -0.7421  1.2654
15358TIP3   OH267488   2.261   3.441  13.320 -0.1913  0.3487 -0.3116
15358TIP3    H167489   2.191   3.399  13.269 -0.4585 -0.6552  0.8424
15358TIP3    H267490   2.221   3.461  13.404  0.7360  0.3310  0.1489
15359TIP3   OH267491   3.642   6.221  11.526  0.0340  0.3323  0.2931
15359TIP3    H167492   3.568   6.222  11.465  1.0590 -0.9950 -1.0470
15359TIP3    H267493   3.659   6.128  11.541  1.0650  0.6245  1.0293
15360TIP3   OH267494   1.353   5.256  13.932  0.1117  0.2538 -0.3274
15360TIP3    H167495   1.430   5.300  13.966  0.7920  0.4542 -2.0076
15360TIP3    H267496   1.300   5.326  13.894 -0.0212 -0.0805 -0.7659
15361TIP3   OH267497   1.652   5.423  11.654  0.0827  0.6465  0.1711
15361TIP3    H167498   1.594   5.424  11.730 -0.1890  2.2530 -0.0205
15361TIP3    H267499   1.604   5.376  11.587 -0.2474  0.4272  0.5552
15362TIP3   OH267500   2.287   3.241  11.879  0.4073 -0.6141 -0.2868
15362TIP3    H167501   2.293   3.328  11.920 -1.1481 -0.4197 -0.3980
15362TIP3    H267502   2.290   3.180  11.953  0.2826 -0.3920 -0.0946
15363TIP3   OH267503   5.495   0.737   1.093 -0.2555  0.2082 -0.0052
15363TIP3    H167504   5.504   0.661   1.036 -0.6916 -3.4624  4.2629
15363TIP3    H267505   5.585   0.763   1.113 -0.0192 -1.0828  0.6837
15364TIP3   OH267506   4.274   1.922  15.254 -0.0117  0.4390 -0.3554
15364TIP3    H167507   4.208   1.946  15.189  0.6591  1.6931 -0.6156
15364TIP3    H267508   4.313   1.842  15.220 -2.9408 -1.7325  0.9806
15365TIP3   OH267509   6.445   5.951   0.583  0.8440 -0.0899  0.1010
15365TIP3    H167510   6.532   5.912   0.585  0.4840 -0.9210  0.3814
15365TIP3    H267511   6.460   6.045   0.583  1.7427 -0.1355  3.0143
15366TIP3   OH267512   3.262   4.422   5.896 -0.0034 -0.4651 -0.1969
15366TIP3    H167513   3.319   4.409   5.820  1.1012  0.9396  0.3418
15366TIP3    H267514   3.290   4.356   5.959  0.0372 -0.7264 -0.4887
15367TIP3   OH267515   1.511   6.484   1.487  0.1422 -0.4562  0.0163
15367TIP3    H167516   1.466   6.450   1.410 -0.4181  1.6780 -0.6604
15367TIP3    H267517   1.441   6.516   1.544  0.5877 -1.3946  1.1520
15368TIP3   OH267518   4.767   0.140  15.419  1.0814 -0.1545  0.0301
15368TIP3    H167519   4.733   0.105  15.337 -2.9201  2.3658  0.3251
15368TIP3    H267520   4.769   0.065  15.479  1.3426 -1.4588 -1.5436
15369TIP3   OH267521   1.055   1.360   0.332  0.1585  0.3424  0.2942
15369TIP3    H167522   1.137   1.402   0.307  0.8722 -0.8579  0.5735
15369TIP3    H267523   1.011   1.341   0.249  1.1929 -1.0120  0.0283
15370TIP3   OH267524   2.036   1.427  15.999 -0.3198 -0.4507  0.4386
15370TIP3    H167525   1.941   1.438  15.997 -0.1446  1.1782 -0.1369
15370TIP3    H267526   2.059   1.441  16.091 -0.5213  0.3099  0.3760
15371TIP3   OH267527   1.718   3.655  16.351 -0.0695  0.0723  0.1743
15371TIP3    H167528   1.764   3.688  16.274  1.1906  4.2052  2.4189
15371TIP3    H267529   1.771   3.582  16.381  1.3024  0.5439 -0.9705
15372TIP3   OH267530   3.845   0.942  14.859  0.5096 -0.0771  0.2324
15372TIP3    H167531   3.913   0.878  14.881 -0.7883 -1.7114 -0.3233
15372TIP3    H267532   3.894   1.022  14.839  2.0848 -0.3235  2.6988
15373TIP3   OH267533   0.946   4.803  15.329 -0.0342  0.0414  0.2778
15373TIP3    H167534   0.981   4.738  15.269  1.3181 -0.2926  1.3799
15373TIP3    H267535   0.851   4.786  15.331 -0.1882  0.3680 -2.0627
15374TIP3   OH267536   2.934   0.426   5.323  0.0550 -0.4397 -0.2731
15374TIP3    H167537   2.921   0.517   5.298  0.1215 -0.8139 -1.7986
15374TIP3    H267538   3.028   0.412   5.317  0.0511 -0.5963  0.0024
15375TIP3   OH267539   6.091   0.188  16.161 -0.2343  0.2578 -0.1174
15375TIP3    H167540   6.128   0.276  16.160 -2.0663  1.0706 -1.5106
15375TIP3    H267541   6.127   0.146  16.082  0.3151 -0.1147  0.3249
15376TIP3   OH267542   3.899   0.824   2.239 -0.1700  0.5485 -0.3333
15376TIP3    H167543   3.871   0.784   2.157  0.9585 -2.4123  0.5815
15376TIP3    H267544   3.995   0.825   2.233 -0.0168 -0.6289  1.2784
15377TIP3   OH267545   1.059   1.072  16.292 -0.2059 -0.4075 -0.3302
15377TIP3    H167546   1.040   1.163  16.318 -1.9562 -1.2515  1.6298
15377TIP3    H267547   1.153   1.062  16.306 -0.4269  0.3389  2.1624
15378TIP3   OH267548   5.072   3.184   5.561  0.2289  0.3050 -0.1900
15378TIP3    H167549   5.003   3.196   5.626 -1.1793 -3.7100 -0.6695
15378TIP3    H267550   5.025   3.163   5.480  2.0170  0.5713 -1.3551
15379TIP3   OH267551   3.401   4.071   1.560 -0.1023 -0.4668 -0.0039
15379TIP3    H167552   3.496   4.075   1.557 -0.0810 -0.8034  0.1489
15379TIP3    H267553   3.375   4.151   1.606  0.2106 -1.2018  1.5323
15380TIP3   OH267554   4.963   6.482  10.603 -0.7592  0.6684 -0.1693
15380TIP3    H167555   4.933   6.565  10.566  1.5870  2.2187  1.1523
15380TIP3    H267556   5.024   6.447  10.538 -0.1254  1.0792  0.1962
15381TIP3   OH267557   6.056   2.973  13.738  0.1605  0.5957  0.2257
15381TIP3    H167558   6.095   2.886  13.727  1.8414  1.5030 -1.7017
15381TIP3    H267559   5.977   2.958  13.790  0.9785 -1.9130  0.8776
15382TIP3   OH267560   2.468   3.681   2.433 -0.3413 -0.0910 -0.1557
15382TIP3    H167561   2.552   3.655   2.394 -0.3050  0.5562 -0.5305
15382TIP3    H267562   2.403   3.664   2.364 -0.3908  0.2564 -0.1993
15383TIP3   OH267563   3.216   3.398   2.442 -0.2840  0.3962  0.8168
15383TIP3    H167564   3.141   3.339   2.454 -0.7815  0.6310 -0.8439
15383TIP3    H267565   3.208   3.462   2.512 -1.6719  0.4326  0.6455
15384TIP3   OH267566   4.505   2.023  15.043 -0.4082 -0.0326  0.3995
15384TIP3    H167567   4.547   1.958  14.986  1.8636  1.3503  0.3986
15384TIP3    H267568   4.531   1.996  15.132 -1.6853 -0.6225  0.6106
15385TIP3   OH267569   0.991   0.085   2.715  0.2125 -0.0030  0.3038
15385TIP3    H167570   0.984   0.167   2.667 -1.9975  0.3268  1.0881
15385TIP3    H267571   0.988   0.111   2.807  3.5947 -0.6810  0.7610
15386TIP3   OH267572   3.235   5.087   3.285  0.2877  0.0085  0.4621
15386TIP3    H167573   3.162   5.033   3.318 -1.2031  0.6685 -1.5565
15386TIP3    H267574   3.254   5.147   3.356  0.5450 -1.7350  1.9566
15387TIP3   OH267575   5.498   2.009  13.280 -0.3253  0.0863 -0.3500
15387TIP3    H167576   5.419   2.045  13.240 -1.2668 -1.1439  0.3186
15387TIP3    H267577   5.539   2.083  13.324 -1.5551  0.5867 -0.0156
15388TIP3   OH267578   1.935   4.422  13.022  0.1268 -0.8320 -0.7095
15388TIP3    H167579   2.022   4.462  13.014 -0.6034  1.1519  0.4424
15388TIP3    H267580   1.949   4.345  13.077  1.1560 -0.4940 -0.4785
15389TIP3   OH267581   1.059   3.372   1.476  0.4737  0.4245  0.3379
15389TIP3    H167582   1.127   3.432   1.447  0.7375 -0.4505 -0.9565
15389TIP3    H267583   1.068   3.370   1.571  1.0059  1.7652  0.3359
15390TIP3   OH267584   6.315   4.192   1.664  0.0479 -0.2478 -0.0672
15390TIP3    H167585   6.288   4.276   1.625 -2.5241 -0.9892 -0.1029
15390TIP3    H267586   6.307   4.206   1.758  0.2466 -0.2708 -0.0465
15391TIP3   OH267587   1.897   5.273  13.413 -0.2920  0.1224  0.1942
15391TIP3    H167588   1.819   5.301  13.460  0.5472  1.1558  1.0380
15391TIP3    H267589   1.963   5.339  13.436  0.5972 -0.2664 -1.1445
15392TIP3   OH267590   6.607   0.913   2.046  0.3811 -0.3521 -0.3112
15392TIP3    H167591   6.664   0.975   2.091 -0.3963  1.7086 -2.0084
15392TIP3    H267592   6.667   0.854   2.001  1.1400 -1.2537  1.7420
15393TIP3   OH267593   1.591   3.731  14.088  0.2048 -0.3134  0.2126
15393TIP3    H167594   1.551   3.731  14.175 -1.0655 -0.4556 -0.3403
15393TIP3    H267595   1.637   3.647  14.082 -0.7398 -0.8520  0.3037
15394TIP3   OH267596   0.585   3.500   6.369  0.2027  0.4933 -0.7144
15394TIP3    H167597   0.528   3.574   6.349 -0.0752  0.6596  0.6178
15394TIP3    H267598   0.661   3.540   6.412 -0.0676 -0.0023  0.2470
15395TIP3   OH267599   4.444   5.361  11.973 -0.8175  0.1137 -0.7794
15395TIP3    H167600   4.538   5.343  11.967 -0.8935 -1.2904  1.1511
15395TIP3    H267601   4.437   5.431  12.038 -1.1731 -2.5369  2.3556
15396TIP3   OH267602   3.275   6.769  16.717  0.0867 -0.1827 -0.0775
15396TIP3    H167603   3.254   6.830  16.646  0.6082 -0.0962 -0.1645
15396TIP3    H267604   3.230   6.688  16.694 -2.0361  0.6576  0.8985
15397TIP3   OH267605   2.639   1.340   0.541 -0.0808 -0.2154  1.1063
15397TIP3    H167606   2.604   1.410   0.597 -0.2816 -0.8146  1.7499
15397TIP3    H267607   2.684   1.281   0.602  1.7999  0.3543  0.3448
15398TIP3   OH267608   6.731   6.278  15.026 -0.3523  0.3840 -0.2274
15398TIP3    H167609   6.749   6.371  15.036 -1.5457  0.7167 -0.8858
15398TIP3    H267610   6.713   6.268  14.932  2.7566 -1.1025 -0.7970
15399TIP3   OH267611   2.592   4.087  13.453  0.2183 -0.2974  0.4371
15399TIP3    H167612   2.550   4.153  13.397  0.7972 -0.3781 -0.1072
15399TIP3    H267613   2.606   4.012  13.395  1.8412  0.0227  0.3681
15400TIP3   OH267614   1.708   0.564  16.630  0.0124  0.1156 -0.2222
15400TIP3    H167615   1.801   0.548  16.613 -0.0455  0.9075 -1.3628
15400TIP3    H267616   1.707   0.648  16.676 -0.0872 -0.3287  0.6042
15401TIP3   OH267617   3.179   1.705  13.894 -0.5023  0.6207 -0.0268
15401TIP3    H167618   3.114   1.768  13.864  0.4189  2.0400  0.8672
15401TIP3    H267619   3.261   1.733  13.853 -0.0586  0.0691  0.4594
15402TIP3   OH267620   2.093   4.779   4.447  0.2526 -0.4467  0.1114
15402TIP3    H167621   2.119   4.868   4.471  0.0163 -0.5071  0.5946
15402TIP3    H267622   2.013   4.791   4.395 -1.1485 -0.4995  2.1692
15403TIP3   OH267623   6.137   1.878   2.376 -0.2015  0.2458 -0.1675
15403TIP3    H167624   6.069   1.923   2.326 -0.4033  1.0794  0.8350
15403TIP3    H267625   6.104   1.876   2.465 -0.8164 -3.1019 -0.3356
15404TIP3   OH267626   6.708   5.739  12.347  0.2874 -0.1237  0.0523
15404TIP3    H167627   6.652   5.751  12.423 -1.2077 -2.6652 -0.5222
15404TIP3    H267628   6.647   5.730  12.273  1.5646 -0.2242 -1.0419
15405TIP3   OH267629   6.702   5.811   0.522  0.1309 -0.0917 -0.0657
15405TIP3    H167630   6.726   5.885   0.466  0.2118  1.2164  1.6242
15405TIP3    H267631   6.710   5.735   0.465  0.4115  1.1477 -1.7667
15406TIP3   OH267632   0.120   3.623  15.468 -0.4661  0.0680 -0.4757
15406TIP3    H167633   0.065   3.545  15.473  1.6160 -1.6102 -1.7095
15406TIP3    H267634   0.074   3.682  15.409 -0.3136 -1.9407 -2.7422
15407TIP3   OH267635   2.240   4.997   1.902  0.2363  0.0637 -0.4437
15407TIP3    H167636   2.262   5.005   1.995 -0.3368 -0.7366 -0.2207
15407TIP3    H267637   2.323   5.008   1.857  0.6600 -0.3202  0.2161
15408TIP3   OH267638   5.820   3.750   0.159  0.3364  0.1694  0.3983
15408TIP3    H167639   5.725   3.749   0.173  0.0766  1.0866 -0.9913
15408TIP3    H267640   5.838   3.839   0.129  1.7413  0.1767  1.1964
15409TIP3   OH267641   3.225   4.427  15.491 -0.1230 -0.4113 -0.0242
15409TIP3    H167642   3.229   4.393  15.402  2.1291 -0.3133 -0.0387
15409TIP3    H267643   3.139   4.468  15.499 -1.0719 -1.9891 -1.5396
15410TIP3   OH267644   6.296   3.963  15.788  0.1864 -0.2722  0.3911
15410TIP3    H167645   6.323   4.036  15.844  0.0670 -0.3741  0.5811
15410TIP3    H267646   6.311   3.995  15.699  2.8199 -1.0289  0.4763
15411TIP3   OH267647   2.404   0.651  17.185 -0.1613  0.2477 -0.0747
15411TIP3    H167648   2.395   0.681  17.094 -1.1253  1.4634  0.3783
15411TIP3    H267649   2.410   0.732  17.236  0.5492 -0.4247  0.9287
15412TIP3   OH267650   6.769   6.122  12.545 -0.5749  0.1418  0.0187
15412TIP3    H167651   6.675   6.137  12.536 -0.5169  1.3797  1.1481
15412TIP3    H267652   6.809   6.199  12.506 -0.1025  0.6026  1.3611
15413TIP3   OH267653   3.480   4.099  13.090 -0.9375 -0.0554 -0.2299
15413TIP3    H167654   3.462   4.011  13.126  0.4087 -0.2375  0.0267
15413TIP3    H267655   3.575   4.105  13.088 -1.0125  1.0079 -1.2492
15414TIP3   OH267656   1.119   3.542  16.740 -0.3484 -0.5303  0.2219
15414TIP3    H167657   1.025   3.561  16.744  0.3148  3.9187  0.5478
15414TIP3    H267658   1.144   3.525  16.831 -0.5833  0.2025  0.4308
15415TIP3   OH267659   2.512   1.343   3.859 -0.0814 -0.4716  0.2829
15415TIP3    H167660   2.588   1.317   3.911  1.7315  2.1092 -0.9017
15415TIP3    H267661   2.463   1.403   3.915 -0.4205 -0.9247  0.4798
15416TIP3   OH267662   4.633   6.157  14.867  0.1922  0.2723  0.5417
15416TIP3    H167663   4.691   6.145  14.942  0.9991 -1.0816 -0.2685
15416TIP3    H267664   4.681   6.218  14.810  1.5741 -1.9519 -0.8050
15417TIP3   OH267665   0.355   6.243   4.044  0.4926 -0.2554  0.3554
15417TIP3    H167666   0.342   6.318   4.102  0.8619  0.1695 -0.0965
15417TIP3    H267667   0.329   6.167   4.096 -0.1047  0.2086  0.7423
15418TIP3   OH267668   0.775   6.663  14.866 -0.1885  0.1141  0.2474
15418TIP3    H167669   0.796   6.588  14.811 -2.3470  0.9793 -1.9434
15418TIP3    H267670   0.794   6.739  14.810 -0.0664  1.1455  1.6479
15419TIP3   OH267671   3.277   3.579   5.344 -0.0829 -0.5403  0.0899
15419TIP3    H167672   3.266   3.592   5.250  1.3659  0.6418  0.0503
15419TIP3    H267673   3.214   3.638   5.384  1.1849  1.0607 -0.1614
15420TIP3   OH267674   3.170   6.283  16.034  0.0032 -0.2739  0.4880
15420TIP3    H167675   3.247   6.339  16.020  0.1824 -0.4972  0.5711
15420TIP3    H267676   3.181   6.211  15.973 -0.1454 -0.3022  0.4956
15421TIP3   OH267677   2.824   1.846  12.107  0.1595  0.0735 -0.2903
15421TIP3    H167678   2.857   1.881  12.190  3.0373 -0.6812 -1.0163
15421TIP3    H267679   2.788   1.923  12.062  2.8601  1.4913 -0.2506
15422TIP3   OH267680   5.794   2.071  14.045  0.1225 -0.1758  0.0826
15422TIP3    H167681   5.785   2.021  14.126 -0.3605 -0.3538 -0.0801
15422TIP3    H267682   5.888   2.081  14.034  0.1855  0.5664  1.1047
15423TIP3   OH267683   2.150   2.139  10.951 -0.0696  0.2611 -0.3325
15423TIP3    H167684   2.071   2.131  10.897 -0.7097 -1.1207  0.7338
15423TIP3    H267685   2.118   2.171  11.035  0.8718  2.0980 -0.6411
15424TIP3   OH267686   4.078   4.412  14.734 -0.2900 -0.0492  0.2441
15424TIP3    H167687   4.016   4.416  14.807  0.2479  0.3937  0.6922
15424TIP3    H267688   4.082   4.502  14.701 -2.5407 -0.6827 -2.1060
15425TIP3   OH267689   1.444   0.170  11.856  0.0300 -0.7231 -0.4304
15425TIP3    H167690   1.417   0.197  11.768  0.8479  0.2424 -0.4028
15425TIP3    H267691   1.362   0.148  11.900 -0.3928 -1.2100 -1.4161
15426TIP3   OH267692   0.180   1.116  14.456  0.3265  0.4580  0.3265
15426TIP3    H167693   0.221   1.168  14.525  0.4177 -1.3496  1.6970
15426TIP3    H267694   0.158   1.180  14.388  0.7922  2.2122  1.7442
15427TIP3   OH267695   2.825   6.144  16.772  0.2199  0.1213  0.2678
15427TIP3    H167696   2.797   6.083  16.841 -4.9749  1.7770  0.0475
15427TIP3    H267697   2.793   6.104  16.691 -0.6221  1.7094 -0.2171
15428TIP3   OH267698   4.755   3.119   2.383  0.3679 -0.5925 -0.1092
15428TIP3    H167699   4.673   3.144   2.424  0.2414 -0.1005 -0.6478
15428TIP3    H267700   4.730   3.061   2.311  0.4496 -0.0911 -0.5507
15429TIP3   OH267701   3.677   1.784  17.178  0.5382 -0.0485 -0.2805
15429TIP3    H167702   3.664   1.821  17.091  0.4199  0.6147  0.0102
15429TIP3    H267703   3.763   1.743  17.173  0.8535  0.6125 -0.5082
15430TIP3   OH267704   4.904   3.566  17.150  0.1392 -0.4367 -0.1744
15430TIP3    H167705   4.914   3.513  17.071  0.3709  1.0339 -1.1834
15430TIP3    H267706   4.827   3.530  17.194  0.2412 -1.5401 -0.8540
15431TIP3   OH267707   3.358   2.462   0.734 -0.2195  0.4948  0.3643
15431TIP3    H167708   3.284   2.476   0.793 -0.0168 -1.7621  1.2875
15431TIP3    H267709   3.421   2.413   0.787  1.6073  1.6657 -0.6459
15432TIP3   OH267710   4.631   4.677   0.579  0.1032  0.2253 -0.5026
15432TIP3    H167711   4.537   4.663   0.590  0.3808 -0.1506  1.6606
15432TIP3    H267712   4.653   4.745   0.643  1.0043  1.7544 -2.3124
15433TIP3   OH267713   6.182   0.686   6.137  0.3945 -0.6004  0.0236
15433TIP3    H167714   6.257   0.640   6.101  1.3002  1.0842 -0.3722
15433TIP3    H267715   6.158   0.750   6.069 -1.5283 -1.2276  0.0692
15434TIP3   OH267716   4.711   0.477  10.914  0.0429 -0.2950  0.5465
15434TIP3    H167717   4.686   0.569  10.917 -1.2123 -0.5655 -0.4344
15434TIP3    H267718   4.635   0.433  10.875  1.5073 -1.4026 -1.2524
15435TIP3   OH267719   6.233   1.539   1.454  0.1185 -0.0317 -0.4423
15435TIP3    H167720   6.318   1.508   1.422  0.3626  0.8372 -0.6705
15435TIP3    H267721   6.169   1.489   1.404  0.4832 -0.9819  0.0096
15436TIP3   OH267722   3.503   2.473   3.517 -0.8112  0.3128  0.5972
15436TIP3    H167723   3.485   2.541   3.452  1.8014  1.9320  1.3949
15436TIP3    H267724   3.460   2.505   3.597 -1.2315  0.0169  0.4903
15437TIP3   OH267725   5.506   6.416  12.650  0.7031 -0.4482 -0.0610
15437TIP3    H167726   5.493   6.492  12.593  0.9261  0.2931  0.8571
15437TIP3    H267727   5.462   6.344  12.605  0.4294  0.2374 -0.9081
15438TIP3   OH267728   3.377   6.293   0.190  0.3974 -0.4226 -0.3715
15438TIP3    H167729   3.303   6.233   0.202 -1.2356  1.8131  1.6870
15438TIP3    H267730   3.414   6.304   0.278  0.5072  1.6992 -0.6428
15439TIP3   OH267731   4.258   2.397   2.581 -0.3891 -0.1927  0.4075
15439TIP3    H167732   4.278   2.447   2.661  0.2849 -1.9998  1.4223
15439TIP3    H267733   4.248   2.307   2.611  2.1363 -1.3325 -1.8117
15440TIP3   OH267734   3.471   4.678  13.369  0.3890  0.0664  0.3801
15440TIP3    H167735   3.548   4.620  13.369  0.3708  0.0209  1.2269
15440TIP3    H267736   3.413   4.641  13.303  0.9871 -0.0489 -0.0919
15441TIP3   OH267737   2.870   0.815   0.597 -0.1541 -0.1424  0.5362
15441TIP3    H167738   2.950   0.778   0.558 -0.6271 -0.5261 -0.0957
15441TIP3    H267739   2.870   0.906   0.570 -1.0693 -0.6617 -1.4231
15442TIP3   OH267740   5.692   1.497  14.161  0.3493  0.1950 -0.4508
15442TIP3    H167741   5.644   1.562  14.111  0.7683  0.5427 -0.4076
15442TIP3    H267742   5.700   1.534  14.249 -1.2657 -0.8564  0.1791
15443TIP3   OH267743   5.747   5.883  16.233 -0.3530 -0.3258 -0.1238
15443TIP3    H167744   5.837   5.867  16.261  0.3445  2.9253 -0.1228
15443TIP3    H267745   5.694   5.865  16.311  0.3051 -1.7715  0.0212
15444TIP3   OH267746   1.557   3.420   0.238  0.4602  0.2538 -0.2824
15444TIP3    H167747   1.553   3.329   0.268  0.3038  0.8640  1.6645
15444TIP3    H267748   1.475   3.434   0.190  1.7301 -1.4238 -3.2002
15445TIP3   OH267749   5.595   0.954  11.438 -0.4558  0.2712 -0.1411
15445TIP3    H167750   5.647   0.879  11.468 -0.4524  0.2031 -0.3135
15445TIP3    H267751   5.590   1.012  11.514 -1.4005 -0.4104  0.3426
15446TIP3   OH267752   5.387   0.688   5.775  0.3496 -0.0804 -0.4710
15446TIP3    H167753   5.474   0.677   5.814 -0.1929 -2.3857  0.1725
15446TIP3    H267754   5.346   0.757   5.827  1.6347  0.8101 -0.5773
15447TIP3   OH267755   4.288   0.717   1.723 -0.1282 -0.8282  0.1991
15447TIP3    H167756   4.305   0.635   1.769 -2.8513 -1.2027  0.7534
15447TIP3    H267757   4.284   0.691   1.630  4.3620 -0.2451 -0.3553
15448TIP3   OH267758   6.075   3.920  11.374 -0.3360 -0.0256  0.0430
15448TIP3    H167759   6.166   3.896  11.360 -0.2401  0.0489  0.5345
15448TIP3    H267760   6.072   4.015  11.364 -0.8124 -0.2117 -2.4483
15449TIP3   OH267761   0.786   3.651  14.005 -0.0528 -0.0738 -0.3601
15449TIP3    H167762   0.820   3.647  13.916 -0.6733 -1.0589 -0.5706
15449TIP3    H267763   0.844   3.592  14.055 -0.7344 -0.8743 -0.4872
15450TIP3   OH267764   1.957   3.862  11.130  1.2406  0.1389  0.0913
15450TIP3    H167765   2.027   3.924  11.149  1.1946  0.2285 -0.0232
15450TIP3    H267766   1.902   3.908  11.066  1.3792 -0.1441 -0.2326
15451TIP3   OH267767   3.031   2.512  14.768 -0.4163  0.4335 -0.6831
15451TIP3    H167768   3.114   2.542  14.805 -1.1816  1.9959 -0.1168
15451TIP3    H267769   2.976   2.590  14.768 -2.4955 -0.9434  0.6661
15452TIP3   OH267770   3.187   6.772  11.969  0.2683 -0.0526 -0.7575
15452TIP3    H167771   3.130   6.729  12.033 -0.4327  1.0571 -0.6193
15452TIP3    H267772   3.267   6.719  11.970 -0.6894 -1.5644 -0.8696
15453TIP3   OH267773   3.452   3.924   0.462  0.1247 -0.8943  0.5601
15453TIP3    H167774   3.422   4.015   0.455  0.9500 -0.5859  0.9996
15453TIP3    H267775   3.415   3.892   0.544 -2.2482 -1.7675 -0.7513
15454TIP3   OH267776   2.904   3.000   3.129 -0.4116  0.3632  0.5289
15454TIP3    H167777   2.971   2.948   3.173  0.7004  1.8435  0.6551
15454TIP3    H267778   2.848   2.935   3.085  1.6374 -0.8881 -0.3733
15455TIP3   OH267779   0.397   0.152   3.530 -0.3922 -0.4699  0.1950
15455TIP3    H167780   0.404   0.056   3.532  1.0714 -0.3803  0.6604
15455TIP3    H267781   0.485   0.182   3.550 -1.1845  0.9770  1.7371
15456TIP3   OH267782   4.289   5.211  14.795 -0.7846  0.1252  0.0135
15456TIP3    H167783   4.212   5.268  14.786 -0.3250  0.6445 -0.6803
15456TIP3    H267784   4.324   5.203  14.707 -1.3380 -1.9754 -0.0624
15457TIP3   OH267785   0.113   4.501   2.806 -0.1501 -0.1209  0.5011
15457TIP3    H167786   0.070   4.551   2.875 -0.7397 -0.8666  0.6897
15457TIP3    H267787   0.141   4.567   2.742 -1.3387  0.4165  0.5086
15458TIP3   OH267788   3.459   2.017   3.520 -0.8286  0.2118  0.2710
15458TIP3    H167789   3.424   1.950   3.461 -1.2164  0.3281  0.3626
15458TIP3    H267790   3.381   2.064   3.552 -0.6107  0.2478  0.7566
15459TIP3   OH267791   2.287   3.513  15.179 -0.1123  0.3887 -0.6080
15459TIP3    H167792   2.315   3.505  15.270  0.3307 -1.5410 -0.8789
15459TIP3    H267793   2.364   3.547  15.133 -0.1532  0.8157 -0.3638
15460TIP3   OH267794   5.151   2.364  12.570  0.1595  0.1416  0.5805
15460TIP3    H167795   5.104   2.438  12.610 -0.3998 -0.6814  1.4904
15460TIP3    H267796   5.132   2.372  12.477  1.2625  1.9395  0.4611
15461TIP3   OH267797   4.716   2.777   3.232 -0.0577 -0.3536  0.4081
15461TIP3    H167798   4.682   2.796   3.145 -0.0893  1.9371  0.8563
15461TIP3    H267799   4.638   2.761   3.285 -0.0841 -0.8324  0.2340
15462TIP3   OH267800   6.107   0.270  14.038  0.3961  0.1321  0.2477
15462TIP3    H167801   6.157   0.350  14.022 -0.3857  0.8470  1.2294
15462TIP3    H267802   6.103   0.226  13.954  3.0242 -0.1686  0.1898
15463TIP3   OH267803   3.612   1.228  13.427 -0.3836 -0.3284 -0.0354
15463TIP3    H167804   3.696   1.204  13.387 -0.3244 -1.1127  0.5283
15463TIP3    H267805   3.600   1.165  13.498 -0.2570  1.3080  1.5215
15464TIP3   OH267806   2.991   1.891  14.161 -0.5444 -0.3150 -0.7035
15464TIP3    H167807   2.985   1.982  14.189 -0.6629 -0.8298  1.1003
15464TIP3    H267808   3.083   1.868  14.175 -0.5583 -0.5226 -0.9529
15465TIP3   OH267809   3.061   6.621  12.211 -0.0115  0.4854 -0.3766
15465TIP3    H167810   3.004   6.568  12.154 -0.5305  1.3920 -0.7202
15465TIP3    H267811   3.106   6.557  12.266 -0.6595 -0.3125 -0.7516
15466TIP3   OH267812   2.025   2.832  13.623  0.0147 -0.2476  0.1376
15466TIP3    H167813   2.061   2.919  13.605 -1.8034  0.4434 -0.3405
15466TIP3    H267814   1.973   2.811  13.546  0.1030 -1.5867  0.4268
15467TIP3   OH267815   4.597   2.345   2.939  0.1577 -0.0126  0.3359
15467TIP3    H167816   4.665   2.406   2.967  1.1888 -0.3597 -1.2998
15467TIP3    H267817   4.518   2.399   2.932  0.0721  0.3086  2.7146
15468TIP3   OH267818   5.548   3.368  11.576 -0.0562 -0.0285 -0.0041
15468TIP3    H167819   5.551   3.273  11.582 -0.5464 -0.0040  0.6836
15468TIP3    H267820   5.456   3.388  11.560 -0.0491  0.3590  0.4272
15469TIP3   OH267821   1.140   4.151  16.296  0.2884  0.1928  0.1130
15469TIP3    H167822   1.155   4.169  16.203  0.3336  0.0786  0.0981
15469TIP3    H267823   1.213   4.095  16.322 -0.0376 -0.2595  0.0673
15470TIP3   OH267824   3.574   2.767  15.917 -0.3149 -0.4097  0.1987
15470TIP3    H167825   3.553   2.761  16.011 -1.2037 -0.1934  0.0243
15470TIP3    H267826   3.489   2.783  15.875  0.3533  2.1240 -0.4041
15471TIP3   OH267827   3.702   5.329  13.606 -0.3696 -0.3394  0.1525
15471TIP3    H167828   3.763   5.350  13.535 -0.7170  0.2334  0.0096
15471TIP3    H267829   3.742   5.365  13.684 -0.6165  0.2236  0.0251
15472TIP3   OH267830   0.190   3.751   1.579 -0.4481  0.0483 -0.0576
15472TIP3    H167831   0.179   3.821   1.643 -0.8322  0.5944 -0.7019
15472TIP3    H267832   0.123   3.687   1.601 -0.5963  0.2459  0.0663
15473TIP3   OH267833   3.486   5.881  13.051 -0.0187  0.1251 -0.0168
15473TIP3    H167834   3.436   5.800  13.056  1.5046 -1.0164 -1.8166
15473TIP3    H267835   3.521   5.893  13.140 -0.2110 -1.2259  0.2688
15474TIP3   OH267836   2.259   0.572  12.093  0.4900 -0.2234 -0.4854
15474TIP3    H167837   2.279   0.562  12.000  0.5270 -0.7265 -0.4283
15474TIP3    H267838   2.342   0.594  12.133  0.7013 -1.1033 -0.4198
15475TIP3   OH267839   4.734   0.005   1.180 -0.1544 -0.3789 -0.0452
15475TIP3    H167840   4.647   0.038   1.202  0.5294  2.5752 -1.2086
15475TIP3    H267841   4.792   0.048   1.243  0.6810 -0.3653 -0.8021
15476TIP3   OH267842   1.430   2.230  14.353 -0.0498  0.2590 -0.2999
15476TIP3    H167843   1.422   2.320  14.320 -1.3412  0.8399  1.4641
15476TIP3    H267844   1.374   2.227  14.430  1.9193 -1.3311  1.2055
15477TIP3   OH267845   1.580   5.245  12.840 -0.5388  0.0613  0.2453
15477TIP3    H167846   1.495   5.262  12.800 -0.9519 -1.1433  0.5537
15477TIP3    H267847   1.638   5.225  12.767 -0.6719  0.2820  0.0782
15478TIP3   OH267848   5.106   1.898  12.515 -0.1154 -0.7183  0.0124
15478TIP3    H167849   5.071   1.852  12.439 -0.0289 -0.5649 -0.1201
15478TIP3    H267850   5.113   1.989  12.487  0.4026 -0.7469  0.0268
15479TIP3   OH267851   4.098   3.130  16.433  0.1607  0.1888  0.0440
15479TIP3    H167852   4.016   3.083  16.430  1.0693 -1.3990 -1.8956
15479TIP3    H267853   4.156   3.075  16.486  1.3775 -1.2925 -2.6405
15480TIP3   OH267854   0.478   0.447  16.911  0.6194  0.0959  0.1762
15480TIP3    H167855   0.463   0.527  16.962 -0.0671  0.6913 -0.9166
15480TIP3    H267856   0.470   0.475  16.820  0.3864 -1.2166 -0.2264
15481TIP3   OH267857   3.122   2.030  16.121  0.2800  0.7623  0.2442
15481TIP3    H167858   3.154   2.029  16.211  1.2532  1.4986 -0.0808
15481TIP3    H267859   3.129   1.938  16.092 -1.7354  0.1649  1.4597
15482TIP3   OH267860   5.096   6.371  15.943  0.0235  0.6122  0.1779
15482TIP3    H167861   5.033   6.436  15.910 -1.1091 -0.6819 -0.2921
15482TIP3    H267862   5.175   6.385  15.891 -0.7824  0.5002 -1.1119
15483TIP3   OH267863   0.159   2.652   0.042  0.4232 -0.6441  0.1923
15483TIP3    H167864   0.079   2.641  -0.009  0.5401  0.6909 -0.3169
15483TIP3    H267865   0.224   2.597  -0.002  0.0442 -0.9672  0.0312
15484TIP3   OH267866   2.411   2.610  15.607  0.7225 -0.1756 -0.0810
15484TIP3    H167867   2.408   2.515  15.593  1.4306 -0.1155 -0.7392
15484TIP3    H267868   2.345   2.646  15.548  2.3301 -0.0742 -1.8960
15485TIP3   OH267869   4.186   5.751   1.937  0.3967  0.0860  0.2516
15485TIP3    H167870   4.148   5.750   2.025 -1.0024 -1.5413 -0.3205
15485TIP3    H267871   4.233   5.668   1.931  0.1470  0.0112 -0.6813
15486TIP3   OH267872   2.686   4.005  12.815  0.0519  0.2061 -0.0628
15486TIP3    H167873   2.776   4.033  12.828  0.5807  0.2946 -3.2727
15486TIP3    H267874   2.634   4.067  12.866  1.6790  1.2683  0.3687
15487TIP3   OH267875   6.476   5.596  14.015  0.2450 -0.0167 -0.0844
15487TIP3    H167876   6.562   5.556  14.004  0.2537  0.4625 -2.2154
15487TIP3    H267877   6.416   5.538  13.969 -0.7034 -0.6185  1.8183
15488TIP3   OH267878   4.736   3.420  12.503  0.0033  0.0490 -0.2966
15488TIP3    H167879   4.702   3.491  12.558  1.3606  0.1056  0.5156
15488TIP3    H267880   4.680   3.421  12.425 -0.0969  1.9479 -0.2601
15489TIP3   OH267881   6.144   3.899  14.314  0.2175  0.2239 -0.3133
15489TIP3    H167882   6.166   3.814  14.277  0.3369 -0.6096  1.5762
15489TIP3    H267883   6.097   3.945  14.243 -0.1760 -1.5253 -1.2359
15490TIP3   OH267884   5.502   4.763   3.840 -0.6163  0.2413 -0.1669
15490TIP3    H167885   5.491   4.691   3.902  0.5581  0.7853  0.7015
15490TIP3    H267886   5.421   4.814   3.848  0.4527  1.6967  2.8088
15491TIP3   OH267887   4.490   0.438   5.081 -0.0368 -0.3098  0.3804
15491TIP3    H167888   4.532   0.523   5.065 -0.6103 -0.3114 -1.3703
15491TIP3    H267889   4.561   0.375   5.072 -0.1058 -0.2095 -1.2882
15492TIP3   OH267890   2.874   0.250   1.611 -0.7206 -0.7924 -0.7143
15492TIP3    H167891   2.852   0.341   1.592 -0.7420 -0.8675 -1.0434
15492TIP3    H267892   2.934   0.224   1.542 -0.0251 -0.7654 -0.1267
15493TIP3   OH267893   4.282   0.720   4.561 -0.2705  0.5829 -0.7026
15493TIP3    H167894   4.302   0.633   4.595  1.0017  1.2008  0.2379
15493TIP3    H267895   4.368   0.760   4.546 -0.6992  2.6903  1.6732
15494TIP3   OH267896   2.721   3.630  10.677  0.7927 -0.2149 -0.2147
15494TIP3    H167897   2.808   3.626  10.715  0.7006 -0.1426  0.0094
15494TIP3    H267898   2.733   3.671  10.592  1.0305 -0.5574 -0.3486
15495TIP3   OH267899   5.032   6.716  14.195  0.0111 -0.2763  0.0804
15495TIP3    H167900   5.118   6.674  14.198 -0.7001 -1.9918 -1.5980
15495TIP3    H267901   5.025   6.763  14.278  2.4571 -0.2616  0.3617
15496TIP3   OH267902   2.814   3.409   6.021  0.4448  0.0367 -0.2587
15496TIP3    H167903   2.864   3.490   6.016  1.0693 -0.0927  2.3735
15496TIP3    H267904   2.724   3.437   6.039  0.4221  0.1563 -0.5480
15497TIP3   OH267905   5.926   4.465   3.275  0.3247 -0.0631  0.3179
15497TIP3    H167906   5.842   4.498   3.307  0.7986 -2.0263  4.1308
15497TIP3    H267907   5.943   4.516   3.196 -3.7333  1.3855  0.1510
15498TIP3   OH267908   4.718   1.776  16.907 -0.3960 -0.4875  0.0342
15498TIP3    H167909   4.629   1.793  16.877  0.3512  0.7420 -1.6003
15498TIP3    H267910   4.737   1.688  16.874 -1.4268 -1.3683  1.5913
15499TIP3   OH267911   4.046   6.419  11.628 -0.4672 -0.0655 -0.2690
15499TIP3    H167912   3.956   6.446  11.610 -1.0751 -0.2089  2.1661
15499TIP3    H267913   4.042   6.323  11.631  0.0452 -0.1364 -1.2708
15500TIP3   OH267914   4.899   4.432  12.776 -0.0052  0.9396 -0.2101
15500TIP3    H167915   4.925   4.466  12.862 -0.1412  1.6349 -0.4358
15500TIP3    H267916   4.804   4.446  12.773 -0.4217 -1.3494  0.5067
15501TIP3   OH267917   3.623   2.750   4.839 -0.5994  0.3831 -1.0009
15501TIP3    H167918   3.710   2.787   4.820 -0.4491  0.3996 -0.3251
15501TIP3    H267919   3.569   2.827   4.861 -1.2125  0.5383 -2.9103
15502TIP3   OH267920   6.688   5.206  13.831 -0.3420  0.0631 -0.6642
15502TIP3    H167921   6.708   5.270  13.900 -0.0300 -1.0056  0.2754
15502TIP3    H267922   6.598   5.178  13.851 -0.6963  0.6174 -1.4248
15503TIP3   OH267923   0.940   3.466  11.474 -0.0283  0.1844 -0.2956
15503TIP3    H167924   0.924   3.483  11.567  1.4427  1.5650 -0.2602
15503TIP3    H267925   0.853   3.468  11.435 -0.7898 -1.4463  1.1724
15504TIP3   OH267926   5.284   0.644   4.328 -0.3705 -0.8488  0.5352
15504TIP3    H167927   5.362   0.618   4.278 -1.0394 -1.2892 -0.2986
15504TIP3    H267928   5.238   0.705   4.269  1.1748  2.4164  2.4138
15505TIP3   OH267929   4.448   0.683  11.174 -0.1625  0.2210 -0.3054
15505TIP3    H167930   4.449   0.762  11.228 -0.2882  0.7543 -1.0815
15505TIP3    H267931   4.484   0.615  11.231 -4.1317 -0.2753  2.0109
15506TIP3   OH267932   2.998   1.764  13.516 -0.6904 -0.0818 -0.8112
15506TIP3    H167933   2.934   1.792  13.450 -0.0760  1.2882 -0.8672
15506TIP3    H267934   3.007   1.839  13.575 -1.2062 -1.2742  0.8498
15507TIP3   OH267935   2.348   4.626  15.387  0.1753  0.2563  0.0220
15507TIP3    H167936   2.419   4.671  15.432  0.2627  0.8227 -0.6700
15507TIP3    H267937   2.358   4.651  15.295  0.2194 -1.1739 -0.3777
15508TIP3   OH267938   4.232   3.569   3.447  0.2348 -0.8215  0.0579
15508TIP3    H167939   4.189   3.617   3.376  2.3226  1.3643  0.1426
15508TIP3    H267940   4.319   3.608   3.453 -0.1812 -0.0856  4.6028
15509TIP3   OH267941   5.495   3.788  12.541  0.6098 -0.2983  0.0005
15509TIP3    H167942   5.524   3.873  12.507  0.1872 -0.1069  0.1078
15509TIP3    H267943   5.473   3.738  12.463 -2.2082  0.7955 -0.0415
15510TIP3   OH267944   6.669   4.637  11.415 -0.4852  0.5684 -0.1776
15510TIP3    H167945   6.763   4.652  11.404  0.2540 -1.4730  2.2992
15510TIP3    H267946   6.640   4.600  11.331  1.2721 -0.1608 -0.5068
15511TIP3   OH267947   3.443   3.220   0.013 -0.3136  0.0821  0.0316
15511TIP3    H167948   3.388   3.156   0.058  1.5863  0.3444  3.0474
15511TIP3    H267949   3.500   3.168  -0.044 -0.0522 -0.7589  1.0359
15512TIP3   OH267950   0.420   0.426   3.597 -0.0234  0.2045 -0.5051
15512TIP3    H167951   0.387   0.457   3.682  2.3608 -0.7356  0.8714
15512TIP3    H267952   0.369   0.347   3.579 -0.6618  0.4959 -0.0419
15513TIP3   OH267953   4.482   3.684   0.302 -0.1710 -0.2311 -0.5884
15513TIP3    H167954   4.409   3.653   0.249  1.7166  0.8350 -4.1309
15513TIP3    H267955   4.483   3.779   0.288  0.9555 -0.0213  0.7018
15514TIP3   OH267956   3.228   1.054   2.602 -0.1323  0.0195 -0.0246
15514TIP3    H167957   3.318   1.051   2.569 -0.4133  0.0460 -0.8186
15514TIP3    H267958   3.224   0.984   2.668  0.2494 -0.5097 -0.5530
15515TIP3   OH267959   2.819   2.363   5.410  0.4964  0.3928  0.3225
15515TIP3    H167960   2.884   2.433   5.424  0.1231  0.9403 -0.6189
15515TIP3    H267961   2.754   2.379   5.478  2.2576 -1.3433  2.5855
15516TIP3   OH267962   2.018   4.246  12.376  0.5822  0.0317 -0.1846
15516TIP3    H167963   1.982   4.276  12.292 -0.4206  0.2560  0.3121
15516TIP3    H267964   2.064   4.165  12.354 -0.4211 -0.3872 -0.8096
15517TIP3   OH267965   5.827   4.809  16.262  0.5125 -0.1366 -0.2283
15517TIP3    H167966   5.860   4.773  16.344  0.5130 -1.5151 -0.8108
15517TIP3    H267967   5.892   4.784  16.196 -0.4048 -0.6857 -0.9537
15518TIP3   OH267968   1.510   3.387  12.739 -0.0720 -0.2047 -0.0204
15518TIP3    H167969   1.601   3.414  12.748  0.1239 -0.9257  0.2543
15518TIP3    H267970   1.511   3.321  12.670 -0.3013 -0.5819  0.3301
15519TIP3   OH267971   5.331   6.462  15.854 -0.3522  0.0106  0.0949
15519TIP3    H167972   5.389   6.387  15.840  0.4295  0.8747 -1.5366
15519TIP3    H267973   5.367   6.507  15.930  1.0230  0.4270 -0.7835
15520TIP3   OH267974   0.925   6.309   6.189  0.1183 -0.1404  0.3461
15520TIP3    H167975   0.937   6.404   6.189 -0.6471 -0.0222 -0.8714
15520TIP3    H267976   0.948   6.282   6.100  1.0287 -1.2035  0.8826
15521TIP3   OH267977   4.187   4.665   4.319 -0.3525 -0.0742  0.1951
15521TIP3    H167978   4.253   4.733   4.328  0.2366 -0.5619 -0.3109
15521TIP3    H267979   4.117   4.690   4.379  0.3730  0.3610  0.8628
15522TIP3   OH267980   5.944   4.383  15.531  0.5187 -0.1199  0.1127
15522TIP3    H167981   5.920   4.341  15.449  0.9068 -1.5524  0.7034
15522TIP3    H267982   5.994   4.460  15.505 -0.7018  0.3238 -1.0098
15523TIP3   OH267983   1.342   3.490  16.250  0.0700  0.0477 -0.1997
15523TIP3    H167984   1.404   3.519  16.317  0.2937 -1.4788  0.3001
15523TIP3    H267985   1.256   3.506  16.289  0.1475  1.2884 -0.5059
15524TIP3   OH267986   0.793   4.825   3.232 -0.1164  0.0856 -0.0054
15524TIP3    H167987   0.790   4.904   3.179 -0.3556  0.6926  0.9067
15524TIP3    H267988   0.752   4.849   3.315  0.8371 -0.6613  0.7097
15525TIP3   OH267989   1.344   4.698  13.727 -0.0523 -0.2802  0.1419
15525TIP3    H167990   1.409   4.628  13.736 -1.1190 -1.6935 -1.9634
15525TIP3    H267991   1.275   4.658  13.673 -0.5737  2.5010 -1.4274
15526TIP3   OH267992   0.904   1.312   4.649 -0.2261 -0.0759  0.1196
15526TIP3    H167993   0.959   1.312   4.728  1.0022 -2.5851 -0.6154
15526TIP3    H267994   0.830   1.368   4.671  1.5774  1.7721  1.9358
15527TIP3   OH267995   1.330   1.346  11.635  0.2819  0.5253 -0.4164
15527TIP3    H167996   1.328   1.347  11.539 -0.3462  1.3463 -0.4062
15527TIP3    H267997   1.238   1.355  11.660  0.4061 -0.0777  0.2653
15528TIP3   OH267998   2.501   2.716  13.718  0.1481  0.3671 -0.8747
15528TIP3    H167999   2.442   2.697  13.791  1.2358  0.6855  0.1231
15528TIP3    H268000   2.447   2.706  13.639 -1.1759  0.5045 -0.0052
15529TIP3   OH268001   6.000   3.504  14.891  0.3114 -0.5733 -0.0271
15529TIP3    H168002   5.985   3.431  14.951  1.9822 -1.5528 -0.7231
15529TIP3    H268003   5.999   3.464  14.804  1.2754  0.2090 -0.4211
15530TIP3   OH268004   2.901   0.643   6.743  0.3614  1.1176 -0.2207
15530TIP3    H168005   2.819   0.594   6.741  0.0815  1.4560  1.5447
15530TIP3    H268006   2.880   0.727   6.703 -0.1933  1.2373  0.3049
15531TIP3   OH268007   0.572   4.656   6.329 -0.0755 -0.4787  0.6350
15531TIP3    H168008   0.541   4.602   6.256 -2.3699  0.1835  1.0276
15531TIP3    H268009   0.493   4.701   6.361  1.2864  1.1379  1.9566
15532TIP3   OH268010   4.715   1.039  12.373 -0.5366 -0.0754  0.4425
15532TIP3    H168011   4.712   1.052  12.279  1.6274 -2.2346 -0.0192
15532TIP3    H268012   4.639   0.983  12.392  0.5768 -2.0022 -0.5435
15533TIP3   OH268013   5.662   5.488  14.486  0.3800  0.2636 -0.0576
15533TIP3    H168014   5.641   5.570  14.532 -0.4305 -0.3865  0.7459
15533TIP3    H268015   5.639   5.506  14.395 -2.0426  0.2013  0.4730
15534TIP3   OH268016   4.111   0.434  14.918  0.5035  1.0146 -0.1994
15534TIP3    H168017   4.088   0.349  14.954  0.4787  0.8642 -0.5678
15534TIP3    H268018   4.052   0.445  14.843  2.4867  0.0498 -1.9661
15535TIP3   OH268019   1.433   4.783  14.179  0.0583 -0.2860 -0.2446
15535TIP3    H168020   1.414   4.856  14.121  3.0206 -0.9811 -2.3444
15535TIP3    H268021   1.529   4.775  14.176  0.0598 -2.4558  2.1937
15536TIP3   OH268022   3.057   6.192   2.113 -0.5597 -0.7387 -0.0811
15536TIP3    H168023   3.052   6.164   2.022  0.8563 -2.2365  0.2560
15536TIP3    H268024   3.071   6.112   2.163  1.6948  0.2811  1.1197
15537TIP3   OH268025   5.024   1.299   4.604  0.1973  0.5284  0.0439
15537TIP3    H168026   4.969   1.271   4.531  0.9890 -0.7665 -0.0818
15537TIP3    H268027   5.109   1.258   4.588 -0.1097 -1.4558  2.6483
15538TIP3   OH268028   6.058   1.010  10.767  0.2399 -0.7367  0.0916
15538TIP3    H168029   6.140   0.963  10.781  0.3153 -1.2454 -1.7662
15538TIP3    H268030   5.996   0.968  10.826  1.3616 -0.1272  1.7711
15539TIP3   OH268031   2.250   3.423   0.943  0.3236  0.0288  0.0581
15539TIP3    H168032   2.173   3.387   0.987 -0.5435 -0.5526 -1.8198
15539TIP3    H268033   2.263   3.509   0.984 -1.1857  0.0339  0.5926
15540TIP3   OH268034   5.638   2.271   5.146 -0.8712  0.1414  0.1219
15540TIP3    H168035   5.676   2.357   5.129 -0.6784  0.2130  0.8984
15540TIP3    H268036   5.617   2.272   5.239 -0.4383 -0.8135  0.2398
15541TIP3   OH268037   4.607   4.702  13.226  0.2640 -0.1325  0.5690
15541TIP3    H168038   4.540   4.688  13.293  0.9241  0.5176  1.3991
15541TIP3    H268039   4.626   4.615  13.193 -2.3357 -0.1675 -1.0866
15542TIP3   OH268040   2.117   4.974  14.817  0.3024 -0.2639  0.6081
15542TIP3    H168041   2.082   5.063  14.812 -1.4917 -0.9222  0.8980
15542TIP3    H268042   2.197   4.984  14.868 -0.1446  1.1185  1.0953
15543TIP3   OH268043   6.394   2.364   0.908  0.2207  0.0928  0.0673
15543TIP3    H168044   6.313   2.371   0.858 -0.5021 -0.4554  1.1271
15543TIP3    H268045   6.462   2.399   0.850 -1.0555  2.4776 -0.0933
15544TIP3   OH268046   4.603   3.078  15.497 -0.0910  0.0244  0.4055
15544TIP3    H168047   4.557   3.113  15.420  0.7749  0.7620  0.2064
15544TIP3    H268048   4.546   3.009  15.529 -0.2187 -0.6739 -1.2244
15545TIP3   OH268049   5.814   0.486   1.035  0.1633 -0.3416 -0.2206
15545TIP3    H168050   5.843   0.578   1.036 -3.2517  0.9999 -2.5917
15545TIP3    H268051   5.892   0.436   1.015  1.8758  2.2501 -0.4934
15546TIP3   OH268052   4.270   5.876  14.539 -0.5141 -0.2114  0.5777
15546TIP3    H168053   4.365   5.872  14.532 -0.4621 -1.0066  1.5848
15546TIP3    H268054   4.242   5.784  14.539 -1.2476  0.0054  0.7101
15547TIP3   OH268055   2.939   0.858   1.455 -0.1675 -0.5448  0.1508
15547TIP3    H168056   2.895   0.782   1.417  0.4417 -0.5530 -0.5696
15547TIP3    H268057   2.986   0.897   1.382  0.9503 -0.4931  0.8771
15548TIP3   OH268058   3.803   3.179  14.166 -0.1808  0.0358 -0.2319
15548TIP3    H168059   3.781   3.271  14.154 -1.9671 -0.5588 -2.1566
15548TIP3    H268060   3.718   3.135  14.175  0.6317 -1.4463  0.6513
15549TIP3   OH268061   1.110   0.999   2.418  0.7567 -0.1027  0.6598
15549TIP3    H168062   1.167   1.042   2.354 -1.0624  0.0585 -0.9625
15549TIP3    H268063   1.040   1.062   2.434  1.1839 -0.1167  2.9311
15550TIP3   OH268064   0.628   5.565   0.823  0.5782 -0.0787 -0.1089
15550TIP3    H168065   0.648   5.565   0.916 -1.0423  1.7750  0.3031
15550TIP3    H268066   0.714   5.562   0.780  1.4352  0.8493  1.4643
15551TIP3   OH268067   3.073   3.849  11.739  0.0568  0.0655  0.7891
15551TIP3    H168068   3.039   3.935  11.762  0.2947  0.4251 -0.1515
15551TIP3    H268069   3.107   3.813  11.821 -0.5717  0.6233  1.2976
15552TIP3   OH268070   3.769   3.948   1.761  0.3034  0.4162 -0.1883
15552TIP3    H168071   3.777   3.867   1.709  1.0101  0.1716  0.2881
15552TIP3    H268072   3.697   3.931   1.821 -1.5373  1.2419 -2.0209
15553TIP3   OH268073   5.375   2.791   1.007 -0.0504 -0.0502 -0.4949
15553TIP3    H168074   5.318   2.774   0.932  0.8856 -0.1777 -1.2030
15553TIP3    H268075   5.383   2.886   1.011 -1.2023  0.0272  0.3083
15554TIP3   OH268076   3.966   0.293  11.203  0.5047  0.4523  0.1695
15554TIP3    H168077   4.059   0.305  11.222  0.9600  0.7951 -2.0285
15554TIP3    H268078   3.963   0.219  11.143 -0.5861  0.7563 -0.1749
15555TIP3   OH268079   3.762   1.944   5.895 -0.3083  0.0198 -0.1702
15555TIP3    H168080   3.699   1.873   5.910  0.5300 -1.0234 -1.2901
15555TIP3    H268081   3.730   1.988   5.816 -0.7873  0.8630  0.4843
15556TIP3   OH268082   1.878   3.265   2.264  0.9339  0.0100  0.4544
15556TIP3    H168083   1.862   3.176   2.296  0.8769  0.1208  0.7399
15556TIP3    H268084   1.928   3.253   2.184  0.0470 -0.3115 -0.0598
15557TIP3   OH268085   1.525   1.601   1.299 -0.1820 -0.3322  0.3129
15557TIP3    H168086   1.592   1.538   1.325  2.2558  1.1107 -1.8865
15557TIP3    H268087   1.567   1.687   1.309 -2.1634  0.7440  0.0090
15558TIP3   OH268088   6.168   0.116  12.706  0.4558  0.6493  0.0328
15558TIP3    H168089   6.090   0.093  12.656  0.1800  1.3662  0.1175
15558TIP3    H268090   6.233   0.049  12.683 -0.0497  0.2922 -0.3597
15559TIP3   OH268091   3.158   5.325  15.324  0.1426 -0.2890  0.0268
15559TIP3    H168092   3.207   5.294  15.400  2.3273 -1.3752 -1.7144
15559TIP3    H268093   3.156   5.251  15.265 -0.0280  1.0154 -1.6759
15560TIP3   OH268094   3.677   2.945   1.313  0.0897 -0.1823  0.3314
15560TIP3    H168095   3.668   3.037   1.289 -0.5816 -0.4826 -0.6566
15560TIP3    H268096   3.709   2.946   1.403  1.3502  1.0216 -0.0907
15561TIP3   OH268097   1.693   0.383   1.881 -0.1310 -0.5026 -0.4281
15561TIP3    H168098   1.707   0.306   1.936  0.0606 -0.0691  0.1403
15561TIP3    H268099   1.765   0.442   1.904 -1.5844  0.8385  0.8960
15562TIP3   OH268100   5.491   6.649  12.026  0.1936 -0.1269 -0.2184
15562TIP3    H168101   5.405   6.633  12.066 -0.1893 -1.0020 -1.3268
15562TIP3    H268102   5.553   6.607  12.085 -0.5375 -3.3237 -1.4900
15563TIP3   OH268103   1.558   1.382   5.064  0.1711 -0.2209 -0.3966
15563TIP3    H168104   1.639   1.432   5.053 -0.1544  0.3543 -0.2017
15563TIP3    H268105   1.587   1.290   5.068  0.8622  0.0145  0.2145
15564TIP3   OH268106   1.898   5.700   5.309 -0.7395  0.0548  0.1450
15564TIP3    H168107   1.936   5.705   5.397  1.2040  2.3242 -0.6962
15564TIP3    H268108   1.805   5.684   5.323 -0.2731 -0.9507  2.5313
15565TIP3   OH268109   4.596   3.948   5.184  0.1926 -0.2829 -0.0585
15565TIP3    H168110   4.574   3.903   5.103 -0.7967 -0.5520  0.3472
15565TIP3    H268111   4.677   3.905   5.214 -0.6224 -1.7103  0.2250
15566TIP3   OH268112   0.937   0.767  13.642 -0.1223  0.1599  0.2873
15566TIP3    H168113   0.965   0.826  13.712 -1.2970  0.8742  0.1802
15566TIP3    H268114   1.015   0.756  13.588  0.1715  1.4952  0.4040
15567TIP3   OH268115   3.918   3.439  13.099 -0.2819  0.2710  0.0874
15567TIP3    H168116   3.954   3.427  13.186  1.6382  0.4912 -0.6399
15567TIP3    H268117   3.944   3.528  13.074 -0.8310  0.2211 -0.7097
15568TIP3   OH268118   0.346   0.577  15.518 -0.3306  0.3089  0.4038
15568TIP3    H168119   0.438   0.553  15.504 -0.9034 -0.3802 -2.9110
15568TIP3    H268120   0.345   0.673  15.512  0.3404  0.4916  2.3014
15569TIP3   OH268121   0.904   3.946   4.542 -0.5164  0.0377  0.0841
15569TIP3    H168122   0.859   4.030   4.550 -0.5425 -0.0189  0.5847
15569TIP3    H268123   0.872   3.909   4.460 -2.3577 -0.5522  1.0089
15570TIP3   OH268124   5.219   3.189  15.667 -0.2587 -0.2836 -0.1202
15570TIP3    H168125   5.136   3.235  15.676  0.2026  0.3002  1.5737
15570TIP3    H268126   5.199   3.099  15.694 -0.5177 -0.3624 -0.5643
15571TIP3   OH268127   1.747   3.336   5.675  0.5725  0.1885 -0.1208
15571TIP3    H168128   1.710   3.418   5.707 -1.0331 -0.3859 -0.4032
15571TIP3    H268129   1.725   3.334   5.582  0.6895 -0.5200 -0.1379
15572TIP3   OH268130   3.220   3.504  13.705  0.4244 -0.1255 -0.2184
15572TIP3    H168131   3.300   3.535  13.745  1.4695 -0.6161 -1.8182
15572TIP3    H268132   3.171   3.583  13.683 -0.5810  0.1538  2.6436
15573TIP3   OH268133   5.560   6.524   1.218  0.1844 -0.3724 -0.2084
15573TIP3    H168134   5.483   6.514   1.162 -0.5555  1.4902  0.4039
15573TIP3    H268135   5.535   6.590   1.282  1.2232 -2.0009  1.9975
15574TIP3   OH268136   4.697   1.483   3.019  0.6041 -0.5115 -0.4203
15574TIP3    H168137   4.620   1.442   3.059  0.0329 -0.0205 -0.9856
15574TIP3    H268138   4.771   1.430   3.049  0.2314 -0.0521  1.4270
15575TIP3   OH268139   2.830   1.883   3.611  0.3618  0.2731 -0.3492
15575TIP3    H168140   2.791   1.870   3.697  2.2279  0.5669  0.6042
15575TIP3    H268141   2.830   1.795   3.572 -0.5985  0.1559 -0.1080
15576TIP3   OH268142   5.178   3.742  12.712  0.2086  0.7655 -0.6662
15576TIP3    H168143   5.160   3.663  12.660 -3.5998  0.9528  0.0144
15576TIP3    H268144   5.167   3.814  12.650  0.0568  0.8374 -0.5580
15577TIP3   OH268145   2.107   0.416   3.999 -0.3696 -0.0521  0.2828
15577TIP3    H168146   2.058   0.479   3.945 -1.2161 -0.8206  0.1165
15577TIP3    H268147   2.183   0.393   3.945 -0.6594 -0.0324 -0.1433
15578TIP3   OH268148   5.227   4.379   0.825  0.1781 -0.1322 -0.5983
15578TIP3    H168149   5.268   4.333   0.898  0.3518 -1.5124 -1.5382
15578TIP3    H268150   5.144   4.411   0.860  0.8379  0.3499  0.5583
15579TIP3   OH268151   2.259   6.084   3.341 -0.2995  0.2137  0.2964
15579TIP3    H168152   2.173   6.046   3.321  0.0121 -0.6589  0.5783
15579TIP3    H268153   2.242   6.142   3.415 -1.0393  1.7434 -1.0139
15580TIP3   OH268154   6.365   2.022   1.080  0.4688  0.1736  0.2692
15580TIP3    H168155   6.436   2.025   1.016  1.4587 -2.7484  1.0738
15580TIP3    H268156   6.286   2.038   1.029  1.4628  0.8716 -1.1244
15581TIP3   OH268157   1.229   3.988   2.503 -0.4534  0.3132 -0.2354
15581TIP3    H168158   1.156   3.962   2.559  0.3823 -1.1228  0.2317
15581TIP3    H268159   1.300   4.008   2.563  0.1556 -0.2943 -0.7454
15582TIP3   OH268160   4.739   3.797   0.535  0.3081  0.5180  0.2636
15582TIP3    H168161   4.816   3.775   0.588 -1.0343  0.3474  2.2849
15582TIP3    H268162   4.699   3.712   0.516 -0.7759  0.7170  1.5228
15583TIP3   OH268163   1.447   1.899   4.893 -0.2458  0.2174 -0.6579
15583TIP3    H168164   1.402   1.963   4.949  0.8687  0.9636 -0.5884
15583TIP3    H268165   1.514   1.860   4.950  0.3976  0.4366 -1.2514
15584TIP3   OH268166   6.109   6.267   4.646 -0.1130 -0.3475  0.2966
15584TIP3    H168167   6.192   6.240   4.686  1.0637 -1.0566 -2.4116
15584TIP3    H268168   6.054   6.189   4.650  1.0895 -1.3958 -2.0388
15585TIP3   OH268169   5.486   1.161   2.888 -0.4141 -0.0922  0.1019
15585TIP3    H168170   5.511   1.130   2.974 -1.6965 -1.8120 -0.0884
15585TIP3    H268171   5.398   1.198   2.900 -0.8560 -0.8889 -0.5455
15586TIP3   OH268172   2.150   3.233   3.276 -0.2664  0.0322  0.6221
15586TIP3    H168173   2.074   3.175   3.262 -0.2764  0.2958 -0.5024
15586TIP3    H268174   2.141   3.300   3.209  1.4792 -0.4716 -0.1710
15587TIP3   OH268175   4.317   5.087  11.106  0.5830 -0.5332 -0.3820
15587TIP3    H168176   4.287   5.135  11.029 -0.8491 -0.5279  0.1616
15587TIP3    H268177   4.319   5.152  11.176  1.5680 -0.6114 -0.3218
15588TIP3   OH268178   5.873   5.247   3.611  0.0847 -0.0972  0.3196
15588TIP3    H168179   5.819   5.263   3.534  1.4680 -1.2769 -0.9607
15588TIP3    H268180   5.811   5.245   3.684 -1.1351  2.2555 -0.5361
15589TIP3   OH268181   4.511   4.968  13.355 -0.6671 -0.1207  0.2219
15589TIP3    H168182   4.418   4.946  13.353 -0.7321  0.0787  0.7753
15589TIP3    H268183   4.537   4.973  13.263 -1.6002  1.4195 -0.0008
15590TIP3   OH268184   2.156   1.918  16.278  0.3529  0.4759  0.0236
15590TIP3    H168185   2.214   1.868  16.334 -1.0727 -0.9877  0.2740
15590TIP3    H268186   2.166   1.879  16.191  0.0873  0.5082 -0.0232
15591TIP3   OH268187   2.651   1.735   2.119  0.0294 -0.3216  0.1199
15591TIP3    H168188   2.596   1.675   2.068  1.2336 -0.5234 -1.0286
15591TIP3    H268189   2.729   1.683   2.141 -0.3279 -0.1260  1.9230
15592TIP3   OH268190   4.058   0.153   4.356  0.0867 -0.0235  0.5719
15592TIP3    H168191   4.145   0.187   4.378  1.3196 -2.9908  0.8515
15592TIP3    H268192   4.062   0.136   4.262 -1.3121  2.4773 -0.0352
15593TIP3   OH268193   4.728   2.111   2.371 -0.1611 -0.2225 -0.3263
15593TIP3    H168194   4.666   2.173   2.331 -0.3814 -0.8109 -0.9233
15593TIP3    H268195   4.674   2.061   2.432 -0.5792 -1.5765 -1.7511
15594TIP3   OH268196   5.463   1.790   0.160  0.0188  0.7239 -0.2811
15594TIP3    H168197   5.449   1.701   0.129 -1.7640  0.6524  0.6083
15594TIP3    H268198   5.540   1.820   0.112 -0.0850 -0.8507 -1.5153
15595TIP3   OH268199   2.059   1.833  12.290 -0.5671 -0.2123 -0.2790
15595TIP3    H168200   2.098   1.802  12.371 -1.1610 -0.5537 -0.1226
15595TIP3    H268201   2.002   1.762  12.261 -0.8860  0.1818 -0.6347
15596TIP3   OH268202   0.822   3.531  16.748 -0.0096 -0.0457 -0.2779
15596TIP3    H168203   0.837   3.609  16.801  0.7999 -1.4277  1.6368
15596TIP3    H268204   0.727   3.530  16.733 -0.5730 -0.4820  2.6957
15597TIP3   OH268205   5.973   4.027  12.664  0.1046  0.7372 -0.0931
15597TIP3    H168206   5.961   3.999  12.754  0.2958  1.1530  0.0622
15597TIP3    H268207   5.999   3.948  12.617 -0.4616  0.4226  0.1211
15598TIP3   OH268208   4.873   2.569  16.995 -0.0420 -0.0159  0.4402
15598TIP3    H168209   4.814   2.644  17.003 -0.6562 -0.4736  0.2860
15598TIP3    H268210   4.959   2.604  17.018 -0.4274  0.5830  1.0200
15599TIP3   OH268211   4.180   1.958   5.194  0.3310 -0.1723  0.4581
15599TIP3    H168212   4.190   1.914   5.109 -2.4483  2.2398 -1.3510
15599TIP3    H268213   4.217   2.045   5.180 -0.3860  0.3371  1.6027
15600TIP3   OH268214   2.733   5.172  12.697 -0.4665 -0.1358  0.0520
15600TIP3    H168215   2.685   5.105  12.648 -2.3569  0.7726  0.5426
15600TIP3    H268216   2.746   5.134  12.784 -1.2246 -0.0219  0.2232
15601TIP3   OH268217   2.442   6.125   4.555  0.6735  0.0958 -0.3198
15601TIP3    H168218   2.475   6.215   4.553 -2.2068  1.2525 -0.9273
15601TIP3    H268219   2.391   6.121   4.636 -0.9899 -0.2135 -1.3253
15602TIP3   OH268220   3.335   1.349   5.968 -0.3294 -0.4758  0.5861
15602TIP3    H168221   3.364   1.439   5.950  0.5424 -1.1574 -1.7848
15602TIP3    H268222   3.245   1.346   5.935 -0.1712 -0.6184  0.1681
15603TIP3   OH268223   5.627   0.537  13.151  0.4031  0.2365 -0.3993
15603TIP3    H168224   5.717   0.508  13.141  0.7792  0.5876  1.6945
15603TIP3    H268225   5.576   0.470  13.104  1.4163 -2.7350  2.3604
15604TIP3   OH268226   4.755   1.613  15.846 -0.0809 -0.1297  0.2552
15604TIP3    H168227   4.825   1.554  15.873 -0.2519 -0.1491  0.6660
15604TIP3    H268228   4.683   1.555  15.821  0.5833 -0.1598 -1.7197
15605TIP3   OH268229   3.203   0.661   5.827 -0.1968 -0.2095 -0.6746
15605TIP3    H168230   3.233   0.732   5.883 -1.1668  0.6220 -1.1827
15605TIP3    H268231   3.255   0.669   5.747  0.4393 -0.7414 -0.3243
15606TIP3   OH268232   3.858   0.195   1.733  0.2696  0.3238  0.2291
15606TIP3    H168233   3.854   0.108   1.774 -1.5565  0.5998  0.7384
15606TIP3    H268234   3.866   0.256   1.807 -1.4177  0.7264  0.1288
15607TIP3   OH268235   2.601   4.129  14.565 -0.3171 -0.4150 -0.0728
15607TIP3    H168236   2.660   4.080  14.622 -0.4741  0.0640  0.5025
15607TIP3    H268237   2.642   4.215  14.556 -1.8545  0.6107  1.9132
15608TIP3   OH268238   6.229   6.749  13.529  0.1039  0.3755  0.3223
15608TIP3    H168239   6.313   6.772  13.570  0.1370  1.5753 -0.3721
15608TIP3    H268240   6.232   6.654  13.522  1.7532  0.4407 -0.3842
15609TIP3   OH268241   0.143   1.525  13.792  0.3381  0.4293  0.9998
15609TIP3    H168242   0.057   1.540  13.753  0.3490 -1.6353  0.0439
15609TIP3    H268243   0.201   1.511  13.717  0.3364 -3.8045  1.5404
15610TIP3   OH268244   6.391   6.586  15.138 -0.2157 -0.0183  0.4328
15610TIP3    H168245   6.461   6.650  15.127 -0.6785  0.2020 -1.5659
15610TIP3    H268246   6.313   6.629  15.103 -1.0080 -0.8935  1.0515
15611TIP3   OH268247   1.115   6.002   1.281 -1.0340  0.3023 -0.4517
15611TIP3    H168248   1.037   6.056   1.298 -0.5610  0.3611  1.8090
15611TIP3    H268249   1.165   6.006   1.362  0.8685 -0.5349 -1.5293
15612TIP3   OH268250   1.024   3.681   3.017 -0.4328 -0.4701 -0.4425
15612TIP3    H168251   1.018   3.586   3.021 -0.8261 -0.5137 -1.8233
15612TIP3    H268252   0.955   3.708   2.956 -1.6740  0.8802  1.4152
15613TIP3   OH268253   3.823   0.138   3.833 -0.3317 -0.0965  0.2021
15613TIP3    H168254   3.780   0.190   3.766 -0.5999 -0.9427 -0.3060
15613TIP3    H268255   3.763   0.140   3.907 -1.2886 -1.2608 -0.4994
15614TIP3   OH268256   0.822   0.479   0.865 -0.3528 -0.7640  0.6671
15614TIP3    H168257   0.750   0.466   0.804  0.1630 -0.2532 -0.0679
15614TIP3    H268258   0.784   0.532   0.935 -0.9771 -1.4417  0.8563
15615TIP3   OH268259   3.951   2.030  17.059 -0.1022 -0.0293  0.2586
15615TIP3    H168260   3.994   2.098  17.007 -1.0842 -0.5705 -1.3052
15615TIP3    H268261   3.949   2.066  17.148  0.1156  1.6321 -0.3790
15616TIP3   OH268262   2.878   5.073   2.810 -0.0265  0.6276 -0.1081
15616TIP3    H168263   2.957   5.053   2.760 -0.3437  0.3894 -0.5239
15616TIP3    H268264   2.848   5.157   2.775  0.3117  0.9566  0.3888
15617TIP3   OH268265   5.833   2.110  12.109 -0.8134 -0.0265  0.1408
15617TIP3    H168266   5.926   2.134  12.109 -0.6332 -0.6943  0.5467
15617TIP3    H268267   5.822   2.057  12.188 -1.3263 -0.7434 -0.3967
15618TIP3   OH268268   0.405   3.057  15.912 -0.0763  0.0344 -0.0407
15618TIP3    H168269   0.387   3.044  15.819 -0.6638  0.4179  0.0118
15618TIP3    H268270   0.444   3.144  15.917  1.5775 -0.6758 -0.1160
15619TIP3   OH268271   4.358   6.521   3.147 -0.1524 -1.2899  0.2016
15619TIP3    H168272   4.276   6.506   3.194  0.0309  1.9160  1.8153
15619TIP3    H268273   4.426   6.515   3.215  0.4747  0.2357 -0.2551
15620TIP3   OH268274   4.333   3.348  10.639 -0.0128  0.0538  0.4977
15620TIP3    H168275   4.276   3.387  10.705  0.6570 -0.9971  1.7434
15620TIP3    H268276   4.389   3.420  10.610 -0.8278  0.7027  0.4970
15621TIP3   OH268277   2.692   1.829   2.659 -0.3040 -0.2100 -0.3460
15621TIP3    H168278   2.599   1.847   2.673 -0.6338  0.8309 -3.1549
15621TIP3    H268279   2.708   1.747   2.706 -2.5364 -0.2114  0.5412
15622TIP3   OH268280   1.651   1.837  13.849  0.4637  0.4209 -0.2185
15622TIP3    H168281   1.713   1.811  13.917 -0.9979  0.2287  1.0949
15622TIP3    H268282   1.642   1.759  13.794  1.3017  0.4272 -0.3825
15623TIP3   OH268283   3.994   4.298   0.823 -0.6644 -0.2130 -0.3130
15623TIP3    H168284   4.088   4.285   0.817 -0.3017  1.9769 -0.2843
15623TIP3    H268285   3.965   4.306   0.732 -0.1432  2.8083 -0.3137
15624TIP3   OH268286   1.649   3.059   4.606  0.1215 -0.0560 -0.0131
15624TIP3    H168287   1.611   3.130   4.555 -1.0093 -0.0477  0.7918
15624TIP3    H268288   1.740   3.053   4.576 -0.1340  0.8402 -1.0254
15625TIP3   OH268289   2.138   2.147   4.771  0.3537 -0.1230  0.6380
15625TIP3    H168290   2.205   2.213   4.754  0.9209 -0.8126  0.1055
15625TIP3    H268291   2.095   2.134   4.686  0.0524 -0.2330  0.8038
15626TIP3   OH268292   1.994   2.992   3.487  0.1517 -0.4564  0.7876
15626TIP3    H168293   1.919   2.943   3.520 -0.1153 -1.2221 -0.8234
15626TIP3    H268294   1.976   3.083   3.511 -2.7758 -0.1560 -1.9298
15627TIP3   OH268295   2.299   0.856  11.350  0.0627 -0.0883  0.3974
15627TIP3    H168296   2.361   0.815  11.290  0.8496  1.2884  0.2131
15627TIP3    H268297   2.311   0.950  11.335 -1.0259  0.2324  1.4238
15628TIP3   OH268298   1.245   0.545   1.649  0.8008  0.1670 -0.4499
15628TIP3    H168299   1.189   0.500   1.585  2.6085 -2.0957 -0.5447
15628TIP3    H268300   1.241   0.490   1.728 -2.3867  3.5165  2.0859
15629TIP3   OH268301   4.649   1.104  11.780 -0.2313  0.4590 -0.6433
15629TIP3    H168302   4.702   1.140  11.709  1.0470  0.4075  0.2644
15629TIP3    H268303   4.613   1.023  11.744  2.2962 -0.8140 -0.5062
15630TIP3   OH268304   3.277   1.649   2.489  0.1401  0.2602  0.4968
15630TIP3    H168305   3.267   1.740   2.464 -0.0173  0.9395  2.7671
15630TIP3    H268306   3.190   1.621   2.516  0.5305  0.0473  1.5888
15631TIP3   OH268307   6.036   5.563   3.690 -0.7342  0.3873 -0.0498
15631TIP3    H168308   6.040   5.554   3.785 -1.6770  0.9917  0.0620
15631TIP3    H268309   5.942   5.557   3.669 -0.5782  0.7105 -0.8957
15632TIP3   OH268310   0.178   0.282  12.117  0.0705 -0.2694 -0.4368
15632TIP3    H168311   0.159   0.361  12.168 -1.3161 -1.5465  1.1751
15632TIP3    H268312   0.115   0.284  12.045 -1.8115 -1.1214  1.0830
15633TIP3   OH268313   6.049   6.243  15.304 -0.2310  0.9405 -0.3559
15633TIP3    H168314   6.066   6.211  15.215  0.7792 -0.2310  0.2243
15633TIP3    H268315   6.108   6.318  15.314  0.0120  0.7768 -0.5256
15634TIP3   OH268316   2.325   1.627   3.614 -0.4229  0.3561 -0.0806
15634TIP3    H168317   2.352   1.616   3.523  0.1537  0.5478  0.0685
15634TIP3    H268318   2.272   1.549   3.632 -1.6573  0.9350 -0.9796
15635TIP3   OH268319   2.509   4.890   5.601 -0.2127  0.8788  0.3041
15635TIP3    H168320   2.457   4.963   5.566  0.0024 -0.5263 -3.3379
15635TIP3    H268321   2.455   4.813   5.586  0.9144 -0.0934  1.0714
15636TIP3   OH268322   6.072   1.200   1.906  0.3943 -0.0303  0.0502
15636TIP3    H168323   5.995   1.258   1.909 -0.5137 -1.2426  1.2004
15636TIP3    H268324   6.103   1.198   1.996  0.5866 -1.0871 -0.0325
15637TIP3   OH268325   0.856   6.363  13.160  0.3940 -0.1112 -0.1283
15637TIP3    H168326   0.817   6.357  13.073  0.1444 -1.6571  0.0580
15637TIP3    H268327   0.884   6.273  13.180  2.3920  0.6132  0.5213
15638TIP3   OH268328   2.192   2.745  12.038  0.0632  0.2333  0.3881
15638TIP3    H168329   2.259   2.727  12.104 -1.1758 -0.5522  1.4791
15638TIP3    H268330   2.128   2.674  12.048 -0.4621  0.4198 -1.2734
15639TIP3   OH268331   0.415   4.696  11.718 -0.7292  0.2469 -0.2144
15639TIP3    H168332   0.451   4.775  11.758 -0.3043 -0.1394  0.1687
15639TIP3    H268333   0.492   4.648  11.685 -0.9414 -0.2567  0.0136
15640TIP3   OH268334   1.448   5.520   2.149 -1.0077  0.0431  0.1134
15640TIP3    H168335   1.470   5.529   2.056  0.8846 -1.5102  0.3381
15640TIP3    H268336   1.449   5.425   2.165 -0.2422  0.3148  1.9347
15641TIP3   OH268337   0.075   4.420  14.784 -0.4569 -0.0999  0.6613
15641TIP3    H168338   0.073   4.355  14.714 -0.2230  1.7424 -1.1459
15641TIP3    H268339   0.166   4.425  14.811  0.0854  1.4582 -1.2372
15642TIP3   OH268340   1.495   0.010   1.276 -0.1915  0.0953  0.2735
15642TIP3    H168341   1.402  -0.013   1.285 -1.0925  3.0390 -0.3059
15642TIP3    H268342   1.494   0.100   1.243  2.8987  0.2502  0.3302
15643TIP3   OH268343   2.439   0.602  13.575  0.2108 -1.2432 -0.2741
15643TIP3    H168344   2.511   0.553  13.616  0.0033  0.2539  2.0443
15643TIP3    H268345   2.483   0.671  13.526  0.4073 -1.5135 -0.4829
15644TIP3   OH268346   4.234   1.408   5.488 -0.2691  0.6606 -0.0530
15644TIP3    H168347   4.257   1.402   5.396 -0.8818 -0.4824 -0.1450
15644TIP3    H268348   4.244   1.319   5.522 -0.8693  0.8930  0.7791
15645TIP3   OH268349   2.404   1.633   0.946 -0.7677 -0.3327  0.2387
15645TIP3    H168350   2.383   1.667   0.859 -0.2405  1.0501  0.6076
15645TIP3    H268351   2.498   1.646   0.954 -0.8977  0.1045  1.2211
15646TIP3   OH268352   3.990   6.087   3.958  0.1702  0.2262 -0.4535
15646TIP3    H168353   4.061   6.146   3.983 -2.0483  2.1785  1.7671
15646TIP3    H268354   3.912   6.142   3.957 -1.5502 -2.0873 -1.4262
15647TIP3   OH268355   6.608   0.371  16.983 -0.4012 -0.4077  0.2654
15647TIP3    H168356   6.573   0.353  17.070  1.4041  0.3681  1.2131
15647TIP3    H268357   6.560   0.449  16.954 -0.8486 -0.5307  0.6578
15648TIP3   OH268358   3.197   6.605   2.169  0.5195  0.3708 -0.5440
15648TIP3    H168359   3.135   6.549   2.122  0.3895 -1.4985  1.6615
15648TIP3    H268360   3.150   6.687   2.182 -2.1743 -1.3495  2.0566
15649TIP3   OH268361   3.713   6.277   4.672 -0.5816  0.4284 -0.1259
15649TIP3    H168362   3.634   6.261   4.621 -0.6993  0.5864  0.0037
15649TIP3    H268363   3.777   6.309   4.609 -0.3224 -0.5946 -0.4010
15650TIP3   OH268364   0.585   6.742   3.461 -0.1612 -0.2706 -0.2614
15650TIP3    H168365   0.587   6.696   3.544 -2.8185  1.0559  0.6515
15650TIP3    H268366   0.591   6.673   3.395 -1.4365 -1.7028  1.0391
15651TIP3   OH268367   3.998   6.691  12.292 -0.5013  0.0550  0.0729
15651TIP3    H168368   3.933   6.621  12.290  0.2047 -0.6087 -0.3778
15651TIP3    H268369   3.988   6.736  12.208 -1.9251  1.4382  0.9338
15652TIP3   OH268370   5.339   0.254  10.685  0.1792 -0.2711 -0.2563
15652TIP3    H168371   5.369   0.329  10.737  2.0628 -1.0667 -0.1055
15652TIP3    H268372   5.387   0.261  10.603  2.5528 -2.7275  0.7695
15653TIP3   OH268373   1.282   4.703   5.577  0.0464  0.2873  0.2156
15653TIP3    H168374   1.255   4.778   5.630  1.5299  0.8291  0.2542
15653TIP3    H268375   1.269   4.627   5.634 -1.9389  0.4182  0.0074
15654TIP3   OH268376   3.937   3.752   2.694 -0.3713  0.0577  0.3838
15654TIP3    H168377   4.027   3.719   2.699 -0.2835  0.3482  0.7727
15654TIP3    H268378   3.884   3.680   2.728 -0.5626 -1.1307 -2.1843
15655TIP3   OH268379   1.924   2.409   4.612  0.3938 -0.2340  0.0917
15655TIP3    H168380   1.926   2.317   4.584 -1.8608 -0.5549  0.7878
15655TIP3    H268381   1.980   2.454   4.549 -1.4469 -1.5066 -2.6535
15656TIP3   OH268382   5.717   0.505   3.045  0.0634 -0.1530 -0.0040
15656TIP3    H168383   5.772   0.456   2.984 -0.2542  0.7280 -1.0395
15656TIP3    H268384   5.634   0.458   3.045 -0.4607  0.6961 -1.5037
15657TIP3   OH268385   5.245   6.120   5.568 -0.0417  0.4874  0.8600
15657TIP3    H168386   5.219   6.030   5.545  2.2216 -0.1124  0.4401
15657TIP3    H268387   5.219   6.173   5.493  0.5532 -0.2016  0.1548
15658TIP3   OH268388   4.243   1.753  11.341  0.3650 -0.2048 -0.2544
15658TIP3    H168389   4.297   1.830  11.361  1.1840 -0.1861 -2.2737
15658TIP3    H268390   4.160   1.790  11.312  0.5072 -0.0869 -0.5206
15659TIP3   OH268391   0.259   6.190  14.897  0.0789 -0.0264  0.2541
15659TIP3    H168392   0.189   6.154  14.843 -1.1581 -0.3844  2.0065
15659TIP3    H268393   0.232   6.281  14.913  1.3245  0.6174 -1.1225
15660TIP3   OH268394   5.939   4.653  11.783 -0.5296 -1.0471  0.1238
15660TIP3    H168395   5.967   4.675  11.694 -0.7526  0.0783  0.3292
15660TIP3    H268396   5.851   4.688  11.790 -1.5348 -3.3448 -0.0410
15661TIP3   OH268397   5.295   3.078   5.991  0.3218  0.4896  0.4564
15661TIP3    H168398   5.327   3.036   5.911 -0.1244  0.1722  0.4392
15661TIP3    H268399   5.245   3.154   5.960  0.3204  0.4840  0.4449
15662TIP3   OH268400   2.836   6.582   4.274  0.1833  0.1975 -0.0305
15662TIP3    H168401   2.859   6.504   4.222 -0.7734 -0.8457  1.0628
15662TIP3    H268402   2.833   6.550   4.364 -0.0825  1.5469  0.4486
15663TIP3   OH268403   1.482   6.492   3.981 -0.3772 -0.3116  0.1796
15663TIP3    H168404   1.465   6.584   4.002  1.3241 -0.1412  0.9884
15663TIP3    H268405   1.577   6.485   3.979 -0.4818 -1.9611 -0.3677
15664TIP3   OH268406   3.928   4.959  12.440  0.1243 -0.1828 -0.0413
15664TIP3    H168407   3.938   4.935  12.532  0.2155  0.7000  0.1777
15664TIP3    H268408   3.970   4.886  12.393  1.4022  0.0681  0.6585
15665TIP3   OH268409   5.181   3.185   4.037  0.3677  0.3244 -0.2885
15665TIP3    H168410   5.233   3.143   3.969  1.2108 -0.4250  0.7888
15665TIP3    H268411   5.244   3.209   4.105 -0.4888  0.7789  0.3697
15666TIP3   OH268412   3.021   4.915  14.704  0.3208 -0.0662  0.5680
15666TIP3    H168413   2.944   4.917  14.648  1.1806  0.7711 -0.6344
15666TIP3    H268414   2.996   4.858  14.777 -0.7156 -1.4904 -0.8199
15667TIP3   OH268415   6.473   6.339   4.427  0.1970 -0.6884  0.4621
15667TIP3    H168416   6.563   6.368   4.442  0.5690 -0.8593 -1.2103
15667TIP3    H268417   6.419   6.413   4.456  0.8911 -0.3832  1.0083
15668TIP3   OH268418   4.316   1.991   6.065  0.0520 -0.5133  0.3804
15668TIP3    H168419   4.257   2.066   6.057 -0.3262 -0.7256  1.1466
15668TIP3    H268420   4.334   1.965   5.974 -0.0003  0.3563  0.1184
15669TIP3   OH268421   1.961   6.374   0.242  0.0654  0.1845  0.0816
15669TIP3    H168422   2.009   6.438   0.189  1.2183 -0.2918  0.5219
15669TIP3    H268423   1.879   6.418   0.263  1.3015  2.0207  1.3662
15670TIP3   OH268424   2.794   3.724  16.236  0.8084 -0.3867 -0.1919
15670TIP3    H168425   2.767   3.634  16.254  1.3330 -0.9029 -1.8468
15670TIP3    H268426   2.714   3.776  16.243  0.2364 -1.2030 -0.6154
15671TIP3   OH268427   0.144   1.725   2.370 -0.3735 -0.3594 -0.4709
15671TIP3    H168428   0.113   1.812   2.393  1.7835  1.5281 -3.8571
15671TIP3    H268429   0.167   1.685   2.454  1.4419  3.5495  1.1363
15672TIP3   OH268430   1.977   5.331   0.316 -0.3008  0.2625 -0.3044
15672TIP3    H168431   1.913   5.385   0.363 -0.5011  1.8129 -2.2339
15672TIP3    H268432   1.933   5.247   0.305 -2.1487  1.3459 -1.7302
15673TIP3   OH268433   6.666   4.755  15.370 -0.0370  0.3637  0.5942
15673TIP3    H168434   6.712   4.754  15.454  0.7382  0.3291  0.1793
15673TIP3    H268435   6.725   4.802  15.311 -0.3311 -0.0674 -0.0567
15674TIP3   OH268436   1.216   5.815  16.085 -0.3270  0.6586  0.0475
15674TIP3    H168437   1.242   5.889  16.031 -0.0304  0.5973  0.1087
15674TIP3    H268438   1.196   5.855  16.170  0.0641  0.6380  0.1500
15675TIP3   OH268439   0.591   0.653   4.701 -0.0931 -0.2795 -1.1764
15675TIP3    H168440   0.668   0.610   4.738  0.8109  2.4880  0.4362
15675TIP3    H268441   0.528   0.582   4.688  1.9246 -2.3179 -0.4820
15676TIP3   OH268442   2.564   0.534  15.751  0.6935  0.6877  0.2422
15676TIP3    H168443   2.545   0.532  15.845 -1.3091  0.9972 -0.1038
15676TIP3    H268444   2.517   0.611  15.719 -0.6359 -0.7050 -1.3614
15677TIP3   OH268445   2.186   6.567   5.648  0.3059 -0.0766  0.5130
15677TIP3    H168446   2.182   6.567   5.553 -2.0751 -0.4747  0.5514
15677TIP3    H268447   2.268   6.522   5.669 -0.8776 -3.4607 -1.3737
15678TIP3   OH268448   2.291   6.062   4.780  0.6658  0.5431  0.0492
15678TIP3    H168449   2.212   6.056   4.727  0.7904  1.0552 -0.1935
15678TIP3    H268450   2.270   6.011   4.859  0.2915  0.2279 -0.2504
15679TIP3   OH268451   1.431   5.333  11.790  0.6307 -0.7760 -0.8338
15679TIP3    H168452   1.363   5.386  11.830  1.9281  0.6391 -0.3885
15679TIP3    H268453   1.404   5.242  11.804 -1.5265 -0.2570 -1.3892
15680TIP3   OH268454   2.072   0.419  14.258  0.0310 -0.0701  0.1431
15680TIP3    H168455   2.009   0.374  14.202 -0.7399 -0.2864  1.1425
15680TIP3    H268456   2.147   0.437  14.202 -1.2567  0.9558 -1.3207
15681TIP3   OH268457   6.477   4.968   5.407  0.2917  0.4705  0.4428
15681TIP3    H168458   6.442   4.999   5.490  2.7526  0.6364  1.4915
15681TIP3    H268459   6.562   4.929   5.429  0.7182 -0.1054 -1.9047
15682TIP3   OH268460   1.013   6.112  16.519  1.4355 -0.0225  0.0204
15682TIP3    H168461   1.102   6.147  16.528  1.6033 -0.2840 -0.5141
15682TIP3    H268462   0.959   6.168  16.574  1.8228  0.5687 -0.1865
15683TIP3   OH268463   6.500   6.782  14.332 -0.1363 -0.6085  0.2506
15683TIP3    H168464   6.526   6.870  14.306 -1.0895 -0.7184 -1.1605
15683TIP3    H268465   6.577   6.728  14.315  1.0357  0.1635  2.6687
15684TIP3   OH268466   2.477   1.110   0.217 -0.0737  0.2798 -0.4313
15684TIP3    H168467   2.442   1.183   0.268 -2.5030  1.0097 -2.8721
15684TIP3    H268468   2.533   1.152   0.151  1.2453 -0.4360  0.1944
15685TIP3   OH268469   5.272   5.231   3.135 -0.3543  0.0128  0.1584
15685TIP3    H168470   5.283   5.230   3.040 -0.9648 -0.9754  0.0870
15685TIP3    H268471   5.178   5.226   3.148 -0.2482 -0.3691  0.8217
15686TIP3   OH268472   6.382   4.312   0.589 -0.4595 -0.9014 -0.2606
15686TIP3    H168473   6.341   4.251   0.651 -0.8522 -0.1772  0.2082
15686TIP3    H268474   6.311   4.373   0.566 -0.0345 -0.5388 -0.6192
15687TIP3   OH268475   4.055   6.139   0.387 -0.4898  0.2320 -0.6701
15687TIP3    H168476   4.039   6.229   0.358 -0.7942  0.2072 -0.5824
15687TIP3    H268477   4.139   6.115   0.347 -1.1794 -0.0123 -2.0244
15688TIP3   OH268478   1.088   5.476  11.542  0.3296  0.2347  0.6383
15688TIP3    H168479   1.117   5.403  11.597  0.8193 -0.7054 -0.8294
15688TIP3    H268480   1.021   5.438  11.485  1.2106  0.6845 -0.7455
15689TIP3   OH268481   1.559   5.825  11.544 -1.0100  0.5461  0.2550
15689TIP3    H168482   1.523   5.876  11.616 -4.0725  0.1679 -0.8543
15689TIP3    H268483   1.513   5.741  11.549  1.5902 -1.0066  0.1246
15690TIP3   OH268484   3.636   5.790  10.928 -0.0058  0.6935  0.0584
15690TIP3    H168485   3.605   5.706  10.895  0.3721  0.8768 -0.7736
15690TIP3    H268486   3.556   5.840  10.943 -0.1819  1.1712 -2.1073
15691TIP3   OH268487   1.240   4.914   1.486 -0.2716 -0.3443 -0.3281
15691TIP3    H168488   1.170   4.926   1.422  0.5687 -0.5871 -1.3062
15691TIP3    H268489   1.252   5.001   1.524  2.2412  0.9874 -3.6998
15692TIP3   OH268490   2.020   1.843   2.900 -0.8280  0.0199 -0.5896
15692TIP3    H168491   1.992   1.753   2.884  0.9769 -0.5575 -0.7834
15692TIP3    H268492   2.068   1.868   2.821 -0.5745  0.8350 -0.1960
15693TIP3   OH268493   4.062   4.715  13.843  0.3273 -0.0685 -0.3529
15693TIP3    H168494   4.046   4.697  13.935 -1.7095 -0.2327 -0.6997
15693TIP3    H268495   4.105   4.801  13.842 -0.8976  0.5920  0.7116
15694TIP3   OH268496   2.746   4.226  13.169 -0.0749 -0.4616 -0.6348
15694TIP3    H168497   2.663   4.192  13.135  0.6292 -2.2332 -0.6775
15694TIP3    H268498   2.795   4.148  13.194  0.9878  0.6235  0.8239
15695TIP3   OH268499   1.636   1.331   2.832 -0.2167 -0.4576 -0.0222
15695TIP3    H168500   1.619   1.299   2.744  0.2911  0.3257 -0.4222
15695TIP3    H268501   1.693   1.265   2.872 -1.5732 -1.5181  0.2289
15696TIP3   OH268502   6.382   0.923  15.644 -0.0541 -0.2982  0.4014
15696TIP3    H168503   6.356   0.984  15.713  0.8367 -0.0138  0.4981
15696TIP3    H268504   6.299   0.897  15.602 -0.5487  0.0095  1.1619
15697TIP3   OH268505   6.379   2.820  12.636  0.6321  0.1990  0.2912
15697TIP3    H168506   6.330   2.877  12.696  1.4134  1.2363 -0.0526
15697TIP3    H268507   6.411   2.749  12.692 -1.9854 -1.0384  0.3892
15698TIP3   OH268508   4.409   3.357   1.066  0.3054 -0.6437  0.3457
15698TIP3    H168509   4.400   3.434   1.122  0.8164 -0.7049  0.5236
15698TIP3    H268510   4.434   3.287   1.126 -0.0360 -0.9225  0.1668
15699TIP3   OH268511   5.846   4.559  14.750  0.0733  0.1087  0.0689
15699TIP3    H168512   5.827   4.647  14.718  1.3353  0.7244  0.9012
15699TIP3    H268513   5.823   4.561  14.843  5.4133  1.5478  1.7286
15700TIP3   OH268514   3.918   1.415  12.233 -0.3542 -0.6001  0.7598
15700TIP3    H168515   3.885   1.356  12.165  3.1273  0.4557 -2.1840
15700TIP3    H268516   3.969   1.359  12.291  0.4474 -0.9668 -0.2632
15701TIP3   OH268517   5.257   1.369   1.962  0.1411  0.3835  0.2006
15701TIP3    H168518   5.194   1.303   1.992  1.2911 -0.2259  1.4187
15701TIP3    H268519   5.307   1.392   2.041  1.4029  0.8722 -0.6966
15702TIP3   OH268520   5.340   6.459   1.027 -0.8539  0.3351 -0.2021
15702TIP3    H168521   5.353   6.408   0.947 -1.3022 -3.2724  1.7911
15702TIP3    H268522   5.277   6.407   1.078 -1.1463  2.8309  2.2074
15703TIP3   OH268523   1.266   6.484  16.298  0.4935  0.2598  0.2368
15703TIP3    H168524   1.180   6.473  16.257  1.2733  0.8550 -1.7044
15703TIP3    H268525   1.283   6.402  16.342 -1.2206  0.2606  0.9614
15704TIP3   OH268526   5.623   5.746  17.080  0.3003  0.1703  0.0938
15704TIP3    H168527   5.643   5.736  17.173  1.5095 -0.3016 -0.1917
15704TIP3    H268528   5.706   5.729  17.036 -0.5611 -1.0178 -1.1508
15705TIP3   OH268529   4.073   4.621  14.107  0.3013  0.5309  0.4113
15705TIP3    H168530   4.100   4.541  14.152  2.1354  1.2666  0.6804
15705TIP3    H268531   4.094   4.692  14.167  0.3269  1.3492 -0.5257
15706TIP3   OH268532   5.599   6.445  15.131  0.5203 -0.3144 -0.2397
15706TIP3    H168533   5.567   6.388  15.061  1.1115 -0.5578 -0.3206
15706TIP3    H268534   5.527   6.505  15.148 -0.3451 -1.4299  0.2242
15707TIP3   OH268535   2.455   4.369   5.668  0.1693 -0.1201  0.0216
15707TIP3    H168536   2.407   4.442   5.706  0.1692 -0.1868  0.1498
15707TIP3    H268537   2.489   4.320   5.743 -1.3227 -1.2544  0.0095
15708TIP3   OH268538   4.548   5.891  13.719 -0.3428  0.5557 -0.4270
15708TIP3    H168539   4.487   5.963  13.704 -0.1303  1.2175  1.5762
15708TIP3    H268540   4.537   5.870  13.811  1.6715 -0.0456 -0.2835
15709TIP3   OH268541   4.682   6.024   5.547 -0.0354  0.3175 -0.9681
15709TIP3    H168542   4.761   6.074   5.529 -0.3083  0.1110 -2.9143
15709TIP3    H268543   4.612   6.073   5.504 -0.7994 -0.1488 -0.2944
15710TIP3   OH268544   6.205   4.589   2.729  0.7196  0.2625 -0.2401
15710TIP3    H168545   6.194   4.679   2.760  0.3177  0.1579 -0.0719
15710TIP3    H268546   6.264   4.549   2.792 -0.0247  0.0761  0.3503
15711TIP3   OH268547   5.346   4.644   3.532  0.2922 -0.2764 -0.0373
15711TIP3    H168548   5.271   4.693   3.498  0.9235  0.0964 -0.9280
15711TIP3    H268549   5.417   4.707   3.534  0.4347 -0.4608  1.4245
15712TIP3   OH268550   3.484   0.697  13.526 -0.0155  0.2652  0.2547
15712TIP3    H168551   3.531   0.646  13.592 -0.6145  2.1527  2.2614
15712TIP3    H268552   3.395   0.704  13.560 -0.2185  1.6823 -0.4819
15713TIP3   OH268553   0.497   2.471  11.231  0.1406 -0.2749  0.2600
15713TIP3    H168554   0.432   2.538  11.253  1.4002  0.5105  1.7729
15713TIP3    H268555   0.453   2.388  11.250 -1.6274  0.0073 -2.1146
15714TIP3   OH268556   0.826   3.884  14.160 -0.2414  0.5281 -0.1788
15714TIP3    H168557   0.803   3.822  14.090 -0.4890  1.9823 -1.4236
15714TIP3    H268558   0.751   3.882  14.219 -0.1113 -0.5800 -0.0250
15715TIP3   OH268559   2.345   0.762  14.394 -0.3951 -0.2730  0.3640
15715TIP3    H168560   2.431   0.726  14.373 -0.6993 -0.2242 -1.0262
15715TIP3    H268561   2.300   0.771  14.310 -1.2453  1.0368  0.9091
15716TIP3   OH268562   4.036   1.961   2.572  0.8574 -0.1471 -0.0579
15716TIP3    H168563   3.959   2.002   2.610  1.6012  2.0896 -0.7938
15716TIP3    H268564   4.003   1.881   2.531 -1.0208  0.6225 -0.1391
15717TIP3   OH268565   5.010   2.905  11.150  0.6660 -1.3154 -0.0876
15717TIP3    H168566   4.921   2.939  11.145  1.3611  0.5605 -0.7133
15717TIP3    H268567   5.044   2.914  11.061  1.5368 -1.8495  0.1780
15718TIP3   OH268568   0.406   2.215  13.051 -0.0837 -0.1655 -0.0064
15718TIP3    H168569   0.344   2.190  12.983  0.1736 -0.1878 -0.2358
15718TIP3    H268570   0.492   2.207  13.009  0.0357  0.5227  0.0956
15719TIP3   OH268571   4.178   5.411   5.620 -0.5194 -0.4192  0.1667
15719TIP3    H168572   4.113   5.471   5.584  0.2727  0.6334  0.4492
15719TIP3    H268573   4.200   5.353   5.548  0.1890  0.9180 -0.7296
15720TIP3   OH268574   3.924   2.897  16.418  0.0356  0.2600 -0.1970
15720TIP3    H168575   3.858   2.845  16.372  0.6535 -1.2766  0.5663
15720TIP3    H268576   3.891   2.903  16.508  0.5825  0.0799  0.0195
15721TIP3   OH268577   5.338   4.691   0.920  0.0047 -0.3722 -0.3202
15721TIP3    H168578   5.399   4.759   0.889 -1.3528  1.3803  0.6451
15721TIP3    H268579   5.314   4.719   1.008 -2.0599 -1.0761 -0.6073
15722TIP3   OH268580   5.903   2.778   3.765 -0.3378  0.2654 -0.0862
15722TIP3    H168581   5.886   2.869   3.789 -1.4445 -0.0159  0.2060
15722TIP3    H268582   5.999   2.771   3.765 -0.2610  1.0195  1.3934
15723TIP3   OH268583   5.183   4.788   5.863  0.4670  0.3521  0.3599
15723TIP3    H168584   5.090   4.793   5.843  0.4403  0.5178  0.5177
15723TIP3    H268585   5.187   4.783   5.959  0.6255  0.5291  0.3640
15724TIP3   OH268586   2.629   1.250  17.058 -0.4066  0.1359  0.0708
15724TIP3    H168587   2.545   1.227  17.019  0.2026 -0.6157 -0.8692
15724TIP3    H268588   2.608   1.314  17.126 -1.5617  1.2553 -1.2701
15725TIP3   OH268589   6.155   5.731   2.511 -0.7288 -0.0259 -0.5394
15725TIP3    H168590   6.093   5.668   2.546 -1.4587  1.0136  0.1141
15725TIP3    H268591   6.104   5.781   2.447  0.4165 -1.4835 -2.7023
15726TIP3   OH268592   2.211   3.819   4.264 -0.2616  0.6590 -0.0873
15726TIP3    H168593   2.212   3.913   4.282 -0.5873  0.7762 -0.6873
15726TIP3    H268594   2.204   3.779   4.351 -0.9152  1.2028  0.1197
15727TIP3   OH268595   5.042   1.806  14.118 -0.0473  0.1395 -0.6884
15727TIP3    H168596   5.030   1.780  14.026  1.8925 -0.4274 -0.8231
15727TIP3    H268597   5.037   1.724  14.167 -0.1621  0.3261 -0.3820
15728TIP3   OH268598   3.330   3.795   2.800 -0.0381  0.1591  0.4526
15728TIP3    H168599   3.257   3.846   2.834 -0.4165 -0.2174  0.2016
15728TIP3    H268600   3.408   3.839   2.835 -0.3384  1.1950 -0.1429
15729TIP3   OH268601   0.587   1.838   6.490  0.5080  0.1639  0.1642
15729TIP3    H168602   0.583   1.751   6.528  1.4589  0.5886  1.3104
15729TIP3    H268603   0.681   1.857   6.483  0.3223  0.8859 -0.5648
15730TIP3   OH268604   5.225   0.398   3.394  0.6379  0.4414  0.6558
15730TIP3    H168605   5.175   0.445   3.328  0.1318 -1.2139 -0.1770
15730TIP3    H268606   5.166   0.391   3.469 -1.2860 -3.1916 -0.9825
15731TIP3   OH268607   1.874   4.470   5.761  0.2117 -0.7580 -0.6808
15731TIP3    H168608   1.836   4.435   5.680 -0.9666  1.3161 -1.0892
15731TIP3    H268609   1.956   4.422   5.771  0.2028 -1.3606 -2.9090
15732TIP3   OH268610   4.057   0.700   4.386  0.2567 -0.0940  0.1244
15732TIP3    H168611   3.981   0.713   4.442 -1.3874 -1.1460 -1.7161
15732TIP3    H268612   4.131   0.698   4.446 -0.7412  3.8022  1.7773
15733TIP3   OH268613   5.396   6.506  12.865 -0.5304 -0.0385 -0.3441
15733TIP3    H168614   5.394   6.425  12.916 -0.8655  0.0018 -0.2924
15733TIP3    H268615   5.422   6.479  12.777 -0.0685 -0.1246 -0.1838
15734TIP3   OH268616   4.710   4.391  14.797  0.7408 -0.3108  0.0799
15734TIP3    H168617   4.701   4.485  14.812  1.2773 -0.1369 -0.6491
15734TIP3    H268618   4.665   4.351  14.872  0.5744  0.5180  0.4400
15735TIP3   OH268619   3.262   2.913  16.023  0.3672 -0.2680 -0.4948
15735TIP3    H168620   3.340   2.919  16.078  0.0402  0.8482 -0.1323
15735TIP3    H268621   3.190   2.899  16.085 -0.3223  3.1751 -0.3143
15736TIP3   OH268622   0.756   2.757  12.519  0.1794  0.5631  0.2207
15736TIP3    H168623   0.797   2.804  12.446  0.5533 -0.4496 -0.2377
15736TIP3    H268624   0.827   2.746  12.583  0.2594  0.0447  0.0419
15737TIP3   OH268625   0.471   2.974   3.418 -0.8340 -0.0591 -0.4641
15737TIP3    H168626   0.506   2.887   3.400  0.1171  0.4509 -1.1641
15737TIP3    H268627   0.453   2.974   3.512 -2.7772 -1.6730 -0.7659
15738TIP3   OH268628   1.802   5.768  13.447  0.3699 -0.2623  0.1069
15738TIP3    H168629   1.779   5.771  13.540  0.5889  2.6188  0.1796
15738TIP3    H268630   1.721   5.792  13.402  0.5430 -0.5594 -0.3676
15739TIP3   OH268631   3.921   3.246  12.903 -0.0389  0.0266 -0.1242
15739TIP3    H168632   3.913   3.281  12.991  2.5697  0.7336 -0.0688
15739TIP3    H268633   3.931   3.151  12.915  1.4680  0.2271  0.5130
15740TIP3   OH268634   4.625   4.725  11.147  0.0085 -0.3222 -0.3136
15740TIP3    H168635   4.584   4.715  11.062 -0.3965  0.2534 -0.1890
15740TIP3    H268636   4.656   4.815  11.149  1.7179 -0.8660 -0.5881
15741TIP3   OH268637   4.168   4.145  17.081  0.3161 -0.5364 -0.3169
15741TIP3    H168638   4.174   4.103  16.995  1.5001 -0.7660 -0.1511
15741TIP3    H268639   4.085   4.193  17.079  0.4734 -0.2605 -1.7187
15742TIP3   OH268640   1.710   6.412   2.777  0.1809 -0.1797 -0.1762
15742TIP3    H168641   1.730   6.349   2.707  1.1812  0.0193 -0.0848
15742TIP3    H268642   1.734   6.497   2.740  0.2778 -0.0234  0.2399
15743TIP3   OH268643   1.793   1.714  14.593  0.2964  0.2439  0.0690
15743TIP3    H168644   1.698   1.725  14.581  0.1411  1.0930  1.7224
15743TIP3    H268645   1.806   1.619  14.596 -0.9292  0.0674  2.3418
15744TIP3   OH268646   4.521   4.296   1.314  0.4529  0.5237  0.5175
15744TIP3    H168647   4.588   4.346   1.360  0.1505  3.0961 -1.5550
15744TIP3    H268648   4.438   4.339   1.338  0.0180  0.1208 -0.2113
15745TIP3   OH268649   5.598   1.224  16.698  0.0838 -0.2900 -0.1277
15745TIP3    H168650   5.641   1.177  16.769 -0.2059 -0.1189  0.1623
15745TIP3    H268651   5.615   1.171  16.620 -2.1525 -2.1182  0.5445
15746TIP3   OH268652   5.350   6.270  12.467  0.3439  0.0844 -0.8583
15746TIP3    H168653   5.335   6.289  12.374  0.0233 -0.1700 -0.8626
15746TIP3    H268654   5.371   6.177  12.469 -0.0136  0.0070 -0.6398
15747TIP3   OH268655   3.841   3.386   1.267 -0.2294 -0.5004 -0.6911
15747TIP3    H168656   3.841   3.336   1.349  0.4638 -0.4362 -0.6417
15747TIP3    H268657   3.928   3.371   1.230 -1.1941 -2.2153 -2.4618
15748TIP3   OH268658   4.983   5.590   5.630 -0.1982 -0.0772  0.5787
15748TIP3    H168659   4.958   5.503   5.599  0.0929 -0.4364  1.3401
15748TIP3    H268660   4.902   5.629   5.662 -0.4751  0.2388 -0.4786
15749TIP3   OH268661   6.247   6.542  13.105 -0.3025  0.4907 -0.0754
15749TIP3    H168662   6.243   6.620  13.050  0.2779 -0.3590 -1.3632
15749TIP3    H268663   6.205   6.474  13.053  1.3689 -0.6386 -0.0188
15750TIP3   OH268664   1.660   1.121   5.072 -0.6092 -0.0937  0.1489
15750TIP3    H168665   1.626   1.059   5.008  1.0414 -0.6344 -0.2698
15750TIP3    H268666   1.648   1.079   5.157 -0.5578 -0.4785 -0.0326
15751TIP3   OH268667   3.643   0.179  12.420 -0.1537 -0.3642 -0.0040
15751TIP3    H168668   3.698   0.124  12.364  1.4065  0.7654  0.3593
15751TIP3    H268669   3.561   0.130  12.427  0.0373 -1.1378 -2.2260
15752TIP3   OH268670   2.695   5.992   4.412  0.1367 -0.2372  0.1048
15752TIP3    H168671   2.744   6.069   4.441 -0.8445  0.5135 -0.1828
15752TIP3    H268672   2.617   5.990   4.467 -0.7017 -0.0043 -1.0228
15753TIP3   OH268673   2.160   1.950  13.431 -0.7560  0.0255 -0.5433
15753TIP3    H168674   2.251   1.975  13.413 -0.3370 -0.4480  0.7827
15753TIP3    H268675   2.167   1.868  13.480 -1.8434  0.5823  0.6066
15754TIP3   OH268676   0.165   0.524  10.868  0.0273 -0.1175  0.2159
15754TIP3    H168677   0.195   0.615  10.876 -0.3377  0.1030 -0.7373
15754TIP3    H268678   0.206   0.478  10.941  2.9755  0.0963 -1.1576
15755TIP3   OH268679   6.570   6.742   1.888 -0.2506  0.3045 -0.1798
15755TIP3    H168680   6.551   6.651   1.912 -0.7547  0.1403 -1.1644
15755TIP3    H268681   6.525   6.794   1.956 -0.8816 -0.1627 -0.2296
15756TIP3   OH268682   3.933   3.881  16.460  0.0817 -0.6104 -0.5112
15756TIP3    H168683   3.845   3.917  16.472 -0.0311 -1.2200  0.6116
15756TIP3    H268684   3.918   3.789  16.439  0.4530 -0.7747 -0.0698
15757TIP3   OH268685   3.942   1.449  16.629 -0.0663  0.1332  0.1492
15757TIP3    H168686   3.944   1.484  16.718  0.8130  0.5957 -0.0467
15757TIP3    H268687   3.931   1.355  16.641 -2.6383  0.4322  0.6779
15758TIP3   OH268688   5.652   6.199  13.318  0.2110 -0.0074 -0.1707
15758TIP3    H168689   5.670   6.293  13.321  0.8925 -0.0961 -1.1577
15758TIP3    H268690   5.561   6.191  13.346 -0.0294  1.0037 -0.6363
15759TIP3   OH268691   4.334   2.470  14.159 -0.0410 -0.6660  0.2815
15759TIP3    H168692   4.319   2.501  14.248  2.6438 -1.1595  0.9975
15759TIP3    H268693   4.247   2.470  14.118 -1.1771  0.6316  2.5239
15760TIP3   OH268694   0.006   1.963  14.351 -0.5520  0.1877  0.3903
15760TIP3    H168695   0.049   1.892  14.399 -1.0355  0.2399  0.9082
15760TIP3    H268696   0.078   2.014  14.314 -0.1400 -2.1048 -2.3330
15761TIP3   OH268697   2.790   4.699  10.459  0.2077  0.5457  0.2000
15761TIP3    H168698   2.807   4.678  10.551 -0.1952  2.4449  0.7317
15761TIP3    H268699   2.837   4.631  10.411  0.8644 -0.1821  1.7922
15762TIP3   OH268700   3.199   4.289  15.245  0.0062  0.0926  0.5507
15762TIP3    H168701   3.263   4.240  15.194 -1.9740  1.1785 -3.3894
15762TIP3    H268702   3.118   4.237  15.240 -0.6356  0.9618  1.3853
15763TIP3   OH268703   2.763   0.794   5.628 -0.8900  0.3523 -0.0024
15763TIP3    H168704   2.830   0.749   5.679  1.0821  1.1292 -1.7437
15763TIP3    H268705   2.723   0.725   5.575  0.2051  0.1736 -0.6459
15764TIP3   OH268706   4.918   4.622   3.914  0.2894  0.1984 -0.3814
15764TIP3    H168707   5.012   4.639   3.926  0.0693  0.1969  1.5483
15764TIP3    H268708   4.895   4.561   3.984 -0.7191 -1.6047 -2.1849
15765TIP3   OH268709   2.024   6.468  14.100 -0.1423 -0.1738 -0.5593
15765TIP3    H168710   1.976   6.453  14.018  0.4428 -3.4713 -0.4105
15765TIP3    H268711   1.961   6.516  14.154 -1.0701  0.8220 -2.3907
15766TIP3   OH268712   3.725   0.472  13.126  0.0975 -0.3524 -0.0684
15766TIP3    H168713   3.659   0.535  13.152  0.4952  0.2218 -0.4314
15766TIP3    H268714   3.765   0.510  13.048 -1.6737 -2.4228 -2.1424
15767TIP3   OH268715   5.381   3.414   6.370 -0.0101 -0.0523  0.4880
15767TIP3    H168716   5.383   3.337   6.426 -1.4605 -1.6418 -1.4697
15767TIP3    H268717   5.293   3.450   6.381 -1.1723 -1.6841 -2.1616
15768TIP3   OH268718   3.142   4.330  12.926 -0.1067  0.7199 -0.2986
15768TIP3    H168719   3.135   4.265  12.996 -0.3431  1.9337  0.8383
15768TIP3    H268720   3.233   4.360  12.931  0.0399  0.4059 -0.9135
15769TIP3   OH268721   1.690   5.300   6.029 -0.5129 -0.4699  0.0300
15769TIP3    H168722   1.601   5.294   6.062 -0.4844  1.0474  0.4301
15769TIP3    H268723   1.680   5.310   5.934 -0.7711 -0.3339  0.0719
15770TIP3   OH268724   3.469   1.713  12.318  0.0095  0.6718  0.4580
15770TIP3    H168725   3.505   1.630  12.288  1.6817  1.7761 -0.7825
15770TIP3    H268726   3.385   1.721  12.273  0.4978  0.2975 -0.5337
15771TIP3   OH268727   5.412   1.502  11.435 -0.0696 -0.0568 -0.5252
15771TIP3    H168728   5.440   1.504  11.343 -0.6900 -0.5836 -0.7298
15771TIP3    H268729   5.453   1.579  11.473  0.9428 -0.3318 -1.0252
15772TIP3   OH268730   5.004   2.608  14.359  0.0723 -0.0701 -0.0137
15772TIP3    H168731   4.966   2.565  14.283 -0.6119 -0.8280  0.7340
15772TIP3    H268732   5.092   2.635  14.330 -0.4809  0.4187 -1.3125
15773TIP3   OH268733   2.660   4.533  14.103  0.4940  0.2233  0.0097
15773TIP3    H168734   2.711   4.577  14.036  0.6802  0.3101  0.2090
15773TIP3    H268735   2.640   4.601  14.168 -1.2137  0.5724 -0.8340
15774TIP3   OH268736   5.192   4.043   3.046  0.1654  0.0768  0.0727
15774TIP3    H168737   5.183   4.130   3.085  1.6289 -0.6873  2.3058
15774TIP3    H268738   5.157   3.983   3.112 -0.3026 -1.1043 -1.1971
15775TIP3   OH268739   1.962   5.233  16.555 -0.0120 -0.7204  0.6579
15775TIP3    H168740   1.931   5.147  16.582  0.6489 -1.1289  0.1445
15775TIP3    H268741   1.902   5.259  16.485 -0.5636 -0.4987  1.2042
15776TIP3   OH268742   0.531   1.654   2.962 -0.3017 -0.4385  0.3723
15776TIP3    H168743   0.444   1.669   2.924 -0.6397  0.2193  1.3652
15776TIP3    H268744   0.572   1.589   2.904 -0.6634  0.7484 -1.2731
15777TIP3   OH268745   6.636   2.022   3.178  0.0018  0.2498  0.1181
15777TIP3    H168746   6.586   1.987   3.104 -0.8818 -1.0828  1.2950
15777TIP3    H268747   6.570   2.062   3.235  0.7516  1.8693 -0.0906
15778TIP3   OH268748   0.007   2.144   3.985 -0.0493  0.0208  0.6439
15778TIP3    H168749   0.028   2.236   3.997  1.3771 -0.3470  1.2385
15778TIP3    H268750   0.048   2.100   4.061 -1.9219 -0.9383  1.1534
15779TIP3   OH268751   3.317   1.915  13.331  0.7760  0.1895  0.2876
15779TIP3    H168752   3.286   1.843  13.276  0.1617  1.3333 -0.9215
15779TIP3    H268753   3.361   1.974  13.270  0.6530  1.1853  1.1390
15780TIP3   OH268754   2.759   1.595   0.307  0.0699 -0.4529 -0.4875
15780TIP3    H168755   2.839   1.646   0.295 -0.7364  0.6769 -1.3357
15780TIP3    H268756   2.692   1.643   0.258 -1.3743 -0.8036  1.0557
15781TIP3   OH268757   4.881   5.397   1.484 -0.2153 -0.0528  0.6176
15781TIP3    H168758   4.870   5.483   1.526 -0.5899 -0.3467  1.1249
15781TIP3    H268759   4.804   5.387   1.429  0.0346  0.1157  0.2302
15782TIP3   OH268760   1.387   6.307   2.253  0.2882  0.0362 -0.1819
15782TIP3    H168761   1.381   6.279   2.344 -1.4903 -0.2019 -0.3309
15782TIP3    H268762   1.341   6.391   2.250  1.5528  0.7380 -0.6187
15783TIP3   OH268763   6.669   3.380  16.811 -0.7518  0.0277  0.3929
15783TIP3    H168764   6.697   3.325  16.885 -0.6395  0.9676  1.0664
15783TIP3    H268765   6.689   3.327  16.734  0.2026 -0.5123  0.9829
15784TIP3   OH268766   1.659   6.550  16.503  0.1528 -0.2608 -0.2704
15784TIP3    H168767   1.621   6.574  16.419  0.8756  1.7417 -0.0721
15784TIP3    H268768   1.715   6.475  16.484 -2.4009 -2.1410 -0.8713
15785TIP3   OH268769   1.474   2.536  15.200  0.2751 -0.2249 -0.0245
15785TIP3    H168770   1.496   2.521  15.292  3.1468  1.9260 -0.2293
15785TIP3    H268771   1.390   2.582  15.203  0.4189 -0.0043  1.5377
15786TIP3   OH268772   4.270   2.133  13.042 -0.3377  0.0667  0.6835
15786TIP3    H168773   4.196   2.111  13.098 -0.4056  0.1551  0.6294
15786TIP3    H268774   4.343   2.147  13.103 -0.0164 -1.3551  0.6568
15787TIP3   OH268775   3.835   4.653  16.893  0.1206  0.3306  0.6079
15787TIP3    H168776   3.887   4.725  16.928  2.1622 -0.6519 -0.1763
15787TIP3    H268777   3.894   4.610  16.831 -0.9974 -2.0018  1.0540
15788TIP3   OH268778   2.761   2.348  14.215  0.4744  0.4766  0.2757
15788TIP3    H168779   2.772   2.418  14.280 -0.7642  2.0172 -1.0928
15788TIP3    H268780   2.720   2.391  14.140 -0.6884 -1.8167 -0.4856
15789TIP3   OH268781   3.093   6.604   2.672  0.0142  0.1725 -0.4642
15789TIP3    H168782   3.026   6.669   2.651 -0.9031 -1.0329 -1.4396
15789TIP3    H268783   3.161   6.616   2.605 -1.7756 -2.0624 -2.9000
15790TIP3   OH268784   6.623   2.732   0.719  0.1055 -0.1407 -0.0809
15790TIP3    H168785   6.638   2.824   0.697  0.0370 -0.0133  0.3962
15790TIP3    H268786   6.528   2.721   0.711  0.0533 -0.0378  0.3420
15791TIP3   OH268787   3.336   0.883  15.760 -0.1568 -0.1680  0.3666
15791TIP3    H168788   3.353   0.888  15.854  0.7525  1.7350  0.1629
15791TIP3    H268789   3.266   0.947  15.745  0.1676  0.0447 -0.3170
15792TIP3   OH268790   6.260   5.794  16.876 -0.5865 -0.5034 -0.1183
15792TIP3    H168791   6.297   5.715  16.915 -0.4682 -1.1964 -1.5743
15792TIP3    H268792   6.177   5.764  16.837 -0.9051  0.2601 -0.0380
15793TIP3   OH268793   1.274   2.701  13.768  0.3251 -0.0748 -0.0654
15793TIP3    H168794   1.256   2.632  13.833  0.6336 -0.8435 -0.7768
15793TIP3    H268795   1.259   2.658  13.684 -1.6845  1.3529 -0.5147
15794TIP3   OH268796   6.425   4.028  15.090 -0.3135  0.3545  0.0955
15794TIP3    H168797   6.357   3.964  15.111  0.5114 -1.2149 -1.6897
15794TIP3    H268798   6.437   4.079  15.170 -2.0219 -0.7808  1.1166
15795TIP3   OH268799   2.317   5.325   6.086 -0.1284 -0.4765  0.2672
15795TIP3    H168800   2.294   5.393   6.149  0.0432 -1.1577  1.0829
15795TIP3    H268801   2.234   5.306   6.041 -0.3916 -0.4040  0.7115
15796TIP3   OH268802   1.939   1.954   3.150  0.1049 -0.2200 -0.0844
15796TIP3    H168803   1.990   1.918   3.078  2.6408 -0.6821  1.8041
15796TIP3    H268804   1.964   2.046   3.154 -2.7887  0.7808 -1.9310
15797TIP3   OH268805   2.781   5.480  14.807 -0.7280 -0.1713  0.0971
15797TIP3    H168806   2.855   5.454  14.751  0.0830 -0.1131  1.1105
15797TIP3    H268807   2.745   5.397  14.839 -1.3740 -0.2185 -0.7047
15798TIP3   OH268808   4.119   4.420  12.940  0.0942 -0.0484  0.0373
15798TIP3    H168809   4.149   4.401  12.852  2.0805 -1.8312  0.9948
15798TIP3    H268810   4.080   4.337  12.970  1.2069 -0.0902  1.4623
15799TIP3   OH268811   6.044   5.208   2.581 -0.3091  0.2928 -0.3112
15799TIP3    H168812   5.955   5.241   2.593  0.1958  1.6835 -0.1289
15799TIP3    H268813   6.093   5.243   2.656  0.3040 -0.8123 -0.1751
15800TIP3   OH268814   2.204   2.735   4.405 -0.5995 -0.0275  0.4814
15800TIP3    H168815   2.208   2.640   4.413  0.3863 -0.0145  0.3159
15800TIP3    H268816   2.234   2.767   4.490 -4.0470  0.1907  1.7709
15801TIP3   OH268817   3.416   1.287   0.115  0.3117 -1.2330  0.4068
15801TIP3    H168818   3.458   1.308   0.199 -0.9870  1.6691  0.4372
15801TIP3    H268819   3.324   1.274   0.137 -0.7353  2.8814 -0.8179
15802TIP3   OH268820   2.211   2.327  12.128  0.0821 -0.2999  0.2341
15802TIP3    H168821   2.160   2.264  12.076 -1.2735  1.5628 -0.8060
15802TIP3    H268822   2.281   2.356  12.068  1.1662 -1.3013  0.9623
15803TIP3   OH268823   1.585   6.432  13.554  0.3258 -0.1633 -0.7941
15803TIP3    H168824   1.502   6.480  13.559  0.5504  0.2468 -0.8833
15803TIP3    H268825   1.580   6.366  13.623 -0.5553 -0.9156 -1.5589
15804TIP3   OH268826   3.123   5.852   6.023  0.2010 -0.1603  0.0585
15804TIP3    H168827   3.043   5.871   5.974 -0.9488 -1.1367  1.4802
15804TIP3    H268828   3.092   5.818   6.107  2.1154  0.1204  0.9250
15805TIP3   OH268829   6.285   4.246  15.517  0.4543 -0.2239 -0.4163
15805TIP3    H168830   6.223   4.207  15.456 -0.8325 -0.8879  1.2388
15805TIP3    H268831   6.360   4.187  15.517 -0.5302 -1.5077  0.3840
15806TIP3   OH268832   1.765   3.852  15.827 -0.5136  0.1310  0.7368
15806TIP3    H168833   1.824   3.903  15.881 -0.3691  0.3807  0.3454
15806TIP3    H268834   1.709   3.916  15.784  0.7609  0.1275 -1.0779
15807TIP3   OH268835   1.365   0.688   2.273  0.8899  0.4985  0.7660
15807TIP3    H168836   1.292   0.686   2.335  1.0282 -0.3215  0.9123
15807TIP3    H268837   1.382   0.782   2.259 -1.4642  0.7625 -0.7989
15808TIP3   OH268838   2.982   3.091  15.468 -0.1078 -0.9498 -0.1318
15808TIP3    H168839   2.913   3.090  15.403  2.0400  0.8233 -2.6591
15808TIP3    H268840   2.978   3.004  15.509 -1.4187 -2.2753 -2.8087
15809TIP3   OH268841   5.875   0.349  17.082  0.3725 -0.5621  0.7885
15809TIP3    H168842   5.888   0.349  16.988 -0.3043 -2.3852  0.6414
15809TIP3    H268843   5.945   0.292  17.116  2.3852  2.2723  1.7627
15810TIP3   OH268844   4.935   2.776   2.217  0.0360  0.7525 -0.2696
15810TIP3    H168845   5.018   2.822   2.212  0.4965 -0.1255 -0.8542
15810TIP3    H268846   4.891   2.814   2.293  1.4675  0.4127  0.7604
15811TIP3   OH268847   0.297   6.634  17.063 -0.0373 -0.0872 -0.6675
15811TIP3    H168848   0.292   6.725  17.033 -1.6013  0.3793  0.8662
15811TIP3    H268849   0.388   6.624  17.092 -0.3858  1.7893  1.3575
15812TIP3   OH268850   3.524   5.090   0.439 -0.0755 -0.4970  0.2240
15812TIP3    H168851   3.437   5.095   0.478 -1.0104 -0.7575 -1.6799
15812TIP3    H268852   3.509   5.049   0.353  1.9311 -0.5781 -0.1270
15813TIP3   OH268853   2.847   4.572  16.118 -0.0473  0.1171 -0.1141
15813TIP3    H168854   2.928   4.621  16.113 -0.3624  0.6907  0.3420
15813TIP3    H268855   2.866   4.499  16.177  0.7570 -0.9904 -1.6853
15814TIP3   OH268856   1.687   0.881   0.761 -0.1181  0.6240 -0.0782
15814TIP3    H168857   1.772   0.862   0.724  0.2921  1.7332  0.2486
15814TIP3    H268858   1.687   0.838   0.846 -0.0751  0.2200 -0.2819
15815TIP3   OH268859   3.375   3.615   3.305  0.0877  0.0418 -0.5065
15815TIP3    H168860   3.354   3.552   3.374  2.5475  1.8559  2.1817
15815TIP3    H268861   3.312   3.686   3.318  1.4244  1.0283  0.9578
15816TIP3   OH268862   1.069   1.474  12.223  0.2989 -0.0859 -0.7877
15816TIP3    H168863   1.112   1.554  12.191 -1.3540  1.7985  1.3000
15816TIP3    H268864   1.041   1.496  12.312 -2.4000 -2.1190 -0.9844
15817TIP3   OH268865   3.118   5.404  15.733 -0.4288  0.0777 -0.0374
15817TIP3    H168866   3.107   5.456  15.654 -1.2839 -1.3100 -0.8869
15817TIP3    H268867   3.041   5.425  15.786  0.5522  1.6322  0.8581
15818TIP3   OH268868   5.784   3.886  11.637  0.1772 -0.0344  0.1828
15818TIP3    H168869   5.837   3.820  11.593  0.6472  0.2115  0.3773
15818TIP3    H268870   5.847   3.938  11.688 -0.2962 -0.0182  0.7627
15819TIP3   OH268871   1.689   1.814   2.892 -0.1467 -0.3242 -0.7234
15819TIP3    H168872   1.680   1.848   2.980  1.7993  1.3855 -1.1115
15819TIP3    H268873   1.672   1.889   2.835 -0.3574 -1.1498 -1.7858
15820TIP3   OH268874   4.030   3.682  13.419  1.1037  0.1649  0.3527
15820TIP3    H168875   4.051   3.740  13.492 -0.0664  0.8227  0.1816
15820TIP3    H268876   3.935   3.683  13.413  1.1745  0.5601 -1.5215
15821TIP3   OH268877   2.491   5.108   0.718 -0.0636  0.8539  0.4888
15821TIP3    H168878   2.503   5.032   0.662  1.7795  1.6004 -0.1878
15821TIP3    H268879   2.403   5.098   0.754  0.7311 -2.4963  1.8294
15822TIP3   OH268880   2.403   4.881  13.148 -0.9224  0.0268  0.1312
15822TIP3    H168881   2.370   4.963  13.185 -1.8068  0.3461 -1.2729
15822TIP3    H268882   2.459   4.908  13.075  0.6849 -0.5835  1.1024
15823TIP3   OH268883   2.042   5.367  14.135 -0.0668  0.2169 -0.4826
15823TIP3    H168884   2.054   5.289  14.081 -0.9155  1.1751 -2.1122
15823TIP3    H268885   2.107   5.357  14.205  0.4949 -1.4699 -1.1895
15824TIP3   OH268886   3.430   2.530  16.872  0.4033  0.2689 -0.3646
15824TIP3    H168887   3.504   2.568  16.920  0.8814 -1.8998  0.7268
15824TIP3    H268888   3.470   2.485  16.798  0.0758 -0.0695 -0.3364
15825TIP3   OH268889   2.574   6.584  16.530 -0.0014  0.0759  0.6466
15825TIP3    H168890   2.531   6.525  16.468  0.7062 -1.1588  1.2841
15825TIP3    H268891   2.610   6.526  16.598  2.6026  1.0050  0.2023
15826TIP3   OH268892   5.882   4.347  13.833 -0.5673  0.7094  0.5566
15826TIP3    H168893   5.829   4.295  13.773  0.8387  0.0103 -0.1281
15826TIP3    H268894   5.819   4.384  13.895 -1.9140  0.4455 -0.6038
15827TIP3   OH268895   6.192   5.233   3.846  0.0029 -0.6321  0.4766
15827TIP3    H168896   6.138   5.220   3.768 -0.6410  0.7308  0.6768
15827TIP3    H268897   6.133   5.269   3.911  1.2316  1.5074  0.5065
15828TIP3   OH268898   2.632   0.675   2.988  0.0636  0.0638 -0.1480
15828TIP3    H168899   2.670   0.622   3.058 -1.3250  0.4628  0.9627
15828TIP3    H268900   2.542   0.644   2.981  0.3988 -0.5399 -2.3731
15829TIP3   OH268901   4.376   1.947  11.854 -0.2978  0.0887 -0.0576
15829TIP3    H168902   4.349   1.856  11.837 -0.2743  0.3204 -1.3728
15829TIP3    H268903   4.322   1.973  11.929 -0.8299 -0.7803 -0.1162
15830TIP3   OH268904   3.541   0.997  14.026 -0.1011 -0.1511  0.0241
15830TIP3    H168905   3.524   0.935  14.097 -3.5713  0.2031 -0.3045
15830TIP3    H268906   3.580   0.944  13.956 -0.6171 -1.4170  0.6607
15831TIP3   OH268907   1.355   5.945  11.374  0.2224  0.1774  0.3693
15831TIP3    H168908   1.415   6.011  11.341  1.6702 -1.1033  0.3241
15831TIP3    H268909   1.411   5.882  11.420 -1.3230  0.0190  2.1807
15832TIP3   OH268910   0.951   5.461   1.437  0.1238  0.6234  0.2968
15832TIP3    H168911   1.025   5.415   1.398  0.6552  0.7846  1.0935
15832TIP3    H268912   0.877   5.440   1.381  0.5290 -0.5232  0.1794
15833TIP3   OH268913   2.645   4.633   2.388 -0.0274  0.6511 -0.7880
15833TIP3    H168914   2.673   4.696   2.454 -2.2956  1.7232 -0.7421
15833TIP3    H268915   2.610   4.686   2.317 -0.5213 -0.5311 -1.4614
15834TIP3   OH268916   2.376   5.853   6.546 -0.0229 -0.1680 -0.0610
15834TIP3    H168917   2.298   5.894   6.508 -0.7149 -1.4151 -0.0612
15834TIP3    H268918   2.355   5.842   6.638 -0.8379 -2.5360 -0.4457
15835TIP3   OH268919   6.655   0.242   2.713 -0.1977 -0.6178 -0.2814
15835TIP3    H168920   6.610   0.240   2.798 -1.5844 -0.9596 -0.9951
15835TIP3    H268921   6.722   0.173   2.721 -0.1202 -0.4557  0.6259
15836TIP3   OH268922   2.013   1.612  15.135  0.2496  0.1334 -0.5810
15836TIP3    H168923   1.972   1.654  15.059 -1.6060 -1.1674 -0.3626
15836TIP3    H268924   2.087   1.669  15.157 -0.4532  1.6916 -2.0258
15837TIP3   OH268925   1.435   2.867  16.952  0.1305  0.2928  0.1756
15837TIP3    H168926   1.373   2.796  16.938  1.2692 -0.7936  0.4817
15837TIP3    H268927   1.491   2.837  17.023  1.4314  0.9240 -0.5353
15838TIP3   OH268928   4.774   2.569   2.448 -0.3441 -0.4251 -0.1742
15838TIP3    H168929   4.685   2.553   2.480 -0.8289  0.4579 -1.0247
15838TIP3    H268930   4.764   2.580   2.353  0.7093 -0.5060 -0.3094
15839TIP3   OH268931   3.332   0.958  12.072  0.0883 -0.4763  0.3201
15839TIP3    H168932   3.334   0.890  12.005 -0.3296 -0.1277 -0.0516
15839TIP3    H268933   3.335   0.910  12.155  1.9018 -0.8628  0.0680
15840TIP3   OH268934   1.789   2.482   1.977 -0.2854  0.6716  0.2661
15840TIP3    H168935   1.837   2.423   1.918 -1.6078  1.0100 -1.2321
15840TIP3    H268936   1.820   2.569   1.954 -1.7780  0.9220 -0.9540
15841TIP3   OH268937   0.156   1.896   0.466  0.0706 -0.0431 -0.2313
15841TIP3    H168938   0.134   1.850   0.547  0.2921 -1.1950 -0.7890
15841TIP3    H268939   0.085   1.873   0.406 -0.2896  1.1057 -0.2676
15842TIP3   OH268940   2.263   0.447  15.791 -0.1287 -0.4542  0.6545
15842TIP3    H168941   2.267   0.541  15.811  1.5099  0.6001 -3.5285
15842TIP3    H268942   2.334   0.408  15.842  3.5149  1.8717 -2.1552
15843TIP3   OH268943   2.955   3.903  16.062  0.4598  0.0670  0.6431
15843TIP3    H168944   2.869   3.877  16.095 -0.8902  1.9919 -1.1017
15843TIP3    H268945   2.979   3.978  16.115 -0.4808  1.5002 -0.8519
15844TIP3   OH268946   6.259   6.206  11.911  0.0976 -0.0916 -0.1455
15844TIP3    H168947   6.230   6.221  12.001  0.7550  0.0186  0.0599
15844TIP3    H268948   6.276   6.294  11.877 -0.2284 -0.1284 -0.4054
15845TIP3   OH268949   6.075   4.401  10.766 -0.1017 -0.0192 -0.4558
15845TIP3    H168950   6.162   4.416  10.801  0.0940 -0.5399 -0.7013
15845TIP3    H268951   6.090   4.374  10.675 -0.3467 -2.2955  0.1166
15846TIP3   OH268952   5.827   6.095   5.330  0.2351 -0.6098 -0.9964
15846TIP3    H168953   5.858   6.005   5.340  0.8824 -0.3539 -0.6239
15846TIP3    H268954   5.901   6.142   5.291 -0.0606 -0.2119 -1.0932
15847TIP3   OH268955   1.494   0.323  13.564 -0.7282 -0.0610 -0.3527
15847TIP3    H168956   1.497   0.233  13.532  2.3316  0.1659 -1.0095
15847TIP3    H268957   1.417   0.325  13.621 -1.6231 -2.7237 -1.2954
15848TIP3   OH268958   3.737   4.952   0.784  0.5243 -0.3168 -0.1433
15848TIP3    H168959   3.692   4.955   0.700  0.8473  1.1438 -0.3010
15848TIP3    H268960   3.676   4.909   0.843  0.1615 -1.0694 -1.0508
15849TIP3   OH268961   4.240   2.795   5.739  0.5157 -0.0108 -0.5629
15849TIP3    H168962   4.165   2.843   5.773 -0.4523 -0.2142 -2.2942
15849TIP3    H268963   4.312   2.818   5.798 -0.3150  2.1529 -0.2897
15850TIP3   OH268964   4.563   1.464   5.125  0.3555  0.1033 -0.7759
15850TIP3    H168965   4.557   1.393   5.188  1.4078  1.5247  1.0381
15850TIP3    H268966   4.646   1.449   5.080  0.2271 -0.2131 -0.9067
15851TIP3   OH268967   3.501   6.782  13.203  0.1184  0.4806 -0.7369
15851TIP3    H168968   3.496   6.873  13.232  1.3878  1.4371 -3.2124
15851TIP3    H268969   3.557   6.739  13.267 -1.7530  0.9885  1.3476
15852TIP3   OH268970   5.424   2.813  14.693 -0.2576 -0.1323  0.1138
15852TIP3    H168971   5.480   2.872  14.744 -0.9775  0.3308  0.3964
15852TIP3    H268972   5.369   2.871  14.642 -0.9044 -0.5606  0.3093
15853TIP3   OH268973   5.023   1.589  15.338 -0.3025  0.3766 -0.3909
15853TIP3    H168974   5.103   1.614  15.291 -0.1737  0.1309 -0.3066
15853TIP3    H268975   4.981   1.672  15.360 -0.0531  0.5090 -0.4082
15854TIP3   OH268976   3.767   2.227  11.949 -0.0703  0.5111  0.6827
15854TIP3    H168977   3.675   2.208  11.929  0.3417  0.1280 -0.9556
15854TIP3    H268978   3.800   2.146  11.987  0.0368  0.0395 -0.3884
15855TIP3   OH268979   2.764   1.771   1.630 -0.0646 -0.6421  0.5350
15855TIP3    H168980   2.696   1.737   1.571 -1.1432  1.4030  0.5002
15855TIP3    H268981   2.844   1.728   1.601 -0.9817 -1.5219 -0.8474
15856TIP3   OH268982   1.396   6.581   0.375 -0.3399  0.4269  0.1314
15856TIP3    H168983   1.332   6.521   0.413  0.7700 -0.1484  1.1487
15856TIP3    H268984   1.398   6.655   0.436  1.1601 -0.3237  1.0705
15857TIP3   OH268985   3.263   6.121  11.472 -0.2686  0.4089 -0.4033
15857TIP3    H168986   3.348   6.091  11.440 -0.0713  1.4712 -0.9142
15857TIP3    H268987   3.207   6.121  11.394  0.2431  3.1147 -0.8564
15858TIP3   OH268988   4.527   0.288  15.405  0.2034 -0.1668  0.3141
15858TIP3    H168989   4.615   0.262  15.380  0.2562  1.2242 -1.0553
15858TIP3    H268990   4.540   0.351  15.476  0.2324 -0.8403  0.9248
15859TIP3   OH268991   3.592   0.483  11.915 -0.0284  0.3705 -0.1476
15859TIP3    H168992   3.646   0.404  11.923  1.8497  1.5248 -0.6849
15859TIP3    H268993   3.636   0.548  11.969 -2.8192  0.5255  2.1909
15860TIP3   OH268994   1.016   5.768   1.648 -0.0530 -0.6775  0.1306
15860TIP3    H168995   0.940   5.727   1.689 -0.1083  0.5997  1.4162
15860TIP3    H268996   0.979   5.828   1.584 -0.1951  0.2723  1.0657
15861TIP3   OH268997   3.566   6.457   0.001  0.1542  0.0447 -0.5013
15861TIP3    H168998   3.539   6.366   0.018 -0.3018  0.3572  0.5355
15861TIP3    H268999   3.522   6.508   0.069  1.0376  0.9543 -0.5889
15862TIP3   OH269000   2.784   5.452   5.921  0.0720 -0.3278 -0.2125
15862TIP3    H169001   2.804   5.461   6.014 -1.1649 -0.2397  0.0658
15862TIP3    H269002   2.828   5.526   5.879 -1.0955  0.8626  0.6018
15863TIP3   OH269003   1.364   1.547  15.502 -0.7068 -0.1366 -0.3237
15863TIP3    H169004   1.269   1.551  15.512 -0.6442 -0.3249  0.4264
15863TIP3    H269005   1.389   1.632  15.466 -1.1010  0.1345  0.0310
15864TIP3   OH269006   2.955   4.169   0.989 -0.1691 -0.6631  0.0167
15864TIP3    H169007   2.909   4.227   1.050 -1.2411 -0.9761 -0.4721
15864TIP3    H269008   3.046   4.201   0.990 -0.7789  1.2675 -0.4945
15865TIP3   OH269009   6.264   0.329   3.651 -0.0086  0.5240  0.3121
15865TIP3    H169010   6.256   0.236   3.629 -0.0874  0.2431  1.4820
15865TIP3    H269011   6.279   0.372   3.566  2.7937 -0.8367  0.0098
15866TIP3   OH269012   4.742   4.239   4.003  0.3317  0.1348  0.1708
15866TIP3    H169013   4.769   4.191   3.924  1.0526 -1.0103  1.0744
15866TIP3    H269014   4.665   4.288   3.975  0.3706 -0.4985 -1.1695
15867TIP3   OH269015   0.977   2.060   4.300 -0.4958  0.0242  0.1418
15867TIP3    H169016   1.000   2.121   4.370 -0.9661  1.2134 -0.6854
15867TIP3    H269017   0.915   1.999   4.340 -0.2161  0.2474  0.9363
15868TIP3   OH269018   2.764   6.074  14.404  0.0251 -0.0906  0.9782
15868TIP3    H169019   2.834   6.014  14.431  0.7532  0.0742 -0.4253
15868TIP3    H269020   2.808   6.157  14.388 -0.9650  0.8391  2.8116
15869TIP3   OH269021   0.782   6.063  11.625 -0.2876  0.0664 -0.2632
15869TIP3    H169022   0.769   6.157  11.609  1.8813  0.8325  1.9162
15869TIP3    H269023   0.793   6.056  11.720 -0.4641 -2.4184 -0.3752
15870TIP3   OH269024   2.588   1.071   4.787  0.4881  0.1854  0.2286
15870TIP3    H169025   2.509   1.089   4.736  0.5864  1.6126  0.5359
15870TIP3    H269026   2.656   1.126   4.747  0.8343  0.4882  1.1924
15871TIP3   OH269027   5.719   1.971  10.957  0.1477 -0.3821 -0.4068
15871TIP3    H169028   5.663   2.002  11.028 -0.3502 -0.7189 -0.6474
15871TIP3    H269029   5.700   2.029  10.884  0.8634  0.1386 -0.1903
15872TIP3   OH269030   1.312   4.833  12.230 -0.3456 -0.2441  0.0389
15872TIP3    H169031   1.234   4.867  12.275  0.3332  2.0924 -0.3944
15872TIP3    H269032   1.381   4.841  12.296  0.4745  2.3674 -1.0319
15873TIP3   OH269033   1.674   1.158  14.047 -0.0820  0.3114  0.1991
15873TIP3    H169034   1.755   1.179  14.093  0.7561 -0.4490 -0.8590
15873TIP3    H269035   1.697   1.081  13.994 -2.2159 -1.5804  1.8553
15874TIP3   OH269036   0.885   1.333   1.271  0.1655 -0.1557 -0.1108
15874TIP3    H169037   0.918   1.370   1.188  2.3562  1.5950  1.4027
15874TIP3    H269038   0.821   1.398   1.302 -0.1965 -0.5027 -0.1246
15875TIP3   OH269039   2.182   0.217  12.041 -0.5067  0.2044 -0.6321
15875TIP3    H169040   2.119   0.272  11.994  2.3787  2.2429 -2.3838
15875TIP3    H269041   2.149   0.128  12.028 -3.3624  1.1699 -0.8297
15876TIP3   OH269042   1.981   4.125  13.143 -0.0429  0.4750 -0.5548
15876TIP3    H169043   1.894   4.114  13.104 -0.6442  1.2966  0.4843
15876TIP3    H269044   2.011   4.036  13.161  0.1702  0.0811 -2.6395
15877TIP3   OH269045   5.792   4.821   4.317 -0.1310 -0.1371 -0.7186
15877TIP3    H169046   5.708   4.791   4.350  0.2660 -1.3145 -0.7202
15877TIP3    H269047   5.774   4.855   4.230 -0.8629  1.1641 -0.0808
15878TIP3   OH269048   0.174   0.046  15.532  0.0373  0.3890  0.4678
15878TIP3    H169049   0.139   0.135  15.528 -0.9941 -0.0091  0.3106
15878TIP3    H269050   0.178   0.027  15.626 -0.8157  0.2095  0.4816
15879TIP3   OH269051   1.224   6.628   6.592  0.2366  0.3082  0.3909
15879TIP3    H169052   1.177   6.567   6.535  0.2997  0.8988 -0.3068
15879TIP3    H269053   1.314   6.596   6.593  0.0568 -0.1899  0.8431
15880TIP3   OH269054   1.441   4.694   4.795 -0.0423 -0.5351 -0.1050
15880TIP3    H169055   1.481   4.703   4.708  2.0319 -1.0898  0.7335
15880TIP3    H269056   1.472   4.609   4.827 -0.0518  0.0309  1.5056
15881TIP3   OH269057   4.356   5.650  13.270  0.1158  0.4925 -0.1837
15881TIP3    H169058   4.312   5.565  13.277  1.5264 -0.2719 -0.2247
15881TIP3    H269059   4.368   5.679  13.361 -0.4614  0.7118 -0.1736
15882TIP3   OH269060   2.522   5.057   1.041  0.6214 -0.2551 -0.3924
15882TIP3    H169061   2.593   5.045   0.978 -0.6998  2.0163 -2.5051
15882TIP3    H269062   2.448   5.087   0.988 -1.0985  0.1376  2.0597
15883TIP3   OH269063   2.766   2.878   3.387 -0.3524  0.3480  0.2620
15883TIP3    H169064   2.681   2.891   3.429  0.0815 -1.6396  1.9560
15883TIP3    H269065   2.769   2.784   3.368  1.2941  0.4447 -0.1621
15884TIP3   OH269066   6.280   1.295  12.757  0.7467 -0.2396  0.1911
15884TIP3    H169067   6.236   1.356  12.817  1.7961 -0.0936  0.8356
15884TIP3    H269068   6.292   1.216  12.809  0.0028 -0.7682 -0.4283
15885TIP3   OH269069   5.620   1.804  16.183  0.6009  0.1345  0.2354
15885TIP3    H169070   5.550   1.768  16.238 -0.2267  1.4215  0.0487
15885TIP3    H269071   5.687   1.832  16.245  1.2229 -1.5634  0.3938
15886TIP3   OH269072   6.361   0.245   4.358 -0.1601 -0.1800 -0.5054
15886TIP3    H169073   6.319   0.310   4.415  0.4369 -1.0374  0.9533
15886TIP3    H269074   6.436   0.291   4.320  0.3252 -0.0220  0.6066
15887TIP3   OH269075   1.985   0.767   4.947 -0.4328 -0.1144 -0.1054
15887TIP3    H169076   2.030   0.850   4.929 -0.8657 -0.1722 -1.6704
15887TIP3    H269077   1.981   0.761   5.042  0.4543  1.1987  0.0371
15888TIP3   OH269078   5.508   0.659  17.022 -0.4659  0.4859  0.6277
15888TIP3    H169079   5.592   0.668  17.067  0.4418 -0.4959 -0.7656
15888TIP3    H269080   5.532   0.625  16.935 -2.1998  1.4789 -0.2784
15889TIP3   OH269081   5.541   0.894  15.688 -0.3161  0.1810 -0.3725
15889TIP3    H169082   5.604   0.965  15.696 -0.3310  0.3405 -1.4382
15889TIP3    H269083   5.593   0.819  15.659 -0.3762 -0.1205  0.2791
15890TIP3   OH269084   1.675   4.342  16.908 -0.2786 -0.4631  0.4442
15890TIP3    H169085   1.639   4.263  16.868  0.1591 -0.2563 -0.3738
15890TIP3    H269086   1.728   4.310  16.981  0.0219 -0.9354  0.0232
15891TIP3   OH269087   4.243   4.414  15.061  0.3494 -0.1587  0.2606
15891TIP3    H169088   4.305   4.443  14.994 -0.1015 -0.2652 -0.2077
15891TIP3    H269089   4.196   4.341  15.020  0.9775 -1.1094  1.1538
15892TIP3   OH269090   5.764   5.362  16.688 -0.4063  0.3007 -0.2257
15892TIP3    H169091   5.799   5.283  16.729  0.5837  0.1564 -1.3058
15892TIP3    H269092   5.670   5.359  16.707  0.0119  0.3443  2.1638
15893TIP3   OH269093   2.424   0.747  16.133 -0.1355  0.0794  0.9220
15893TIP3    H169094   2.518   0.733  16.145 -0.4823 -4.1142  0.4008
15893TIP3    H269095   2.382   0.696  16.203 -2.1173  2.5094  1.6604
15894TIP3   OH269096   5.109   3.364  11.286  0.5567 -0.2552  0.0907
15894TIP3    H169097   5.150   3.424  11.224 -0.3268 -0.2512 -0.5122
15894TIP3    H269098   5.029   3.409  11.313  0.7741 -0.3977  1.0030
15895TIP3   OH269099   5.832   1.709  10.456  0.0011  0.4507  0.3118
15895TIP3    H169100   5.789   1.635  10.499  0.0885  1.0052  1.3842
15895TIP3    H269101   5.767   1.779  10.459  0.1863  0.6407 -0.0453
15896TIP3   OH269102   3.131   0.545   4.566  0.5107  0.0758 -0.6062
15896TIP3    H169103   3.051   0.575   4.523  0.3636 -0.9795 -1.0808
15896TIP3    H269104   3.100   0.498   4.644  0.7332  0.8452 -0.0309
15897TIP3   OH269105   3.884   2.030   6.136  0.1311  0.0413 -0.7415
15897TIP3    H169106   3.921   1.949   6.173  1.4019  0.6570 -0.6107
15897TIP3    H269107   3.833   2.001   6.060  1.1750 -0.8244 -1.1338
15898TIP3   OH269108   2.605   2.938  15.326 -0.4050  0.2434 -0.7389
15898TIP3    H169109   2.687   2.933  15.375 -0.3744  1.5989 -0.6057
15898TIP3    H269110   2.543   2.980  15.386 -1.4201 -1.3799 -0.5898
15899TIP3   OH269111   0.966   6.243   4.186 -0.3581  0.2011 -0.3274
15899TIP3    H169112   1.032   6.298   4.228 -0.9842  1.9021 -1.4698
15899TIP3    H269113   0.883   6.270   4.227 -0.5782 -0.5616 -0.2558
15900TIP3   OH269114   3.303   2.553  12.926 -0.1055  0.3281  0.5202
15900TIP3    H169115   3.348   2.470  12.912  1.5969  1.4377 -1.1543
15900TIP3    H269116   3.366   2.606  12.974 -1.3533  0.5500  1.9951
15901TIP3   OH269117   4.894   1.087   5.992 -0.1503 -0.1183  0.3734
15901TIP3    H169118   4.973   1.108   5.943 -1.3017  1.1402 -1.0428
15901TIP3    H269119   4.869   1.168   6.036 -0.3357 -0.6611  1.3108
15902TIP3   OH269120   4.500   6.360  14.541 -0.0174  0.4602  0.2391
15902TIP3    H169121   4.460   6.349  14.627 -1.2602  1.6921 -0.1354
15902TIP3    H269122   4.430   6.339  14.479 -0.4437  3.4580 -0.4435
15903TIP3   OH269123   6.278   2.885   5.242  0.5109 -0.1449 -0.0975
15903TIP3    H169124   6.309   2.814   5.186  1.5083  0.8744 -0.8791
15903TIP3    H269125   6.184   2.887   5.228  0.7597  0.2089 -1.9266
15904TIP3   OH269126   0.034   4.348  15.717  0.1254  0.2716  0.1395
15904TIP3    H169127   0.021   4.300  15.635 -0.5731  0.0422  0.3757
15904TIP3    H269128   0.110   4.404  15.700  0.7940 -0.7132 -0.2323
15905TIP3   OH269129   6.482   3.484  15.313 -0.3512 -0.3163 -0.0375
15905TIP3    H169130   6.510   3.528  15.232  0.8634 -0.3899  0.3237
15905TIP3    H269131   6.467   3.393  15.287 -0.5047 -0.2221 -0.2878
15906TIP3   OH269132   6.052   1.845   0.357  0.1078 -0.3322  0.4001
15906TIP3    H169133   6.086   1.879   0.440  1.0587 -0.6402  0.1540
15906TIP3    H269134   5.961   1.823   0.375  0.8456 -2.4241  2.0099
15907TIP3   OH269135   5.382   2.640   4.321  0.2682  0.2846  0.0784
15907TIP3    H169136   5.302   2.684   4.350 -0.3734 -0.4548 -0.5162
15907TIP3    H269137   5.436   2.633   4.400 -0.9144 -0.5778  0.8333
15908TIP3   OH269138   2.908   0.386  15.997  0.9280 -0.2992  0.2063
15908TIP3    H169139   2.838   0.328  16.028 -0.2108 -0.1558 -1.9107
15908TIP3    H269140   2.885   0.472  16.032  1.2267 -0.6335  1.2542
15909TIP3   OH269141   2.192   4.891  15.783  0.4948 -0.3131 -0.2910
15909TIP3    H169142   2.137   4.922  15.855  0.4260 -1.5001  0.2038
15909TIP3    H269143   2.218   4.970  15.736  0.0554  0.4376  0.6890
15910TIP3   OH269144   4.535   6.647   4.834  1.0956  0.4215  0.2517
15910TIP3    H169145   4.503   6.593   4.761 -0.5782  3.0535 -1.1024
15910TIP3    H269146   4.483   6.619   4.909  1.2188 -0.7422 -0.0772
15911TIP3   OH269147   1.860   1.300   2.349  0.5289 -0.1198  0.2181
15911TIP3    H169148   1.849   1.210   2.317  0.0112  0.3931 -1.0849
15911TIP3    H269149   1.933   1.335   2.298 -1.5056  1.3265 -1.8977
15912TIP3   OH269150   4.147   6.331   4.772 -1.2739 -0.3268 -0.0285
15912TIP3    H169151   4.202   6.390   4.721 -0.1213 -0.4076  1.0649
15912TIP3    H269152   4.111   6.270   4.708  0.3613 -0.6191 -0.7082
15913TIP3   OH269153   5.894   1.001  15.370 -0.3130 -0.8121  0.0382
15913TIP3    H169154   5.882   0.906  15.362  1.8696 -1.0950 -0.4488
15913TIP3    H269155   5.858   1.036  15.289 -1.2431 -1.1877  0.2702
15914TIP3   OH269156   5.320   1.529   6.042  0.2429 -0.4150  0.8956
15914TIP3    H169157   5.412   1.552   6.028 -0.5091  1.3252 -1.8052
15914TIP3    H269158   5.286   1.599   6.096  0.0643 -0.0133  0.2671
15915TIP3   OH269159   1.437   0.946   2.255  0.3565  0.5423  0.2212
15915TIP3    H169160   1.531   0.930   2.252  0.4900  1.2494  0.4386
15915TIP3    H269161   1.424   1.026   2.205 -0.2107  0.1268 -0.3072
15916TIP3   OH269162   0.377   0.452  13.801 -0.3604 -0.6871  0.5584
15916TIP3    H169163   0.383   0.359  13.825 -0.6670 -1.1101 -0.9266
15916TIP3    H269164   0.415   0.498  13.876  0.2129 -2.0299  1.1281
15917TIP3   OH269165   1.978   6.198  12.658 -0.2852  0.1483 -0.5648
15917TIP3    H169166   1.915   6.245  12.713  0.6686  0.5936  0.1926
15917TIP3    H269167   1.983   6.110  12.696  0.0814  0.3381 -0.1559
15918TIP3   OH269168   1.405   2.135   2.974  0.7274  0.2602 -0.3374
15918TIP3    H169169   1.391   2.170   3.062  0.6936  0.2631 -0.3440
15918TIP3    H269170   1.491   2.093   2.979 -1.3747 -4.5415  1.2511
15919TIP3   OH269171   1.236   1.229  17.220 -0.3602 -0.0029  0.5425
15919TIP3    H169172   1.147   1.263  17.231  0.0645  1.8601 -1.2369
15919TIP3    H269173   1.252   1.234  17.126  1.4163 -0.9435  0.7545
15920TIP3   OH269174   6.585   6.414  11.658 -0.0100 -0.7112 -0.2023
15920TIP3    H169175   6.503   6.434  11.614 -0.1731  1.4896  0.9534
15920TIP3    H269176   6.567   6.336  11.711 -0.7087 -1.4826 -1.5325
15921TIP3   OH269177   1.404   1.029  14.931 -0.6799 -0.1104 -0.0432
15921TIP3    H169178   1.361   1.065  15.008 -0.7495 -0.1846 -0.0471
15921TIP3    H269179   1.476   1.089  14.912 -1.2624  0.4452 -0.5096
15922TIP3   OH269180   5.651   4.039   2.970 -0.3289 -0.3584 -0.1868
15922TIP3    H169181   5.733   4.014   2.928 -0.6591 -0.9666 -0.4793
15922TIP3    H269182   5.613   4.103   2.911 -0.5975 -0.9108 -0.6215
15923TIP3   OH269183   1.574   3.429  13.122 -0.7621 -0.3743 -0.0868
15923TIP3    H169184   1.501   3.370  13.138 -0.2402 -0.8674  0.5601
15923TIP3    H269185   1.534   3.510  13.092 -1.4590 -1.3314 -1.8698
15924TIP3   OH269186   5.496   6.104   2.551  0.2861 -0.2112 -0.5405
15924TIP3    H169187   5.527   6.174   2.493 -0.1996  0.3529 -0.1252
15924TIP3    H269188   5.491   6.027   2.494 -0.9106  0.5029 -1.4453
15925TIP3   OH269189   0.514   2.892  13.816  0.3622  0.2667  0.3970
15925TIP3    H169190   0.579   2.955  13.786  1.6656 -2.2539 -2.5732
15925TIP3    H269191   0.441   2.903  13.755  0.3574 -0.6635  0.2287
15926TIP3   OH269192   4.877   6.533   2.664 -0.1151  0.3860  0.1942
15926TIP3    H169193   4.869   6.465   2.731  0.0228  1.0086  0.8608
15926TIP3    H269194   4.950   6.505   2.609  0.9861  0.7471  1.4041
15927TIP3   OH269195   3.155   3.088  11.236 -0.2704 -0.1039  0.4139
15927TIP3    H169196   3.102   3.008  11.241  1.6624 -1.5814 -1.0258
15927TIP3    H269197   3.245   3.057  11.242  0.5114  2.2033  1.6603
15928TIP3   OH269198   3.660   5.411  11.207 -0.1291  0.1126 -0.3391
15928TIP3    H169199   3.709   5.351  11.264  1.2738  2.4926  1.1589
15928TIP3    H269200   3.645   5.361  11.127  2.2434 -1.7560  0.2429
15929TIP3   OH269201   5.989   6.474   3.969 -0.5938  0.0562  0.4150
15929TIP3    H169202   6.050   6.517   3.909 -2.6544  2.2091 -0.3286
15929TIP3    H269203   6.042   6.411   4.018  1.6596 -0.0123 -1.9259
15930TIP3   OH269204   1.636   0.971   2.843  0.3989  0.0783 -0.4813
15930TIP3    H169205   1.588   0.889   2.825 -1.7977  0.7045  1.9926
15930TIP3    H269206   1.718   0.942   2.883 -0.2061 -0.9568  0.0665
15931TIP3   OH269207   3.546   3.639   6.412  0.1741 -0.8948 -0.1570
15931TIP3    H169208   3.642   3.635   6.416  0.5159  2.1518 -1.9863
15931TIP3    H269209   3.518   3.628   6.502  2.2196 -1.6952  0.4575
15932TIP3   OH269210   3.421   2.781   4.050  0.6978 -0.0975 -0.3021
15932TIP3    H169211   3.510   2.801   4.019  0.4498  2.2652  0.3053
15932TIP3    H269212   3.413   2.829   4.132 -0.5200 -1.8376  0.6519
15933TIP3   OH269213   1.189   0.861  10.557 -0.1856 -1.0190  0.5096
15933TIP3    H169214   1.113   0.844  10.501 -0.4740  0.1044  0.5446
15933TIP3    H269215   1.193   0.956  10.564  1.0882 -1.0763  0.7116
15934TIP3   OH269216   2.845   0.852   3.011 -0.7462  0.0744  0.1979
15934TIP3    H169217   2.850   0.942   2.978  0.7198 -0.5047 -1.3451
15934TIP3    H269218   2.760   0.820   2.984 -0.5956  0.4694 -0.7670
15935TIP3   OH269219   3.638   4.968  13.582 -0.0666 -0.0099  0.2578
15935TIP3    H169220   3.715   5.023  13.594 -0.4445  0.5147  0.2880
15935TIP3    H269221   3.671   4.891  13.534  0.3832  0.4146 -0.1234
15936TIP3   OH269222   3.575   5.148  16.215 -0.1365  0.4862  0.6524
15936TIP3    H169223   3.606   5.105  16.295  2.0553  1.4796  0.4097
15936TIP3    H269224   3.607   5.092  16.144 -0.0710  0.8105  0.4234
15937TIP3   OH269225   6.479   4.831  17.061  0.2710  0.1925  0.0741
15937TIP3    H169226   6.509   4.906  17.113 -0.6736  0.4015  0.3349
15937TIP3    H269227   6.560   4.793  17.024  0.9881 -0.1109  1.8741
15938TIP3   OH269228   4.649   2.875   1.716 -0.1932  0.6903 -0.1761
15938TIP3    H169229   4.707   2.807   1.680  1.2151  2.0082 -0.5427
15938TIP3    H269230   4.607   2.913   1.639  0.5393  1.5212 -0.1856
15939TIP3   OH269231   6.622   6.491  12.193  0.0594  0.3400 -0.4147
15939TIP3    H169232   6.684   6.563  12.186  1.5696 -0.8702 -0.2209
15939TIP3    H269233   6.539   6.531  12.219  0.7873  2.0017 -0.5769
15940TIP3   OH269234   3.526   3.111   3.408 -0.3962  0.1893 -0.7412
15940TIP3    H169235   3.563   3.029   3.375 -0.7740 -0.0097 -0.6737
15940TIP3    H269236   3.592   3.145   3.469  0.5088  0.7754 -1.9989
15941TIP3   OH269237   0.676   2.235   4.688  0.5556  0.5121  0.2899
15941TIP3    H169238   0.760   2.271   4.718  0.8439  1.1772 -1.2267
15941TIP3    H269239   0.628   2.312   4.656 -0.2372 -0.0079  0.2096
15942TIP3   OH269240   4.108   1.480   2.314  0.3023 -0.0724  0.3641
15942TIP3    H169241   4.073   1.484   2.225  1.2257 -0.5508 -0.0426
15942TIP3    H269242   4.170   1.554   2.318 -0.5103  0.5932  0.9756
15943TIP3   OH269243   1.152   3.891   1.101  0.7164  0.0620 -0.2520
15943TIP3    H169244   1.062   3.904   1.132  0.1006  1.5161 -2.4312
15943TIP3    H269245   1.204   3.955   1.149  0.2160  0.6394 -0.4732
15944TIP3   OH269246   5.575   5.874   3.697  0.2206 -0.1110  0.6573
15944TIP3    H169247   5.650   5.920   3.735  1.0914  0.5308 -1.6705
15944TIP3    H269248   5.608   5.841   3.614 -0.8984 -3.4505  1.3856
15945TIP3   OH269249   6.540   3.311   3.973 -0.2258  0.3354  0.0992
15945TIP3    H169250   6.582   3.284   3.891 -0.8547 -1.0674  0.2108
15945TIP3    H269251   6.496   3.232   4.005 -1.9206  1.4439  0.6233
15946TIP3   OH269252   4.037   2.349   1.134  0.2131 -0.2981  0.1262
15946TIP3    H169253   3.979   2.350   1.210  1.4040  1.6868  1.0822
15946TIP3    H269254   4.115   2.302   1.165  0.4905  0.0544 -0.0407
15947TIP3   OH269255   3.943   4.765  16.393  0.1460 -0.3087 -0.0663
15947TIP3    H169256   3.906   4.793  16.310 -1.1356 -0.7325  0.3445
15947TIP3    H269257   3.980   4.679  16.375  2.0537  0.6028 -0.7646
15948TIP3   OH269258   6.011   1.443  11.626 -0.2610 -0.1929 -0.3035
15948TIP3    H169259   5.986   1.487  11.545 -1.8345  2.5785  1.5182
15948TIP3    H269260   5.930   1.439  11.676  1.2328  1.2972  2.4497
15949TIP3   OH269261   3.478   4.071  16.676  0.4197  0.3960 -0.1115
15949TIP3    H169262   3.393   4.101  16.709  1.6647  2.1503  1.7021
15949TIP3    H269263   3.527   4.046  16.755  2.5983  2.2462 -0.7707
15950TIP3   OH269264   0.376   3.792  13.723 -0.3126  0.1615 -0.2038
15950TIP3    H169265   0.436   3.718  13.718  1.4307  1.4250  0.7888
15950TIP3    H269266   0.406   3.842  13.799 -2.1746  1.2683 -0.1258
15951TIP3   OH269267   4.100   0.662  17.116 -0.5539  0.0936 -0.1070
15951TIP3    H169268   4.071   0.574  17.141 -3.9171  0.7783 -1.1194
15951TIP3    H269269   4.111   0.708  17.199  0.2922 -0.9594  0.3972
15952TIP3   OH269270   1.234   3.071  16.093 -0.2288 -0.0737 -0.0551
15952TIP3    H169271   1.292   3.117  16.153 -1.9173 -1.0412  2.4653
15952TIP3    H269272   1.285   2.997  16.062  0.4681  0.1022  0.6620
15953TIP3   OH269273   1.764   6.626  16.953 -0.2655  0.3282 -0.1695
15953TIP3    H169274   1.671   6.601  16.957 -0.5007  1.2108  0.3090
15953TIP3    H269275   1.774   6.668  16.868 -0.6509  1.4414  0.3077
15954TIP3   OH269276   3.278   5.640   4.366  0.2338 -0.4114 -0.6875
15954TIP3    H169277   3.216   5.676   4.429 -0.0627 -0.2559 -1.0626
15954TIP3    H269278   3.359   5.628   4.416 -0.0325 -0.4119 -0.2475
15955TIP3   OH269279   5.718   4.415   3.013 -0.5214  0.0816 -0.5023
15955TIP3    H169280   5.646   4.397   2.952 -2.7408 -0.2222  2.0284
15955TIP3    H269281   5.691   4.375   3.095  2.0391  1.0088  0.9268
15956TIP3   OH269282   6.573   5.654  14.728 -0.2899  0.3046 -0.0264
15956TIP3    H169283   6.651   5.675  14.676 -0.5241  1.2546  0.0032
15956TIP3    H269284   6.549   5.565  14.699  1.3918 -0.4384  0.6964
15957TIP3   OH269285   3.757   1.318  11.587  0.0340  0.4252 -0.6231
15957TIP3    H169286   3.798   1.405  11.588  0.6728  0.1349  0.5738
15957TIP3    H269287   3.725   1.306  11.676 -2.8708  0.6888 -1.5352
15958TIP3   OH269288   4.628   1.926   0.142  0.2527 -0.8739 -0.3277
15958TIP3    H169289   4.592   1.845   0.106  2.2159 -1.1371 -1.8815
15958TIP3    H269290   4.663   1.972   0.065  0.2252  0.8956  0.6772
15959TIP3   OH269291   2.585   0.316   0.977  0.2371  0.5647  0.1529
15959TIP3    H169292   2.613   0.242   0.924  1.6416  0.2255  1.2827
15959TIP3    H269293   2.492   0.328   0.957  0.3706 -0.5233 -1.1732
15960TIP3   OH269294   3.672   5.509  13.910 -0.0602  0.2443 -0.3129
15960TIP3    H169295   3.634   5.595  13.891  1.6706  1.1540  0.1182
15960TIP3    H269296   3.597   5.451  13.917 -1.2437  1.5492 -1.4055
15961TIP3   OH269297   0.526   2.885   5.661  0.0414 -0.5004 -0.2972
15961TIP3    H169298   0.583   2.913   5.732 -0.9662 -0.0594  0.3639
15961TIP3    H269299   0.557   2.797   5.638  1.9863  0.3409 -1.0569
15962TIP3   OH269300   4.870   5.217  14.023 -0.3363  0.0539  0.6496
15962TIP3    H169301   4.952   5.258  13.996  1.3090 -1.7168  2.6571
15962TIP3    H269302   4.810   5.233  13.950  2.1987  0.1230 -1.5628
15963TIP3   OH269303   0.723   0.953  12.127  0.3647 -0.3930  0.1007
15963TIP3    H169304   0.808   0.998  12.129 -1.4541  3.3986  0.0904
15963TIP3    H269305   0.712   0.928  12.036  0.9119  0.3186 -0.1720
15964TIP3   OH269306   5.104   4.151  14.886  0.0687  0.0941  0.7987
15964TIP3    H169307   5.014   4.134  14.858  0.1752 -0.2630  0.6563
15964TIP3    H269308   5.124   4.237  14.850 -0.1711  0.1147  0.7096
15965TIP3   OH269309   6.742   2.352  12.073 -0.0992  0.3562  0.0683
15965TIP3    H169310   6.699   2.268  12.057 -1.0451  0.9084 -0.3601
15965TIP3    H269311   6.785   2.340  12.158  0.6261 -0.8810 -0.4405
15966TIP3   OH269312   5.309   6.707  16.302 -0.4067 -0.4534  0.2698
15966TIP3    H169313   5.375   6.774  16.281  1.4440 -2.2927 -0.1211
15966TIP3    H269314   5.257   6.699  16.222  0.2089 -0.3994 -0.1453
15967TIP3   OH269315   5.267   3.482   5.230  0.6540 -0.0721  0.1288
15967TIP3    H169316   5.291   3.395   5.198  0.8177  0.1177 -0.2665
15967TIP3    H269317   5.350   3.526   5.246  0.6346 -0.8652  2.8287
15968TIP3   OH269318   1.745   1.635   1.046 -0.5440  0.2665  0.2474
15968TIP3    H169319   1.828   1.658   1.004 -1.2242  0.1956 -1.1577
15968TIP3    H269320   1.770   1.572   1.114  0.6192  0.6927  0.2430
15969TIP3   OH269321   2.781   4.999   4.635  0.5115 -0.1323 -0.4453
15969TIP3    H169322   2.825   5.062   4.578 -0.4049  1.9254  0.9687
15969TIP3    H269323   2.849   4.939   4.664  1.5511  0.5677 -1.3875
15970TIP3   OH269324   4.622   2.847   1.400  0.0492  0.8530 -0.1838
15970TIP3    H169325   4.717   2.859   1.396  0.2400 -0.7836 -2.0385
15970TIP3    H269326   4.609   2.753   1.388 -1.8603  1.2831 -2.1246
15971TIP3   OH269327   5.951   6.650  13.044 -0.4665  0.3529 -0.1252
15971TIP3    H169328   6.029   6.688  13.005  0.1001 -0.4574  0.1862
15971TIP3    H269329   5.984   6.580  13.101 -1.4767 -0.8979 -1.0143
15972TIP3   OH269330   0.750   6.240  14.101  0.4948  0.3205  0.9457
15972TIP3    H169331   0.830   6.197  14.071 -0.0146  0.3407 -0.5309
15972TIP3    H269332   0.781   6.308  14.161  1.7028  1.1139 -0.4960
15973TIP3   OH269333   0.683   1.691   1.104  0.2024  0.2786  0.3855
15973TIP3    H169334   0.731   1.758   1.154  0.1228  0.9122 -0.3625
15973TIP3    H269335   0.656   1.736   1.024 -1.1887 -0.2106  0.5464
15974TIP3   OH269336   2.609   2.950   3.754  0.4974 -0.0104 -0.1487
15974TIP3    H169337   2.686   2.970   3.807  1.3683  2.5076 -2.1875
15974TIP3    H269338   2.571   2.872   3.796  1.4401  1.3814  3.7226
15975TIP3   OH269339   4.525   4.091   5.876 -0.0400  0.0080  0.0817
15975TIP3    H169340   4.506   4.026   5.944 -0.1075 -0.2708 -0.2051
15975TIP3    H269341   4.604   4.059   5.833  0.4957  0.6235  0.5793
15976TIP3   OH269342   1.267   3.297  13.113  0.2067  0.0147 -0.2107
15976TIP3    H169343   1.208   3.362  13.152  1.4794  0.9999  0.1468
15976TIP3    H269344   1.213   3.219  13.100 -1.2695  1.0302 -0.3137
15977TIP3   OH269345   0.161   0.292   5.240  0.1137 -0.3163 -0.2686
15977TIP3    H169346   0.202   0.378   5.249  2.8599 -1.3797 -1.2430
15977TIP3    H269347   0.094   0.304   5.173 -1.3699  1.5519  1.4351
15978TIP3   OH269348   4.224   1.321  14.054  0.0249 -0.4334 -0.0682
15978TIP3    H169349   4.170   1.294  13.979 -1.4442  0.7761  0.5051
15978TIP3    H269350   4.260   1.239  14.089 -0.3597 -1.1364 -1.2725
15979TIP3   OH269351   3.892   1.436   0.091  0.2911  0.6752 -0.1439
15979TIP3    H169352   3.832   1.485   0.147 -0.3803  0.3093 -0.5383
15979TIP3    H269353   3.842   1.359   0.063  1.1414  0.0428  0.0157
15980TIP3   OH269354   6.525   4.525  11.029 -0.2230  0.2344 -0.4638
15980TIP3    H169355   6.509   4.619  11.034  0.7913  0.4589 -1.1878
15980TIP3    H269356   6.610   4.513  11.070 -0.5338 -0.4438  0.0128
15981TIP3   OH269357   2.747   5.575  15.586  0.0495  0.0568  0.2183
15981TIP3    H169358   2.812   5.506  15.603 -0.5059 -0.5466 -0.0648
15981TIP3    H269359   2.785   5.653  15.625  0.9192 -0.3033  0.1260
15982TIP3   OH269360   6.357   4.006   5.791  0.2475  0.9591  0.0191
15982TIP3    H169361   6.359   3.950   5.869 -0.9394  1.4582  0.4407
15982TIP3    H269362   6.426   4.070   5.805  1.0930  0.0930 -0.0945
15983TIP3   OH269363   6.583   6.241  12.749  1.0251 -0.4609 -0.0649
15983TIP3    H169364   6.644   6.187  12.800  0.8201 -0.4777  0.1593
15983TIP3    H269365   6.632   6.321  12.731  0.7341 -0.0191  1.0482
15984TIP3   OH269366   2.861   0.574  14.666  0.6092  0.3258 -0.2362
15984TIP3    H169367   2.794   0.539  14.725  0.2651  2.1823  0.5361
15984TIP3    H269368   2.882   0.501  14.608 -0.8455 -0.8117  0.5979
15985TIP3   OH269369   4.782   0.580  16.851 -0.4615 -0.0663 -0.0538
15985TIP3    H169370   4.805   0.561  16.942 -0.2733 -0.5300 -0.1948
15985TIP3    H269371   4.848   0.534  16.800 -2.0792 -2.0212 -0.4840
15986TIP3   OH269372   0.404   5.120   0.493  0.1613  0.0473  0.1295
15986TIP3    H169373   0.346   5.181   0.448 -1.4711 -1.6932 -0.2425
15986TIP3    H269374   0.453   5.077   0.423  1.8935  1.4125  0.4336
15987TIP3   OH269375   5.032   0.780   4.276 -0.0143 -0.5269 -0.0620
15987TIP3    H169376   5.088   0.769   4.199  0.0754  0.0759 -0.0865
15987TIP3    H269377   5.058   0.865   4.313  0.4612 -1.1435  1.0630
15988TIP3   OH269378   3.761   2.189  13.864 -0.1952  0.5799 -0.1811
15988TIP3    H169379   3.833   2.249  13.846  1.0850 -0.9844 -0.4947
15988TIP3    H269380   3.789   2.140  13.941 -1.1802  0.3443  0.0368
15989TIP3   OH269381   3.673   1.712   3.308 -0.2196 -0.4563 -0.2066
15989TIP3    H169382   3.754   1.707   3.258 -1.2295  2.1346 -2.2910
15989TIP3    H269383   3.619   1.640   3.274 -0.1658  0.0952 -1.4779
15990TIP3   OH269384   0.446   3.277  12.237 -0.2331  0.2957  0.7271
15990TIP3    H169385   0.517   3.214  12.247  0.5953  0.6552 -2.0144
15990TIP3    H269386   0.434   3.285  12.142 -2.5363  1.8204  1.0655
15991TIP3   OH269387   4.011   2.867  12.120  0.2356  0.2156  0.5927
15991TIP3    H169388   4.019   2.803  12.050 -0.9770  0.0793  0.5607
15991TIP3    H269389   4.101   2.894  12.138  0.6308 -0.3662 -0.4319
15992TIP3   OH269390   3.649   0.148  14.592 -0.3116  0.4941  0.0074
15992TIP3    H169391   3.640   0.186  14.680 -0.7969  0.1195  0.1251
15992TIP3    H269392   3.609   0.212  14.534 -0.2831  0.5951  0.0991
15993TIP3   OH269393   2.467   5.916  13.118  0.5649  0.4954  0.0433
15993TIP3    H169394   2.434   5.952  13.036 -0.2067  0.3019  0.2692
15993TIP3    H269395   2.406   5.846  13.140  1.0395  0.2324  0.5408
15994TIP3   OH269396   6.217   1.478  12.009  0.2772 -0.0232  0.1890
15994TIP3    H169397   6.212   1.383  12.021 -0.8356  0.0799  0.7066
15994TIP3    H269398   6.245   1.511  12.095  2.4907  0.0188 -0.4858
15995TIP3   OH269399   0.871   6.547  15.187  0.0601  0.2198  0.1007
15995TIP3    H169400   0.889   6.490  15.262  0.4418 -0.1772 -0.2894
15995TIP3    H269401   0.941   6.529  15.125  0.3069  1.2776  0.0506
15996TIP3   OH269402   0.357   0.506   5.834  0.3726 -0.1271 -0.5776
15996TIP3    H169403   0.297   0.573   5.868 -1.7173 -2.0387 -0.2834
15996TIP3    H269404   0.323   0.487   5.746  0.3192 -1.5101 -0.2666
15997TIP3   OH269405   5.365   5.159  13.501 -0.3828  0.1205  0.0368
15997TIP3    H169406   5.357   5.210  13.421 -1.4685 -0.5722 -0.3139
15997TIP3    H269407   5.446   5.108  13.489 -1.4676 -1.3391 -1.4431
15998TIP3   OH269408   0.910   1.215   0.694 -0.3215  0.3085  1.1581
15998TIP3    H169409   0.968   1.190   0.621 -1.5743 -1.8242  0.8229
15998TIP3    H269410   0.936   1.305   0.714  1.3581  0.3167 -0.6587
15999TIP3   OH269411   6.618   2.224   3.674 -0.1394 -0.4422 -0.3102
15999TIP3    H169412   6.685   2.156   3.667  1.0132  0.7400 -1.1168
15999TIP3    H269413   6.624   2.255   3.764  0.1836 -0.5535 -0.2918
16000TIP3   OH269414   0.389   4.240  12.331  0.5301  0.1526 -0.3670
16000TIP3    H169415   0.313   4.254  12.274  0.1785 -0.1968  0.0082
16000TIP3    H269416   0.450   4.191  12.277  0.2569 -0.0503 -0.4985
16001TIP3   OH269417   2.567   3.115   5.212 -0.5780  0.3411  0.0882
16001TIP3    H169418   2.621   3.091   5.136 -0.0222  0.0687  0.5677
16001TIP3    H269419   2.571   3.210   5.215  0.5433  0.2900  0.5979
16002TIP3   OH269420   0.298   5.146  15.793 -0.4213 -0.2507  0.3533
16002TIP3    H169421   0.284   5.085  15.865 -0.8903 -0.3694  0.1672
16002TIP3    H269422   0.240   5.220  15.813 -1.0263 -0.5565 -0.2107
16003TIP3   OH269423   1.075   0.721   1.778  0.0512 -0.6107 -0.1672
16003TIP3    H169424   1.100   0.685   1.693  0.6641 -1.8240  0.5092
16003TIP3    H269425   1.112   0.661   1.842 -1.5774 -0.4827  0.9547
16004TIP3   OH269426   1.284   2.284   0.297  0.0195 -0.3619  0.0640
16004TIP3    H169427   1.286   2.254   0.206 -0.5413 -0.7438  0.1729
16004TIP3    H269428   1.364   2.335   0.308  1.0220 -1.8613 -0.1230
16005TIP3   OH269429   4.054   4.780   1.446  0.1321 -0.7073 -0.3791
16005TIP3    H169430   3.989   4.834   1.401  1.1204 -0.5223 -1.6369
16005TIP3    H269431   4.112   4.749   1.377  1.0663 -1.3234  0.6410
16006TIP3   OH269432   0.886   2.666   2.790 -0.1468 -0.2071  0.8936
16006TIP3    H169433   0.908   2.677   2.697 -0.0861  1.7551  1.1104
16006TIP3    H269434   0.958   2.615   2.826  1.4800  1.7339  0.5134
16007TIP3   OH269435   4.943   3.552   4.233  0.2702 -0.5290 -0.2481
16007TIP3    H169436   4.893   3.543   4.315  1.6454 -2.4506  0.4646
16007TIP3    H269437   4.939   3.465   4.193 -0.6995  0.4704 -2.5036
16008TIP3   OH269438   5.624   6.693   3.462 -0.2273 -0.3378  0.1496
16008TIP3    H169439   5.643   6.624   3.525  0.4731 -0.0325  0.2828
16008TIP3    H269440   5.709   6.719   3.429 -0.4395  0.7792  0.4434
16009TIP3   OH269441   3.191   3.897  14.465  0.5585 -0.7631 -0.4897
16009TIP3    H169442   3.198   3.802  14.457 -1.5360 -0.9780 -0.2708
16009TIP3    H269443   3.101   3.912  14.494  1.4557  1.1738  1.6114
16010TIP3   OH269444   6.447   1.466   3.326  0.1951  0.6619 -0.0669
16010TIP3    H169445   6.412   1.456   3.237  0.1860 -1.7075  0.1414
16010TIP3    H269446   6.391   1.410   3.379  0.4635  1.7296  1.3947
16011TIP3   OH269447   2.521   6.473  11.311  0.3535 -0.4755 -0.4869
16011TIP3    H169448   2.468   6.497  11.235  0.9381  1.4001 -0.3456
16011TIP3    H269449   2.459   6.472  11.384  0.3196  0.7472 -0.4849
16012TIP3   OH269450   6.386   6.188  14.969  0.2485 -0.4412 -0.0203
16012TIP3    H169451   6.434   6.105  14.974 -0.7292 -1.1321 -1.3386
16012TIP3    H269452   6.448   6.249  14.928  0.9940 -0.4827  1.0116
16013TIP3   OH269453   2.082   0.830  12.050 -0.0245  0.3342 -0.5540
16013TIP3    H169454   2.154   0.805  12.109 -0.6675  0.2705  0.2285
16013TIP3    H269455   2.100   0.922  12.029  0.9927 -0.0481 -1.4328
16014TIP3   OH269456   5.935   3.495   3.330 -0.5299  0.5812  0.1271
16014TIP3    H169457   5.882   3.437   3.275 -1.0821 -0.2210  1.4632
16014TIP3    H269458   5.880   3.513   3.406  0.9934 -0.0575  1.4321
16015TIP3   OH269459   3.825   6.571   4.924 -0.2474 -0.4055  0.3629
16015TIP3    H169460   3.862   6.659   4.919 -1.6922  0.1457 -1.4205
16015TIP3    H269461   3.842   6.532   4.838 -0.9596 -1.3030  0.6097
16016TIP3   OH269462   4.464   2.883  16.941  0.6477  0.5031  0.4046
16016TIP3    H169463   4.428   2.841  16.863 -0.2721  1.5040  0.2623
16016TIP3    H269464   4.392   2.938  16.974  1.0037  0.0725  1.9836
16017TIP3   OH269465   5.740   5.677  16.753 -0.1734 -0.5958 -0.3531
16017TIP3    H169466   5.790   5.598  16.730 -0.3000 -0.2719 -1.8204
16017TIP3    H269467   5.768   5.742  16.689 -1.2455  0.0812 -0.1437
16018TIP3   OH269468   2.094   0.665  13.550  0.4941  0.4570  0.2326
16018TIP3    H169469   2.137   0.624  13.475 -0.4299 -0.6333  0.2627
16018TIP3    H269470   2.165   0.688  13.610  1.2327  1.2505 -0.9228
16019TIP3   OH269471   0.559   6.613  12.018 -0.1300 -1.1011  0.3892
16019TIP3    H169472   0.513   6.696  12.005  1.9305 -0.2992 -2.8397
16019TIP3    H269473   0.650   6.639  12.032  0.6259 -2.7866 -1.1061
16020TIP3   OH269474   5.046   0.882   0.879  0.7069  0.3102 -0.1176
16020TIP3    H169475   5.115   0.844   0.824 -0.3749 -1.0648 -0.5682
16020TIP3    H269476   5.034   0.971   0.845  1.5721  0.2252 -0.6637
16021TIP3   OH269477   6.378   1.639  15.827  0.7161  0.4458 -0.3077
16021TIP3    H169478   6.308   1.702  15.813 -0.1443 -0.4197 -0.0073
16021TIP3    H269479   6.400   1.648  15.920 -1.9267 -2.1349  0.7201
16022TIP3   OH269480   4.977   6.140  16.912  0.2220  0.2011  0.7249
16022TIP3    H169481   4.939   6.155  16.825  1.4528 -3.8293 -0.7902
16022TIP3    H269482   4.902   6.132  16.970 -0.7205  1.3801 -0.2676
16023TIP3   OH269483   2.541   0.914   0.922 -0.4418  0.5381  0.2652
16023TIP3    H169484   2.536   0.872   1.008 -1.3726 -0.6588 -0.3301
16023TIP3    H269485   2.533   0.841   0.860  2.3981  1.0782 -0.9027
16024TIP3   OH269486   1.232   2.672  15.215 -0.0832 -0.5182 -0.6178
16024TIP3    H169487   1.197   2.613  15.147 -1.4349 -0.5825  0.1009
16024TIP3    H269488   1.176   2.750  15.210 -0.0670 -0.4398  0.2749
16025TIP3   OH269489   3.558   4.468   4.931  0.2418 -0.1083 -0.0230
16025TIP3    H169490   3.547   4.562   4.941  5.0749  0.5609  1.7426
16025TIP3    H269491   3.554   4.453   4.837  0.4164  2.0457 -0.4166
16026TIP3   OH269492   1.366   5.569   4.182  0.5853  0.1700 -0.8107
16026TIP3    H169493   1.457   5.542   4.194  0.2196 -1.7553 -2.0067
16026TIP3    H269494   1.364   5.607   4.095  0.5204  1.6743 -0.1845
16027TIP3   OH269495   3.924   3.891  14.085  0.2758  0.6744  0.3181
16027TIP3    H169496   3.937   3.972  14.134  1.5744  0.4512  0.3956
16027TIP3    H269497   4.011   3.850  14.084  0.1011  0.2768 -1.4477
16028TIP3   OH269498   4.665   6.764  12.240  0.2876 -0.3818 -0.2021
16028TIP3    H169499   4.690   6.792  12.328  0.2740 -0.4001 -0.1924
16028TIP3    H269500   4.689   6.837  12.183  1.3994 -0.8388 -0.3482
16029TIP3   OH269501   2.335   5.470   2.807  0.2107  0.2217 -0.3700
16029TIP3    H169502   2.292   5.545   2.849 -0.7433 -0.2824 -0.4225
16029TIP3    H269503   2.352   5.498   2.717  3.4960  1.8238  0.5608
16030TIP3   OH269504   0.244   5.467  11.846 -0.1951  0.1053 -0.2214
16030TIP3    H169505   0.197   5.472  11.929  1.4359  0.3581  0.7450
16030TIP3    H269506   0.294   5.549  11.842 -0.9533  0.5350 -1.9281
16031TIP3   OH269507   4.423   2.381  16.892  0.0690 -0.4514  0.2108
16031TIP3    H169508   4.479   2.313  16.856  1.5495  0.2222  1.1353
16031TIP3    H269509   4.389   2.344  16.974 -4.1218 -2.3909 -2.0688
16032TIP3   OH269510   3.264   2.378  14.343 -0.4380 -0.0151 -0.3781
16032TIP3    H169511   3.240   2.287  14.363  0.2645  0.2354  1.9789
16032TIP3    H269512   3.359   2.377  14.335 -0.4398  0.4711 -0.5066
16033TIP3   OH269513   4.142   4.906  15.692  0.1873 -0.5500 -0.2894
16033TIP3    H169514   4.202   4.836  15.668  1.1271  0.6366 -1.5867
16033TIP3    H269515   4.197   4.984  15.696 -0.9876  0.2827  0.2020
16034TIP3   OH269516   4.737   1.718   2.493  0.0555  0.2358 -0.2987
16034TIP3    H169517   4.665   1.780   2.484  0.1160  0.2470 -0.7103
16034TIP3    H269518   4.776   1.739   2.578  0.0291  0.7149 -0.4022
16035TIP3   OH269519   1.954   3.742  14.520  0.2292 -0.1432 -0.0485
16035TIP3    H169520   2.044   3.712  14.508  0.3263  0.6907 -1.7114
16035TIP3    H269521   1.908   3.713  14.442 -0.5402  0.8640  0.0022
16036TIP3   OH269522   6.139   2.167   0.311  0.8394 -0.0106 -0.8111
16036TIP3    H169523   6.195   2.117   0.370 -0.2014  0.3061  0.5076
16036TIP3    H269524   6.118   2.247   0.361  0.1307  0.3841 -1.7170
16037TIP3   OH269525   4.276   1.109  15.422 -0.1473 -0.0172 -0.2748
16037TIP3    H169526   4.266   1.116  15.517  0.9299 -0.0252 -0.1527
16037TIP3    H269527   4.189   1.131  15.387 -0.7826 -0.8750  0.7375
16038TIP3   OH269528   0.052   6.646  11.072  0.0707 -0.5159 -0.5976
16038TIP3    H169529   0.124   6.709  11.073 -0.5122  0.1661  0.9727
16038TIP3    H269530  -0.014   6.686  11.015 -0.5824  0.6572  0.9394
16039TIP3   OH269531   2.264   4.301   5.305  0.1553 -0.0929  0.1916
16039TIP3    H169532   2.194   4.363   5.323 -0.7590 -1.2142  0.6829
16039TIP3    H269533   2.339   4.334   5.355  0.2059  1.4927 -0.8846
16040TIP3   OH269534   4.415   2.009  12.497 -0.3719  0.4298 -0.3742
16040TIP3    H169535   4.451   1.939  12.551 -1.0563 -0.2499 -0.7711
16040TIP3    H269536   4.461   2.088  12.525  0.3933 -0.1748  0.0984
16041TIP3   OH269537   5.242   1.126  15.440 -0.2553 -0.1824 -0.5853
16041TIP3    H169538   5.248   1.157  15.530 -0.3831 -0.1515 -0.5871
16041TIP3    H269539   5.242   1.206  15.387 -2.5887 -0.0693 -0.4906
16042TIP3   OH269540   6.770   6.475  16.278  0.2065  0.6219  0.0129
16042TIP3    H169541   6.718   6.532  16.221 -0.3836 -0.6015 -0.7177
16042TIP3    H269542   6.843   6.446  16.223 -0.1080 -0.1908  0.0085
16043TIP3   OH269543   0.361   5.992   4.752  0.1161 -0.1008 -0.0748
16043TIP3    H169544   0.315   5.910   4.768  1.3475 -0.8560 -0.3019
16043TIP3    H269545   0.406   6.012   4.833  0.8576 -0.3282 -0.4283
16044TIP3   OH269546   1.991   6.503   2.923  0.2335  0.1811  0.3223
16044TIP3    H169547   1.906   6.460   2.933 -0.3943  1.4169  0.5195
16044TIP3    H269548   2.049   6.454   2.981 -0.0404 -1.4069 -0.6952
16045TIP3   OH269549   6.531   6.252  16.048  0.2626  0.0532 -0.2030
16045TIP3    H169550   6.595   6.181  16.041  0.8746  0.5713 -0.0078
16045TIP3    H269551   6.504   6.252  16.140 -0.6339 -0.6740 -0.4468
16046TIP3   OH269552   5.718   1.529  11.661  0.1597  0.1304  0.0889
16046TIP3    H169553   5.716   1.621  11.688 -1.7787 -0.1060  0.9086
16046TIP3    H269554   5.696   1.480  11.741 -0.7907 -0.9017 -0.7698
16047TIP3   OH269555   4.098   4.895   2.570  0.7105 -0.8231  0.4834
16047TIP3    H169556   4.039   4.913   2.643  0.7084 -0.7556  0.4650
16047TIP3    H269557   4.104   4.799   2.567 -0.1730 -0.8667 -0.1338
16048TIP3   OH269558   1.050   0.703   2.924  0.2063 -0.6359 -0.0933
16048TIP3    H169559   0.999   0.631   2.887  0.2380 -0.0655 -1.2798
16048TIP3    H269560   0.986   0.772   2.942 -0.0058 -1.2965  2.0870
16049TIP3   OH269561   5.456   3.446   0.562  0.4478  0.4104 -0.0388
16049TIP3    H169562   5.460   3.397   0.644  0.1348 -0.6848 -0.6531
16049TIP3    H269563   5.528   3.411   0.509  0.5414  0.9790 -0.3024
16050TIP3   OH269564   5.700   2.259   1.345  0.3571 -0.2168 -0.1414
16050TIP3    H169565   5.670   2.350   1.340 -0.3939 -0.5135 -2.0722
16050TIP3    H269566   5.628   2.212   1.387  0.2338 -0.1127 -0.2352
16051TIP3   OH269567   0.310   0.810   2.216  0.2621 -0.4765 -0.1644
16051TIP3    H169568   0.244   0.749   2.182  0.2651 -0.4187 -0.2730
16051TIP3    H269569   0.389   0.790   2.167 -0.0860  0.5557 -1.2089
16052TIP3   OH269570   2.331   1.265  14.824  0.4883 -0.1831  0.0254
16052TIP3    H169571   2.340   1.331  14.754  0.2991 -2.1574 -1.9655
16052TIP3    H269572   2.388   1.193  14.796 -0.4978 -1.5199  1.3280
16053TIP3   OH269573   2.014   4.849   5.823 -0.1642 -0.1755 -0.5533
16053TIP3    H169574   1.997   4.794   5.899 -0.9278 -0.8920 -1.2175
16053TIP3    H269575   1.928   4.882   5.798  0.0751  0.0275 -1.1295
16054TIP3   OH269576   0.709   5.721  17.201  0.2406  0.1476 -0.7062
16054TIP3    H169577   0.683   5.648  17.145  0.1408 -0.1613 -0.2630
16054TIP3    H269578   0.790   5.692  17.242  0.6338  0.6134 -1.1456
16055TIP3   OH269579   3.264   1.737  11.422  0.3567 -0.0434 -0.8750
16055TIP3    H169580   3.203   1.663  11.417 -1.7867  1.4120  1.4634
16055TIP3    H269581   3.293   1.738  11.513  1.7873  0.9427 -1.3125
16056TIP3   OH269582   1.396   5.055  11.752 -0.2184  0.0205 -0.8163
16056TIP3    H169583   1.475   5.004  11.764 -1.1819 -1.0472  1.6553
16056TIP3    H269584   1.327   5.005  11.796 -1.8992  1.8040 -1.2347
16057TIP3   OH269585   1.510   5.913  15.045 -0.0660 -0.2055  0.1953
16057TIP3    H169586   1.482   5.922  15.137 -1.1456 -1.0968 -0.0268
16057TIP3    H269587   1.442   5.958  14.995 -0.8941 -1.9270 -0.3162
16058TIP3   OH269588   0.730   5.829  14.201  0.3567  0.2063 -0.1903
16058TIP3    H169589   0.706   5.785  14.120 -0.2630  1.6227 -0.8103
16058TIP3    H269590   0.822   5.808  14.214  1.0961  1.6891 -2.4345
16059TIP3   OH269591   1.970   3.175   4.194  0.2018 -0.4280 -0.1774
16059TIP3    H169592   1.994   3.103   4.252  1.5739 -0.9024 -1.2896
16059TIP3    H269593   2.049   3.192   4.142 -0.9476  0.0190 -1.8604
16060TIP3   OH269594   3.225   2.463   1.664  0.1326  0.1210  0.1728
16060TIP3    H169595   3.285   2.538   1.666 -0.7067  0.8716 -0.9959
16060TIP3    H269596   3.208   2.449   1.570 -1.8232  0.2229  0.4640
16061TIP3   OH269597   4.774   0.215   3.318  0.0404  0.1806 -0.1303
16061TIP3    H169598   4.710   0.172   3.262  0.5004  0.3343 -0.7840
16061TIP3    H269599   4.858   0.202   3.273  0.2423  1.4122 -0.1464
16062TIP3   OH269600   0.207   2.478  14.031  0.2962  0.5417 -0.1224
16062TIP3    H169601   0.145   2.535  13.986  0.2497 -0.1284 -0.9200
16062TIP3    H269602   0.153   2.430  14.095  0.3653  1.4943  0.6787
16063TIP3   OH269603   4.417   3.691  16.573  0.3145  0.1432  0.0978
16063TIP3    H169604   4.402   3.682  16.667 -0.7607  1.4303  0.0658
16063TIP3    H269605   4.414   3.601  16.540 -1.3122 -0.1762  1.0120
16064TIP3   OH269606   0.529   0.331  16.590  0.1906  0.3031 -0.3409
16064TIP3    H169607   0.448   0.315  16.640  0.9953 -0.2804  0.8065
16064TIP3    H269608   0.520   0.276  16.513 -0.8780  0.8706 -0.6454
16065TIP3   OH269609   3.019   1.703   0.268 -0.5494 -0.6165  0.7635
16065TIP3    H169610   3.082   1.631   0.263  0.5454  0.3813 -0.7359
16065TIP3    H269611   3.045   1.752   0.347  0.3399 -0.4360  0.3766
16066TIP3   OH269612   2.348   0.401  14.735 -0.1022  0.4769 -0.5858
16066TIP3    H169613   2.318   0.431  14.821 -1.3141  1.3915 -1.3011
16066TIP3    H269614   2.343   0.478  14.679  0.1033 -0.2456 -1.6324
16067TIP3   OH269615   6.779   4.683   3.026 -0.4147 -0.1962  0.2471
16067TIP3    H169616   6.758   4.665   3.118 -0.9616 -0.0928  0.1477
16067TIP3    H269617   6.864   4.727   3.029 -0.2974 -0.4460  0.6834
16068TIP3   OH269618   5.802   4.365   5.223  0.0766 -0.2252 -0.0861
16068TIP3    H169619   5.864   4.430   5.190  0.0878  0.0266  0.4155
16068TIP3    H269620   5.814   4.290   5.166 -0.0141  0.2508 -0.7416
16069TIP3   OH269621   5.612   3.197   0.733 -0.0400 -0.5113  0.4500
16069TIP3    H169622   5.567   3.114   0.748 -0.3265  0.0333  3.1141
16069TIP3    H269623   5.700   3.184   0.769  0.0255  0.2402  0.5813
16070TIP3   OH269624   3.728   6.712   4.225  0.4216  0.1980 -0.3424
16070TIP3    H169625   3.655   6.666   4.182 -0.0462  0.9004 -0.3177
16070TIP3    H269626   3.732   6.797   4.181 -0.5945  1.2559  1.4814
16071TIP3   OH269627   3.517   6.181  14.733 -0.7047  0.3883 -0.3704
16071TIP3    H169628   3.535   6.145  14.820 -0.8674 -0.2968 -0.6233
16071TIP3    H269629   3.584   6.142  14.676 -0.3909  1.0857 -0.5000
16072TIP3   OH269630   0.185   4.824   3.829 -0.1871 -0.1476  0.1649
16072TIP3    H169631   0.255   4.805   3.767 -0.6672  0.0365 -0.4429
16072TIP3    H269632   0.198   4.762   3.901  0.9866  0.3258  0.3735
16073TIP3   OH269633   1.673   0.326   5.006  0.1459 -0.5731  0.0661
16073TIP3    H169634   1.721   0.399   4.968  1.6204 -0.2955  2.2730
16073TIP3    H269635   1.647   0.356   5.093  0.5603 -2.5366  0.9439
16074TIP3   OH269636   1.558   0.178   0.017  0.8441 -0.6159 -0.2689
16074TIP3    H169637   1.640   0.224   0.036  0.1116  0.6181 -0.0376
16074TIP3    H269638   1.530   0.142   0.101  0.5564 -0.0391 -0.1130
16075TIP3   OH269639   1.863   0.706   3.596 -0.0141  0.2373 -0.1270
16075TIP3    H169640   1.869   0.781   3.537  0.3976  0.9111  0.7532
16075TIP3    H269641   1.776   0.711   3.634 -1.2320 -1.5673 -2.4125
16076TIP3   OH269642   4.449   6.598  12.593 -0.1323 -0.2438 -0.5432
16076TIP3    H169643   4.422   6.623  12.505  0.6779  0.7632 -0.5135
16076TIP3    H269644   4.427   6.673  12.648 -0.1994 -0.6767  0.0398
16077TIP3   OH269645   5.805   2.825  11.251 -0.1875  0.0154 -0.3446
16077TIP3    H169646   5.779   2.735  11.272  1.0257 -1.0482 -2.8462
16077TIP3    H269647   5.888   2.837  11.297 -0.3235 -0.1517 -0.0509
16078TIP3   OH269648   0.662   3.050  14.933  0.3495  0.1792  0.4832
16078TIP3    H169649   0.589   3.099  14.896  0.3027 -0.1838  0.0783
16078TIP3    H269650   0.621   2.981  14.985  0.4118  0.4358  0.8715
16079TIP3   OH269651   1.527   3.207   5.496  0.2617 -0.1525  0.4792
16079TIP3    H169652   1.483   3.122   5.502  1.0097 -0.5391  0.5868
16079TIP3    H269653   1.476   3.264   5.554  1.2542 -1.1972  2.4903
16080TIP3   OH269654   3.494   6.025   4.080 -0.1615 -0.5027 -0.5024
16080TIP3    H169655   3.462   6.089   4.016 -0.1736 -1.5065 -1.5426
16080TIP3    H269656   3.423   5.961   4.087 -0.2345 -0.2973  0.6751
16081TIP3   OH269657   5.481   0.102  10.977 -0.4453  0.1308 -0.4661
16081TIP3    H169658   5.522   0.157  11.044 -0.9451 -1.8553  1.6277
16081TIP3    H269659   5.555   0.062  10.931 -0.0476 -0.1567  0.4036
16082TIP3   OH269660   5.830   4.179  17.133  0.4470 -0.1832 -0.3637
16082TIP3    H169661   5.831   4.160  17.227  0.0471 -1.7103 -0.6417
16082TIP3    H269662   5.794   4.267  17.127  2.5570  0.8668  1.0257
16083TIP3   OH269663   0.206   1.078   5.165  0.0036 -0.5377  0.0048
16083TIP3    H169664   0.266   1.074   5.091 -0.7574  1.0949 -0.7673
16083TIP3    H269665   0.228   1.159   5.210 -0.9587 -0.4195  0.2915
16084TIP3   OH269666   4.727   3.619  14.628  0.0868 -0.2315  0.2468
16084TIP3    H169667   4.674   3.629  14.549  0.2409 -0.9842  0.0405
16084TIP3    H269668   4.668   3.644  14.699  0.0411  0.7291 -0.1244
16085TIP3   OH269669   3.092   5.699   4.920 -0.1237  1.1622 -0.4371
16085TIP3    H169670   3.136   5.783   4.909  0.4912  0.8309 -0.5764
16085TIP3    H269671   3.140   5.657   4.992 -1.0683  1.3441  0.3206
16086TIP3   OH269672   5.026   2.532  10.827  0.2541  0.1415 -0.2329
16086TIP3    H169673   5.045   2.501  10.739  3.5649 -1.6748  0.9547
16086TIP3    H269674   4.937   2.499  10.845  0.8610 -2.5800 -1.6854
16087TIP3   OH269675   3.064   5.308   0.923 -0.2030 -0.5030 -0.1045
16087TIP3    H169676   3.120   5.338   0.994  1.8844 -1.8674 -1.0505
16087TIP3    H269677   3.019   5.232   0.958 -1.2126  0.3783  0.5483
16088TIP3   OH269678   4.359   1.664  15.150 -0.2118  0.4245  0.7378
16088TIP3    H169679   4.420   1.592  15.161 -1.6647 -0.5763  2.8530
16088TIP3    H269680   4.291   1.650  15.216 -2.7921  1.4293 -1.4515
16089TIP3   OH269681   3.183   2.592   3.292  0.1821  0.0487 -0.0323
16089TIP3    H169682   3.118   2.582   3.362 -1.2224 -0.8431 -1.4119
16089TIP3    H269683   3.144   2.549   3.216  2.0110  0.2853 -1.1705
16090TIP3   OH269684   4.913   0.058   2.012  0.3305 -0.6122  0.0636
16090TIP3    H169685   4.965   0.006   1.951 -1.0971 -1.0052 -0.8475
16090TIP3    H269686   4.826   0.018   2.010 -0.0923  0.1759  1.3735
16091TIP3   OH269687   4.953   6.458   1.460  0.1966 -0.0887 -0.1083
16091TIP3    H169688   4.959   6.387   1.524 -0.1827  0.2717  0.3393
16091TIP3    H269689   4.942   6.537   1.513  1.0611  0.3605 -0.5879
16092TIP3   OH269690   2.275   4.763  12.184  0.1542 -0.4786  0.3261
16092TIP3    H169691   2.333   4.831  12.151 -3.2075  1.4300 -2.2426
16092TIP3    H269692   2.282   4.770  12.279  2.8653  0.6631  0.1399
16093TIP3   OH269693   0.929   5.212  15.731 -0.7603 -0.0694  0.2469
16093TIP3    H169694   0.869   5.242  15.662 -0.8866  0.9536  0.7726
16093TIP3    H269695   1.007   5.183  15.684 -0.9665  0.3304 -0.3536
16094TIP3   OH269696   3.614   0.450   6.366 -0.4678 -0.3356  0.1297
16094TIP3    H169697   3.638   0.529   6.316  0.2669 -0.3189  0.4971
16094TIP3    H269698   3.677   0.384   6.339  0.1971 -0.2130  1.3286
16095TIP3   OH269699   1.065   6.192   3.409  0.5257 -0.2026  0.4480
16095TIP3    H169700   1.118   6.246   3.468  0.5774 -0.5563  0.7313
16095TIP3    H269701   1.122   6.173   3.335  0.1494  1.0310 -0.1723
16096TIP3   OH269702   1.885   0.572  12.720 -0.2582  0.0995 -0.3127
16096TIP3    H169703   1.868   0.584  12.627  1.3540  0.0073 -0.6422
16096TIP3    H269704   1.878   0.660  12.758  1.2312  0.5005 -0.9162
16097TIP3   OH269705   0.082   6.581   1.185 -0.3195 -0.0780  0.0702
16097TIP3    H169706   0.146   6.531   1.135 -1.9557 -0.5828 -1.6205
16097TIP3    H269707   0.091   6.548   1.275  0.3003 -1.6698 -0.5412
16098TIP3   OH269708   2.120   0.421  11.846 -0.1629  0.5312  0.2727
16098TIP3    H169709   2.205   0.464  11.847 -0.6124  1.5156  1.9936
16098TIP3    H269710   2.063   0.481  11.799 -0.3650  0.9424  1.0195
16099TIP3   OH269711   3.337   4.942  12.270  0.4752  0.3945 -0.6779
16099TIP3    H169712   3.429   4.922  12.287  0.3481 -2.1744 -2.5094
16099TIP3    H269713   3.294   4.926  12.354  1.6238  1.4752  0.1632
16100TIP3   OH269714   0.511   3.609   1.207 -0.6150 -0.0159 -0.7946
16100TIP3    H169715   0.547   3.690   1.242  1.3496 -1.0455 -0.3287
16100TIP3    H269716   0.563   3.590   1.129 -0.9533 -0.9143 -0.8220
16101TIP3   OH269717   2.593   1.672  15.148 -0.3084  0.6501  0.0243
16101TIP3    H169718   2.673   1.692  15.196 -0.7350  0.5989  0.7778
16101TIP3    H269719   2.623   1.636  15.064  0.4582  0.0965  0.5251
16102TIP3   OH269720   2.441   1.101   2.186  0.1745 -0.2633 -0.0700
16102TIP3    H169721   2.354   1.094   2.223  0.3270 -0.4284  0.2615
16102TIP3    H269722   2.438   1.181   2.132  1.0878  2.4716  3.5449
16103TIP3   OH269723   1.861   3.976   0.365 -0.0371 -0.1779 -0.1621
16103TIP3    H169724   1.783   4.008   0.320 -0.7283 -4.4882 -2.6537
16103TIP3    H269725   1.934   4.015   0.317 -0.7379 -0.0171 -1.1273
16104TIP3   OH269726   1.229   5.697   3.219 -0.6815  0.1444  0.6531
16104TIP3    H169727   1.223   5.616   3.169  0.8148  1.4226 -1.8341
16104TIP3    H269728   1.211   5.766   3.155  0.2939  1.8625  2.1300
16105TIP3   OH269729   2.037   5.386  13.774  0.8580 -0.5156 -0.0166
16105TIP3    H169730   1.997   5.302  13.796 -0.7501  0.6507  1.7701
16105TIP3    H269731   2.011   5.401  13.683  1.2388 -1.9499 -0.3949
16106TIP3   OH269732   3.463   4.713   2.145 -0.0341  0.4075  0.0996
16106TIP3    H169733   3.457   4.708   2.050  1.0733 -1.0530  0.0809
16106TIP3    H269734   3.528   4.781   2.162 -1.3902  1.8129 -0.1152
16107TIP3   OH269735   4.334   0.303  14.705 -0.0654 -0.5011  0.1295
16107TIP3    H169736   4.291   0.375  14.751  1.1653  1.1737 -1.1898
16107TIP3    H269737   4.378   0.253  14.774 -2.5120 -1.1904  1.2837
16108TIP3   OH269738   0.859   2.985  15.185 -0.1834  0.2033  0.1932
16108TIP3    H169739   0.823   3.071  15.165 -0.8389 -0.5100 -1.9655
16108TIP3    H269740   0.782   2.930  15.201  0.1652 -0.2558  0.3267
16109TIP3   OH269741   4.967   1.329  11.390  0.1746 -0.6165 -0.2290
16109TIP3    H169742   5.035   1.372  11.441 -0.3639 -0.6419  0.5133
16109TIP3    H269743   4.923   1.400  11.344 -1.2470 -0.2348  1.6229
16110TIP3   OH269744   6.236   3.068  11.546 -0.3315 -0.2353  0.0686
16110TIP3    H169745   6.252   3.162  11.557  0.1186 -0.3536  0.4443
16110TIP3    H269746   6.274   3.047  11.461 -0.2397 -0.1194  0.0804
16111TIP3   OH269747   4.450   0.371   4.021 -0.0111  0.4841  0.1514
16111TIP3    H169748   4.400   0.401   3.945 -0.6397 -0.0780  0.3299
16111TIP3    H269749   4.471   0.451   4.069 -3.0743  0.6321  1.5036
16112TIP3   OH269750   6.661   5.177   3.755  0.4715 -0.1662 -0.7421
16112TIP3    H169751   6.683   5.143   3.668  0.4750  0.2500 -0.9066
16112TIP3    H269752   6.631   5.100   3.804  1.1286 -0.5235 -0.8912
16113TIP3   OH269753   5.314   3.541   2.236 -1.1047  0.3688  0.3569
16113TIP3    H169754   5.302   3.493   2.318  0.5009 -2.2952 -0.8171
16113TIP3    H269755   5.407   3.565   2.236 -0.6396 -1.2311 -1.3730
16114TIP3   OH269756   5.197   2.871  11.740 -0.3179  0.7200 -0.1156
16114TIP3    H169757   5.131   2.919  11.690 -0.4538 -1.0104 -1.7049
16114TIP3    H269758   5.225   2.933  11.808 -3.2616  1.6382  0.4114
16115TIP3   OH269759   1.653   6.152   3.148  0.5026 -0.4646  0.4705
16115TIP3    H169760   1.587   6.149   3.080  0.8216 -1.6040  0.1978
16115TIP3    H269761   1.662   6.062   3.177  1.2202 -0.1708  1.2015
16116TIP3   OH269762   6.503   5.369   5.791  0.4181  0.1941  0.5262
16116TIP3    H169763   6.592   5.350   5.821  0.8247 -0.3395 -0.9086
16116TIP3    H269764   6.495   5.321   5.709 -2.1334 -1.9256  1.8671
16117TIP3   OH269765   4.465   1.000  15.248 -0.1156  0.3409  0.0011
16117TIP3    H169766   4.423   1.068  15.301  0.1924  1.8773 -1.6100
16117TIP3    H269767   4.395   0.938  15.228 -0.6452  0.6927  0.7344
16118TIP3   OH269768   3.670   2.191  12.772  0.0134 -0.6413  0.1211
16118TIP3    H169769   3.690   2.097  12.765 -1.2502 -0.9971  1.0441
16118TIP3    H269770   3.738   2.226  12.829 -0.2787 -1.2640  0.8616
16119TIP3   OH269771   1.139   0.862  11.653 -0.2158  0.3277 -0.3264
16119TIP3    H169772   1.061   0.877  11.600  0.3224  0.9137 -0.9888
16119TIP3    H269773   1.110   0.872  11.743 -1.0194 -0.0197 -0.5402
16120TIP3   OH269774   5.531   0.652  11.730  0.2970 -0.5257  0.6798
16120TIP3    H169775   5.457   0.592  11.716  0.7635 -0.7820 -0.8234
16120TIP3    H269776   5.574   0.657  11.645  2.8905 -1.5199  1.8385
16121TIP3   OH269777   5.585   1.690  16.699  0.2962  0.2730  0.4558
16121TIP3    H169778   5.528   1.688  16.622  1.1676 -0.6176 -0.1958
16121TIP3    H269779   5.565   1.609  16.746  1.9335 -0.7356 -0.4955
16122TIP3   OH269780   5.578   0.577   3.296 -0.2594  0.0255  0.0769
16122TIP3    H169781   5.668   0.583   3.262  0.2333  0.1148  1.3376
16122TIP3    H269782   5.565   0.659   3.344 -0.2553 -0.8458  1.6349
16123TIP3   OH269783   4.267   0.295   4.607  0.0727 -0.4832  0.0294
16123TIP3    H169784   4.187   0.242   4.619 -0.9053  0.8310 -0.4697
16123TIP3    H269785   4.253   0.371   4.663  1.0568 -0.3157  0.0504
16124TIP3   OH269786   6.773   1.549   0.481 -0.2855 -0.6076  0.1407
16124TIP3    H169787   6.706   1.497   0.435 -0.2382 -0.6971  0.1733
16124TIP3    H269788   6.738   1.638   0.480 -0.6752 -0.7520  0.6560
16125TIP3   OH269789   6.613   2.004   0.540 -0.2833  0.2608  0.6669
16125TIP3    H169790   6.590   2.096   0.550 -1.5663 -0.1314  1.6603
16125TIP3    H269791   6.644   1.978   0.627 -3.5709 -1.1305  1.6185
16126TIP3   OH269792   6.000   3.435  12.661 -0.3382 -0.6209  0.6205
16126TIP3    H169793   5.999   3.340  12.649 -0.6179 -0.4342 -1.0841
16126TIP3    H269794   5.910   3.462  12.647 -0.1986 -0.0604  0.7704
16127TIP3   OH269795   3.906   6.612   0.691  0.0362 -0.2883  0.2717
16127TIP3    H169796   3.851   6.534   0.690  1.0664 -1.0214 -0.2962
16127TIP3    H269797   3.992   6.581   0.717  0.3611  0.7295  0.4424
16128TIP3   OH269798   2.579   2.352   0.953  0.2348  0.1613  0.1015
16128TIP3    H169799   2.574   2.349   0.858  0.5639  0.7469  0.0591
16128TIP3    H269800   2.511   2.415   0.978  0.9834  0.9775  0.1559
16129TIP3   OH269801   3.393   5.355  14.499  0.4935  0.4051  0.2733
16129TIP3    H169802   3.369   5.391  14.413  3.2371 -0.7679 -1.1273
16129TIP3    H269803   3.310   5.333  14.540 -0.9621  1.7429 -1.7550
16130TIP3   OH269804   4.648   1.741  16.539  0.1540 -0.0654  0.0985
16130TIP3    H169805   4.589   1.669  16.516 -0.7902  0.9347 -0.7194
16130TIP3    H269806   4.614   1.774  16.622  2.2861 -2.3053  2.0174
16131TIP3   OH269807   6.005   3.350   1.356 -0.3534 -0.2382 -0.1808
16131TIP3    H169808   6.067   3.423   1.357 -0.6102  0.0049 -0.9775
16131TIP3    H269809   5.938   3.377   1.293 -1.1322 -0.6082  0.4704
16132TIP3   OH269810   0.969   4.631  13.771 -0.2788  0.0633  0.2847
16132TIP3    H169811   0.937   4.552  13.815 -0.4410 -1.5190 -2.4569
16132TIP3    H269812   0.892   4.668  13.727  0.4196 -0.2970 -1.3199
16133TIP3   OH269813   5.934   3.556   3.700 -0.4112 -0.4136 -0.7910
16133TIP3    H169814   5.860   3.542   3.760  0.2012  0.4160  0.1870
16133TIP3    H269815   6.011   3.551   3.756  0.1773  0.4251 -1.5061
16134TIP3   OH269816   4.991   1.105  13.092  0.2060 -1.1359  0.0738
16134TIP3    H169817   4.896   1.109  13.107  0.3280  0.4769  0.6002
16134TIP3    H269818   4.999   1.095  12.998 -0.5039 -1.0630 -0.0057
16135TIP3   OH269819   5.541   4.319   1.416 -0.1297  0.2861 -0.5653
16135TIP3    H169820   5.594   4.255   1.368 -0.8623  1.0044 -2.4329
16135TIP3    H269821   5.580   4.404   1.394  0.3103  0.5937  1.2058
16136TIP3   OH269822   5.244   0.928   2.831  0.3565  0.0184  0.4704
16136TIP3    H169823   5.204   0.847   2.800  2.2617 -0.7794 -0.0819
16136TIP3    H269824   5.294   0.960   2.756 -1.4620  2.5351  0.2016
16137TIP3   OH269825   6.283   3.879  13.267 -0.4210 -0.9188  0.0156
16137TIP3    H169826   6.256   3.818  13.335 -0.6093 -1.9591 -0.9666
16137TIP3    H269827   6.362   3.840  13.229  1.4270  1.0976  1.5273
16138TIP3   OH269828   2.439   3.992   1.395 -0.0031  0.1591  0.1278
16138TIP3    H169829   2.464   4.013   1.485  0.5903  2.5395 -0.5271
16138TIP3    H269830   2.388   3.911   1.403  1.9523 -0.9745  2.3009
16139TIP3   OH269831   3.084   1.433  13.899 -0.0391 -0.6431  0.0440
16139TIP3    H169832   3.110   1.404  13.811  1.7378 -0.9136  0.6201
16139TIP3    H269833   3.121   1.521  13.906  0.0581 -0.7288  0.6214
16140TIP3   OH269834   0.132   3.155  13.212 -0.2592  0.8633 -0.0723
16140TIP3    H169835   0.152   3.062  13.198 -0.3143  0.7832  0.3630
16140TIP3    H269836   0.075   3.179  13.138  0.7033  0.8596 -0.8354
16141TIP3   OH269837   0.154   5.314  15.186  0.7122  0.2495 -0.4958
16141TIP3    H169838   0.157   5.226  15.222 -0.5042  0.6791  0.7180
16141TIP3    H269839   0.125   5.302  15.095  1.2381 -0.6404 -0.5512
16142TIP3   OH269840   3.875   1.774   5.598 -0.3444  0.0184 -0.6389
16142TIP3    H169841   3.934   1.847   5.619 -0.6187  1.0726 -3.0585
16142TIP3    H269842   3.921   1.727   5.528 -1.3369 -0.5352 -0.9300
16143TIP3   OH269843   2.514   1.547  14.119 -0.6130 -0.2737 -0.1957
16143TIP3    H169844   2.584   1.575  14.059 -0.7251  3.4862  1.1516
16143TIP3    H269845   2.555   1.481  14.175  0.8591 -0.4702 -1.4486
16144TIP3   OH269846   4.232   4.238   5.982 -0.4925 -0.4931 -0.2541
16144TIP3    H169847   4.253   4.206   6.070 -0.1429 -0.7580 -0.4332
16144TIP3    H269848   4.317   4.244   5.937 -0.3007  2.1890  0.2584
16145TIP3   OH269849   5.435   3.017  11.207  0.3894  0.3192  1.0926
16145TIP3    H169850   5.482   3.084  11.157 -0.6220 -0.0421 -0.3748
16145TIP3    H269851   5.360   3.063  11.244  0.6591  0.3824  1.5731
16146TIP3   OH269852   2.936   4.190   0.534 -0.1704 -1.1796 -0.0326
16146TIP3    H169853   2.851   4.165   0.571 -0.0112 -0.0255  1.1947
16146TIP3    H269854   2.998   4.176   0.606  0.2455  0.5745 -0.0098
16147TIP3   OH269855   5.584   0.869  12.346 -0.3990  0.5592  0.1744
16147TIP3    H169856   5.504   0.906  12.308 -0.5398  1.6604  1.4669
16147TIP3    H269857   5.647   0.869  12.274 -1.0383  1.3619 -0.4041
16148TIP3   OH269858   2.870   5.642   2.890  0.5876 -0.1528 -0.1612
16148TIP3    H169859   2.883   5.572   2.954  0.7476  0.2658  0.2714
16148TIP3    H269860   2.833   5.715   2.941  2.1171  0.7189 -0.2280
16149TIP3   OH269861   6.685   1.897  12.195 -0.5485 -0.1794 -0.1176
16149TIP3    H169862   6.682   1.805  12.167  1.2333 -0.9106  1.8488
16149TIP3    H269863   6.773   1.908  12.232 -0.3495  2.6436 -1.2246
16150TIP3   OH269864   4.565   1.296   0.808  0.8374 -0.1153  0.2403
16150TIP3    H169865   4.641   1.264   0.759  0.4481 -0.8309  0.0991
16150TIP3    H269866   4.496   1.232   0.790  0.6456 -0.3129  1.6175
16151TIP3   OH269867   3.521   1.930  15.520  0.5984  0.3322  0.0675
16151TIP3    H169868   3.583   1.965  15.584 -0.5867  1.0071  0.8905
16151TIP3    H269869   3.534   1.835  15.523  2.0662  0.5063 -0.2954
16152TIP3   OH269870   5.734   0.546  16.861 -0.0454  0.1798 -0.1376
16152TIP3    H169871   5.710   0.608  16.793  2.0939  0.8541 -0.3604
16152TIP3    H269872   5.721   0.460  16.821  0.7641  0.5596 -1.2847
16153TIP3   OH269873   0.589   1.953  10.507 -0.3286  0.2039 -0.1952
16153TIP3    H169874   0.666   1.966  10.452 -0.7503  0.0125 -0.8424
16153TIP3    H269875   0.544   2.038  10.507 -0.1153  0.3177  0.1880
16154TIP3   OH269876   4.883   6.290   4.616 -0.3553 -0.3010  0.3416
16154TIP3    H169877   4.829   6.367   4.634 -0.1747 -0.1721  0.3311
16154TIP3    H269878   4.872   6.235   4.694 -1.6168 -0.9269 -0.2396
16155TIP3   OH269879   0.536   5.339   4.638 -0.0403 -0.1110  0.1292
16155TIP3    H169880   0.626   5.371   4.646  0.3466 -0.5869 -1.8572
16155TIP3    H269881   0.514   5.351   4.546 -1.5172 -1.3110  0.2824
16156TIP3   OH269882   5.411   3.240  14.415 -0.1010 -0.0437 -0.0909
16156TIP3    H169883   5.407   3.149  14.384 -0.3205 -0.1919  0.3758
16156TIP3    H269884   5.377   3.291  14.342 -0.7199 -0.4034 -0.0616
16157TIP3   OH269885   5.702   6.740   5.508  0.2469 -0.2240  0.0665
16157TIP3    H169886   5.784   6.755   5.554  0.9126 -0.0990 -1.1323
16157TIP3    H269887   5.635   6.751   5.576  1.1649  0.2915  0.9261
16158TIP3   OH269888   2.648   6.374   4.357  0.4483  0.1909  0.2440
16158TIP3    H169889   2.627   6.379   4.450 -0.6506 -0.3806  0.0492
16158TIP3    H269890   2.725   6.318   4.352  0.8019  0.6200  0.8382
16159TIP3   OH269891   4.900   6.199   4.196 -0.1067 -0.3766  0.7404
16159TIP3    H169892   4.835   6.191   4.126  0.2010  1.0640  0.2532
16159TIP3    H269893   4.984   6.208   4.150 -0.0012  1.5948  1.2055
16160TIP3   OH269894   1.707   1.032   2.528 -0.3577 -0.8121  0.1526
16160TIP3    H169895   1.738   0.962   2.585 -1.9967 -1.5909  0.1654
16160TIP3    H269896   1.748   1.015   2.444  0.1316 -1.1405  0.4544
16161TIP3   OH269897   1.539   3.638  16.805  0.5107  0.4748  0.3023
16161TIP3    H169898   1.590   3.600  16.876 -0.0215  2.0270  1.5912
16161TIP3    H269899   1.600   3.695  16.759  1.4018 -2.0257 -1.8466
16162TIP3   OH269900   3.671   6.521   5.139 -0.1712 -0.2066 -0.4511
16162TIP3    H169901   3.710   6.558   5.059 -1.2473 -0.7685 -1.2658
16162TIP3    H269902   3.711   6.434   5.146  1.2824  0.5180  0.6626
16163TIP3   OH269903   0.794   2.993  12.743 -0.0517  0.1287  0.4623
16163TIP3    H169904   0.721   2.934  12.760  1.0094 -1.3589  0.0696
16163TIP3    H269905   0.789   3.058  12.813 -1.9571  0.2965  0.2256
16164TIP3   OH269906   5.344   5.458   0.120  0.3133  0.4490  0.0488
16164TIP3    H169907   5.275   5.452   0.053 -2.2796  1.7492  2.3871
16164TIP3    H269908   5.315   5.399   0.189  0.7568  2.0182  1.6605
16165TIP3   OH269909   0.952   2.571   3.237 -0.0748 -0.4640  0.3257
16165TIP3    H169910   1.007   2.619   3.175 -1.5312 -0.3228 -0.8908
16165TIP3    H269911   0.879   2.630   3.256 -0.3626 -1.0541  1.1061
16166TIP3   OH269912   0.491   0.495   3.181 -0.4259 -0.0143 -0.4557
16166TIP3    H169913   0.439   0.415   3.174 -2.1103  1.1398 -2.2829
16166TIP3    H269914   0.454   0.542   3.255 -0.7378 -0.0688 -0.5757
16167TIP3   OH269915   0.453   4.126  12.742  0.1755  0.8050  0.1691
16167TIP3    H169916   0.366   4.086  12.745 -0.0861  1.4263  0.9901
16167TIP3    H269917   0.493   4.088  12.663 -0.4137 -0.3397  0.3947
16168TIP3   OH269918   5.512   1.386   4.171  0.0211 -0.1128 -0.3968
16168TIP3    H169919   5.550   1.439   4.101  1.1072  0.1878  0.3849
16168TIP3    H269920   5.588   1.347   4.215 -0.6975 -1.3349 -0.1859
16169TIP3   OH269921   3.985   1.215  13.145  0.3427  0.1691 -0.3586
16169TIP3    H169922   4.024   1.128  13.133  0.8780  0.2956  0.3473
16169TIP3    H269923   3.954   1.214  13.236  1.3802  1.1031  0.0171
16170TIP3   OH269924   2.015   1.450   2.509 -0.1067 -0.1890 -0.1359
16170TIP3    H169925   1.956   1.375   2.511 -1.6137  0.9512  2.1461
16170TIP3    H269926   1.981   1.505   2.438 -0.6791 -0.3979 -0.0260
16171TIP3   OH269927   1.759   6.390   3.041 -0.6580  0.2475  0.3176
16171TIP3    H169928   1.718   6.378   2.955 -1.3595  0.7553  0.5716
16171TIP3    H269929   1.720   6.323   3.097  0.7867 -0.9824 -0.0660
16172TIP3   OH269930   3.860   5.959   0.849 -0.0652  0.5121 -0.2433
16172TIP3    H169931   3.896   5.928   0.766  1.8743 -0.8197  0.9868
16172TIP3    H269932   3.906   6.041   0.866  0.9165 -0.1381  0.3397
16173TIP3   OH269933   2.713   2.141  16.099 -0.1830  0.1798 -0.1339
16173TIP3    H169934   2.721   2.120  16.006  1.2185 -1.6950  0.3584
16173TIP3    H269935   2.800   2.172  16.123 -0.6087  0.8867  0.5171
16174TIP3   OH269936   5.856   0.274  15.446  0.1333  0.1446  0.5852
16174TIP3    H169937   5.800   0.299  15.519  0.0346  0.3290  0.4483
16174TIP3    H269938   5.909   0.352  15.427  1.2902 -0.3944  1.4804
16175TIP3   OH269939   5.949   0.332  16.419  0.1581  0.5137  0.1615
16175TIP3    H169940   6.016   0.376  16.367 -1.2632 -0.6884 -2.9479
16175TIP3    H269941   5.998   0.272  16.475  1.7292  0.2403 -1.4216
16176TIP3   OH269942   4.563   3.214  13.388 -0.1619  0.0650 -0.0906
16176TIP3    H169943   4.632   3.193  13.325  0.1424 -1.9021  0.8151
16176TIP3    H269944   4.486   3.231  13.334  0.5247  0.2201 -1.0509
16177TIP3   OH269945   3.825   5.472   4.396 -0.2664 -0.3442  0.1037
16177TIP3    H169946   3.872   5.493   4.476 -1.5953 -0.3931  0.9268
16177TIP3    H269947   3.893   5.464   4.329  0.7090  2.2892  0.6397
16178TIP3   OH269948   0.110   3.459  14.251 -0.2741  0.0139  0.1891
16178TIP3    H169949   0.108   3.489  14.160  0.3747  2.0273  0.7751
16178TIP3    H269950   0.203   3.449  14.271 -0.4108 -3.8708 -0.3098
16179TIP3   OH269951   5.878   4.898   0.238  0.0491 -0.0034 -0.1340
16179TIP3    H169952   5.887   4.934   0.326  0.5409 -3.0745  1.2002
16179TIP3    H269953   5.968   4.890   0.206 -0.0982  0.5863 -0.7231
16180TIP3   OH269954   3.004   6.725   3.596  0.2058  0.2186 -0.3422
16180TIP3    H169955   2.944   6.725   3.522  1.0463 -2.1656 -1.1161
16180TIP3    H269956   3.070   6.790   3.574  0.0975 -0.0160 -1.4201
16181TIP3   OH269957   4.257   1.755  15.968  0.7801  0.0535 -0.1998
16181TIP3    H169958   4.217   1.680  15.923  0.2121  0.0649  0.2834
16181TIP3    H269959   4.309   1.716  16.038  1.7053  0.0337 -0.8759
16182TIP3   OH269960   6.235   1.614   2.309 -0.1976 -0.0735  0.1006
16182TIP3    H169961   6.228   1.708   2.329  1.8316 -0.1538  1.6086
16182TIP3    H269962   6.295   1.610   2.235 -1.2432 -0.1513 -0.7580
16183TIP3   OH269963   6.043   0.645   2.720  0.7359  0.1533 -0.2872
16183TIP3    H169964   6.091   0.697   2.655  0.8185  0.8241  0.2983
16183TIP3    H269965   6.055   0.693   2.802 -0.6898  0.1679 -0.0770
16184TIP3   OH269966   1.160   4.902   2.225  0.2559  0.0570  0.0927
16184TIP3    H169967   1.198   4.843   2.290 -0.3291  0.9439  1.2728
16184TIP3    H269968   1.070   4.873   2.215  0.2105  0.2199  0.0227
16185TIP3   OH269969   4.014   3.789   5.522  0.4109  0.6562 -0.4151
16185TIP3    H169970   3.926   3.778   5.558  1.1214  0.4213  1.3474
16185TIP3    H269971   4.007   3.865   5.465 -1.2023 -0.0956 -1.2873
16186TIP3   OH269972   5.379   1.771   1.219  0.1606  0.1814 -0.4739
16186TIP3    H169973   5.330   1.746   1.141  0.6970  0.5482 -0.9373
16186TIP3    H269974   5.421   1.690   1.249 -2.1855 -0.5739  1.0265
16187TIP3   OH269975   5.673   4.978   0.052 -0.6868 -0.0381 -0.3775
16187TIP3    H169976   5.614   4.904   0.069 -1.4687  0.7423  0.4310
16187TIP3    H269977   5.744   4.967   0.115 -0.6674 -0.2424 -0.4349
16188TIP3   OH269978   5.972   5.286  11.810 -0.1048 -0.2476 -0.2755
16188TIP3    H169979   6.001   5.344  11.740 -1.1485  0.7550  0.0934
16188TIP3    H269980   5.982   5.338  11.890 -0.9715 -0.5997  0.0780
16189TIP3   OH269981   1.744   2.107  14.800 -0.3532 -0.1892 -0.2788
16189TIP3    H169982   1.739   2.045  14.728 -0.0826  0.5970 -0.9965
16189TIP3    H269983   1.702   2.186  14.766  0.5922  0.4915  0.0902
16190TIP3   OH269984   5.980   6.343   2.565  0.0466  0.6180 -0.2534
16190TIP3    H169985   5.885   6.353   2.576 -0.1978 -0.4524 -1.1698
16190TIP3    H269986   5.997   6.374   2.476  0.3728 -0.1892 -0.4816
16191TIP3   OH269987   5.582   4.887  12.906 -0.0409  0.0601 -0.1207
16191TIP3    H169988   5.609   4.860  12.994  0.9875  0.4774 -0.2860
16191TIP3    H269989   5.563   4.981  12.914 -0.8348 -0.0919 -0.1551
16192TIP3   OH269990   1.455   0.854   4.655  0.4148  0.3567 -0.3619
16192TIP3    H169991   1.504   0.780   4.692 -0.0997  0.4908  0.6216
16192TIP3    H269992   1.386   0.814   4.603 -1.1334  0.0540  1.7942
16193TIP3   OH269993   4.594   0.307  13.726  0.3584  0.5180  0.0881
16193TIP3    H169994   4.508   0.336  13.697 -0.2602  0.6425  1.8980
16193TIP3    H269995   4.626   0.250  13.656 -1.5575 -0.2051 -0.2568
16194TIP3   OH269996   0.601   4.755  10.767  0.2056  0.2634  0.3316
16194TIP3    H169997   0.682   4.784  10.810  0.2160 -2.2215  2.2030
16194TIP3    H269998   0.554   4.836  10.749  1.6950  1.6220  2.1140
16195TIP3   OH269999   5.704   5.851   1.143 -0.1592  0.2115  0.7844
16195TIP3    H170000   5.757   5.929   1.123 -0.9206  0.2722 -1.3372
16195TIP3    H270001   5.614   5.878   1.122 -0.9434 -0.2356  3.2480
16196TIP3   OH270002   6.377   2.694   3.542 -0.1321  0.1960  0.1727
16196TIP3    H170003   6.450   2.752   3.561 -0.3419  0.3382  0.5462
16196TIP3    H270004   6.313   2.711   3.611 -0.4604 -0.0286 -0.0689
16197TIP3   OH270005   6.004   5.507  13.921 -0.7278 -1.0923  0.2102
16197TIP3    H170006   5.964   5.507  14.008  1.1140 -0.1088  1.1043
16197TIP3    H270007   5.930   5.498  13.861 -2.1185 -0.9816  1.8329
16198TIP3   OH270008   6.605   4.009   3.101  0.7502 -0.1189 -0.2646
16198TIP3    H170009   6.586   3.968   3.017  0.4670  1.6520 -1.1159
16198TIP3    H270010   6.695   4.040   3.093  0.7756 -0.0734  0.1479
16199TIP3   OH270011   1.847   5.674   3.183  0.2277  0.2878 -0.5233
16199TIP3    H170012   1.914   5.736   3.155 -0.9566  1.7276 -0.3054
16199TIP3    H270013   1.893   5.590   3.189  1.4548  0.7260 -2.7030
16200TIP3   OH270014   0.654   4.528  14.323 -0.3621 -0.3343  0.2648
16200TIP3    H170015   0.634   4.616  14.293  0.9738 -0.3742 -0.8477
16200TIP3    H270016   0.626   4.471  14.252  0.9044 -0.5979 -0.0522
16201TIP3   OH270017   0.527   1.968   4.441  0.2724 -0.0909  0.0370
16201TIP3    H170018   0.507   1.901   4.377 -0.6785  1.2814 -1.1700
16201TIP3    H270019   0.442   1.999   4.472  0.5841  1.9125 -0.9363
16202TIP3   OH270020   5.479   2.687   4.569 -0.9554 -0.0669  0.0595
16202TIP3    H170021   5.471   2.664   4.661  2.7683  0.6976  0.7378
16202TIP3    H270022   5.477   2.783   4.568  0.2603 -0.0192 -0.4014
16203TIP3   OH270023   5.622   4.225   2.645 -0.5217  0.1294  0.1018
16203TIP3    H170024   5.697   4.220   2.705 -0.6075  1.7992  0.3907
16203TIP3    H270025   5.660   4.254   2.562 -0.8054  0.6975  0.1696
16204TIP3   OH270026   1.205   5.778  15.146 -0.0276  0.2655 -0.4048
16204TIP3    H170027   1.236   5.763  15.235  0.9676 -0.6779 -0.8907
16204TIP3    H270028   1.247   5.711  15.093 -1.0299  0.4604 -1.5162
16205TIP3   OH270029   3.049   1.118  16.068 -0.0751  0.5936 -0.1224
16205TIP3    H170030   2.969   1.152  16.110 -0.2220 -1.9908  1.9091
16205TIP3    H270031   3.049   1.025  16.088  1.3193 -0.3230 -3.7255
16206TIP3   OH270032   3.295   3.247  16.302  0.3885 -0.0516  0.2609
16206TIP3    H170033   3.317   3.320  16.360  1.4259  0.3485 -0.6038
16206TIP3    H270034   3.212   3.273  16.261  0.7412  0.6404 -0.0236
16207TIP3   OH270035   3.940   4.067  14.991 -0.0529  0.7409 -0.3197
16207TIP3    H170036   4.016   4.075  14.934  0.7182 -2.0262  0.1639
16207TIP3    H270037   3.872   4.030  14.935 -0.1965  0.7077 -0.1250
16208TIP3   OH270038   1.587   4.038   2.194  0.1032 -0.1599  0.2929
16208TIP3    H170039   1.604   3.960   2.141 -0.3894 -0.8717  1.1460
16208TIP3    H270040   1.649   4.031   2.267 -0.7558 -0.4093  1.0175
16209TIP3   OH270041   0.937   4.495  13.090  0.1115  0.1968  0.3475
16209TIP3    H170042   0.876   4.568  13.093  0.1015  0.3468 -1.9407
16209TIP3    H270043   0.926   4.456  13.003  0.9429 -1.8267  1.0595
16210TIP3   OH270044   6.635   5.594  16.116  0.2285 -0.4090 -0.1874
16210TIP3    H170045   6.657   5.501  16.125 -1.7014 -0.6908  4.8987
16210TIP3    H270046   6.541   5.595  16.100  0.5222  0.7799 -2.1630
16211TIP3   OH270047   3.940   4.156  15.796  0.3962  0.7467  0.0001
16211TIP3    H170048   3.959   4.100  15.721 -0.7129 -1.3825  1.2156
16211TIP3    H270049   3.870   4.213  15.766 -0.5047 -0.5351 -0.4375
16212TIP3   OH270050   2.511   3.037  11.557  0.0395  0.1754  0.4734
16212TIP3    H170051   2.508   3.075  11.469 -0.6339 -0.2690  0.2991
16212TIP3    H270052   2.506   2.942  11.542 -2.6889  0.1541  1.0819
16213TIP3   OH270053   4.014   5.357  16.478  0.4959 -0.3282 -0.1269
16213TIP3    H170054   4.049   5.305  16.550 -0.4578  0.5259  0.9979
16213TIP3    H270055   4.080   5.350  16.409  0.6012 -2.6098  0.1506
16214TIP3   OH270056   6.373   1.413  11.668  0.0260  0.4703  0.1318
16214TIP3    H170057   6.426   1.479  11.713 -0.5985  0.6703  0.5832
16214TIP3    H270058   6.437   1.349  11.637  1.1035  3.0412 -3.5791
16215TIP3   OH270059   6.092   5.405  15.639  0.1448  0.4781 -0.3960
16215TIP3    H170060   6.171   5.456  15.655  1.2041 -1.3660  0.7198
16215TIP3    H270061   6.124   5.322  15.604 -1.0919 -0.8863  1.4544
16216TIP3   OH270062   6.424   5.275   5.157 -0.1245  0.0142 -0.1849
16216TIP3    H170063   6.435   5.218   5.234 -0.6976  1.5368  1.0797
16216TIP3    H270064   6.504   5.327   5.154 -0.3154  0.3073 -0.3006
16217TIP3   OH270065   0.403   6.503  15.628 -0.3822  0.2206  0.4715
16217TIP3    H170066   0.325   6.461  15.594 -0.6051  1.6438 -0.8316
16217TIP3    H270067   0.441   6.550  15.554  2.2377 -1.1451  0.8049
16218TIP3   OH270068   5.143   3.174   3.502 -0.2574  0.1758 -0.1606
16218TIP3    H170069   5.121   3.161   3.594 -0.4017 -0.5962 -0.2999
16218TIP3    H270070   5.059   3.168   3.456  0.0265 -1.2809 -0.5333
16219TIP3   OH270071   6.048   4.912   5.668 -0.5530 -0.2813 -0.2462
16219TIP3    H170072   6.088   4.869   5.744  1.3396  1.5187 -0.1276
16219TIP3    H270073   6.092   4.874   5.593 -0.5767 -0.2188 -0.2920
16220TIP3   OH270074   2.331   6.411   5.089  0.3149 -0.2479 -0.1232
16220TIP3    H170075   2.423   6.426   5.110  0.9772  0.2495 -3.0070
16220TIP3    H270076   2.291   6.498   5.096  0.6589  0.0243 -1.3688
16221TIP3   OH270077   1.809   0.630   0.421 -0.2269 -0.2734  0.1826
16221TIP3    H170078   1.715   0.625   0.435 -0.2054  1.7737  1.4266
16221TIP3    H270079   1.821   0.704   0.363  0.7253  1.1952  2.1378
16222TIP3   OH270080   0.995   6.216   3.754  0.6538  0.1305  0.4591
16222TIP3    H170081   1.064   6.228   3.689  0.6475 -1.4322  0.1202
16222TIP3    H270082   0.969   6.305   3.778  1.2960  0.7461 -0.9913
16223TIP3   OH270083   3.245   6.256   6.517 -0.6877  0.1969  0.3417
16223TIP3    H170084   3.325   6.273   6.468 -0.7948  1.1715  0.4854
16223TIP3    H270085   3.235   6.161   6.515 -0.7013  0.2009 -1.5422
16224TIP3   OH270086   4.076   3.106  12.400 -0.6839  0.1069  0.2301
16224TIP3    H170087   3.997   3.051  12.405 -0.4548 -0.2578 -0.0760
16224TIP3    H270088   4.120   3.076  12.320  0.3166 -0.4473  0.9681
16225TIP3   OH270089   0.035   3.108  10.744  0.2854  0.2030  0.2378
16225TIP3    H170090   0.005   3.093  10.654 -1.3267  0.2313  0.7494
16225TIP3    H270091   0.130   3.111  10.737  0.2379 -0.8526 -1.3114
16226TIP3   OH270092   1.115   0.151   1.317 -0.0427  0.3797 -0.1814
16226TIP3    H170093   1.144   0.184   1.402 -1.7426  1.2300  0.1278
16226TIP3    H270094   1.171   0.076   1.299  0.6413  0.4559  1.4845
16227TIP3   OH270095   5.822   0.195  13.152  0.4961 -0.5420  0.1759
16227TIP3    H170096   5.790   0.213  13.241 -2.5601  2.8424 -1.3705
16227TIP3    H270097   5.914   0.219  13.154  0.3353  0.1148  2.2872
16228TIP3   OH270098   4.402   0.907  11.002  0.0592 -0.2454  0.2979
16228TIP3    H170099   4.400   0.829  11.057 -0.1750  0.1480  0.8597
16228TIP3    H270100   4.314   0.945  11.011  0.0403 -0.1345 -0.2933
16229TIP3   OH270101   1.462   6.380   2.838  0.4943 -0.3480 -0.1751
16229TIP3    H170102   1.425   6.464   2.812 -0.8265 -0.5856  0.8504
16229TIP3    H270103   1.555   6.388   2.818  0.4836  1.5288  0.3486
16230TIP3   OH270104   6.188   5.918   5.105  0.0950  0.2989 -0.0999
16230TIP3    H170105   6.232   5.938   5.187  0.9298  0.0348 -0.4781
16230TIP3    H270106   6.144   5.834   5.122  1.8634 -0.7593 -0.4989
16231TIP3   OH270107   3.946   1.828   0.643  0.0698 -0.1911  0.2402
16231TIP3    H170108   4.028   1.862   0.678  0.2079 -1.3069  1.0764
16231TIP3    H270109   3.880   1.893   0.666  0.7517  0.8959 -0.7568
16232TIP3   OH270110   1.038   0.583  12.803 -0.4052  0.1820  0.3334
16232TIP3    H170111   0.946   0.586  12.828 -0.5420 -1.0379  0.0536
16232TIP3    H270112   1.073   0.507  12.850  0.5226  0.7701  0.6276
16233TIP3   OH270113   4.805   0.108  16.079  0.3320  0.0266  0.2338
16233TIP3    H170114   4.802   0.185  16.137  1.2172 -0.3058  0.7442
16233TIP3    H270115   4.760   0.136  16.000  0.1548  0.8952  0.6317
16234TIP3   OH270116   4.919   6.334  14.015 -0.1017  0.0214  0.2240
16234TIP3    H170117   4.840   6.381  13.987 -1.5827 -1.0926  2.3165
16234TIP3    H270118   4.929   6.264  13.950 -0.8388  0.1466 -0.0328
16235TIP3   OH270119   1.401   6.219  14.472 -0.2603 -0.4327  0.2603
16235TIP3    H170120   1.430   6.282  14.539 -0.3406  0.4850 -0.5372
16235TIP3    H270121   1.374   6.142  14.522  1.7129 -0.5959  1.1517
16236TIP3   OH270122   0.555   2.436   0.485 -0.3912 -0.1259 -0.1977
16236TIP3    H170123   0.630   2.421   0.544 -0.6534 -0.4878  0.0428
16236TIP3    H270124   0.522   2.349   0.466 -0.0621 -0.0359 -1.2156
16237TIP3   OH270125   2.442   2.950  13.979 -0.0913  0.0599  0.0878
16237TIP3    H170126   2.389   2.955  13.899  0.9358  0.4141 -0.5822
16237TIP3    H270127   2.474   3.039  13.992  1.4979 -0.4139 -0.3332
16238TIP3   OH270128   4.197   0.847  16.133 -0.1770  0.3745 -0.2134
16238TIP3    H170129   4.160   0.857  16.221 -0.3335 -1.4372 -0.0504
16238TIP3    H270130   4.187   0.934  16.093  1.3416  1.6850  2.0835
16239TIP3   OH270131   0.898   2.677  11.035  0.1585  0.3536  0.1810
16239TIP3    H170132   0.857   2.756  10.998  0.0305 -0.4129 -1.3865
16239TIP3    H270133   0.855   2.666  11.120 -3.3332 -0.6598 -1.5356
16240TIP3   OH270134   5.620   2.188  13.872  0.1193  0.5458  0.0386
16240TIP3    H170135   5.646   2.279  13.856  0.9976  0.3447  0.2404
16240TIP3    H270136   5.634   2.176  13.966  2.3288 -0.4713 -0.3544
16241TIP3   OH270137   2.119   4.233   1.043 -0.0806 -0.2610  0.2988
16241TIP3    H170138   2.073   4.162   0.999  1.4321 -1.0675 -0.0693
16241TIP3    H270139   2.105   4.218   1.136  1.7787 -2.2398  0.3361
16242TIP3   OH270140   2.511   1.165  12.749  0.6178  0.1932 -0.3422
16242TIP3    H170141   2.584   1.221  12.723 -1.0002  2.3682 -0.4479
16242TIP3    H270142   2.438   1.194  12.693 -0.4925 -1.5033  0.1594
16243TIP3   OH270143   6.193   2.892  12.237  0.3332  0.3015 -0.1670
16243TIP3    H170144   6.190   2.985  12.213  0.5237 -0.2824 -2.7285
16243TIP3    H270145   6.127   2.883  12.306  0.7373  2.4271  0.5882
16244TIP3   OH270146   2.139   2.394  10.647 -0.2692  0.0426 -0.0341
16244TIP3    H170147   2.187   2.473  10.673  0.2542 -0.3265  0.1513
16244TIP3    H270148   2.185   2.322  10.692 -1.1216 -0.3038  0.2929
16245TIP3   OH270149   3.331   5.285   5.922 -0.5231 -0.0651  0.5237
16245TIP3    H170150   3.397   5.239   5.870 -1.1424 -0.4541  0.0740
16245TIP3    H270151   3.311   5.365   5.873 -1.3710 -0.6060 -0.0377
16246TIP3   OH270152   5.317   2.537  17.093  0.7438  0.0821  0.1596
16246TIP3    H170153   5.302   2.446  17.116  1.0298  0.4836  2.1616
16246TIP3    H270154   5.231   2.578  17.098  0.9274  0.3622  1.6612
16247TIP3   OH270155   0.215   4.619   4.008 -0.1527 -0.2630  0.1375
16247TIP3    H170156   0.225   4.561   4.084  0.9271  1.2036  1.1884
16247TIP3    H270157   0.305   4.640   3.983 -0.5182  0.7420 -0.3693
16248TIP3   OH270158   3.697   3.047   1.966  0.2543  0.1015 -0.0499
16248TIP3    H170159   3.742   3.038   1.882  0.8913  0.3481  0.2619
16248TIP3    H270160   3.646   3.127   1.958 -0.5712 -0.4657 -0.6010
16249TIP3   OH270161   3.330   2.686  11.927  0.6040  0.4266 -0.0271
16249TIP3    H170162   3.397   2.735  11.880  1.4722  0.0936  0.8379
16249TIP3    H270163   3.379   2.629  11.986 -0.2577 -2.5322 -1.9380
16250TIP3   OH270164   2.545   5.156  13.398 -0.3351  0.3925  0.3240
16250TIP3    H170165   2.521   5.186  13.485  2.1102  0.4869  1.0250
16250TIP3    H270166   2.463   5.158  13.349 -1.3200  2.7054  1.9014
16251TIP3   OH270167   0.974   4.897  16.453 -0.1366  0.7481 -0.4681
16251TIP3    H170168   1.059   4.925  16.488  0.1678  0.5938 -1.0631
16251TIP3    H270169   0.918   4.890  16.529  0.3581  0.9586 -0.0766
16252TIP3   OH270170   0.193   0.995  12.751  0.2429  0.0441 -0.0429
16252TIP3    H170171   0.106   0.974  12.785  0.4887  0.5653  0.9536
16252TIP3    H270172   0.253   0.937  12.798  0.3950 -0.6862 -1.1082
16253TIP3   OH270173   4.323   4.714  16.531 -0.1311 -0.1192  0.2290
16253TIP3    H170174   4.395   4.702  16.469 -0.1973 -1.6630  0.4171
16253TIP3    H270175   4.364   4.707  16.617 -0.2616  0.6195  0.3548
16254TIP3   OH270176   6.703   2.283  13.684 -0.1464 -0.4504  0.2467
16254TIP3    H170177   6.676   2.208  13.631  2.3563  0.7669 -3.0726
16254TIP3    H270178   6.621   2.320  13.717 -1.6841 -2.5417 -1.0201
16255TIP3   OH270179   2.452   2.745   1.831 -0.2884 -0.0979  0.7908
16255TIP3    H170180   2.489   2.737   1.919 -0.4621  1.9441  1.0926
16255TIP3    H270181   2.373   2.797   1.842  0.4274  1.4026 -0.7234
16256TIP3   OH270182   2.269   4.589  16.516  1.1166  0.5374  0.7807
16256TIP3    H170183   2.269   4.634  16.432  1.3915  0.7704  0.9070
16256TIP3    H270184   2.237   4.501  16.496  1.4071  0.5195  0.3963
16257TIP3   OH270185   1.962   2.483  11.851  0.3281  0.1611 -0.1751
16257TIP3    H170186   1.985   2.432  11.773 -1.4621  0.5695 -1.0144
16257TIP3    H270187   1.923   2.420  11.911  1.0091 -0.0144  0.0911
16258TIP3   OH270188   4.631   4.346  12.842  0.0409  0.4593  0.3552
16258TIP3    H170189   4.623   4.252  12.822 -2.2912  0.6771 -0.0492
16258TIP3    H270190   4.606   4.353  12.934  2.8795  0.4308  1.2178
16259TIP3   OH270191   3.973   5.133  11.935 -0.0353 -0.2889  0.0194
16259TIP3    H170192   4.036   5.130  11.863 -0.2158 -2.1057 -0.0893
16259TIP3    H270193   4.021   5.174  12.007  0.4195  0.7355 -0.8299
16260TIP3   OH270194   1.754   0.429   3.491  0.1700 -0.1285  0.2298
16260TIP3    H170195   1.830   0.378   3.464 -2.4586 -3.7468 -1.1539
16260TIP3    H270196   1.737   0.400   3.581 -0.4280 -0.5550 -0.0122
16261TIP3   OH270197   1.022   5.288   5.410  0.2092  0.6312 -0.4946
16261TIP3    H170198   1.029   5.209   5.463  0.3174  0.2995 -1.0008
16261TIP3    H270199   0.982   5.259   5.328  1.2755  0.8878 -1.1249
16262TIP3   OH270200   2.056   6.689  13.476 -0.0761  0.1820 -0.1432
16262TIP3    H170201   2.027   6.780  13.479 -1.5903 -0.1220 -2.5785
16262TIP3    H270202   2.018   6.649  13.554 -1.2877  1.1632 -0.2014
16263TIP3   OH270203   2.978   0.226   5.530 -0.1516 -0.3047 -0.6858
16263TIP3    H170204   3.049   0.179   5.575 -1.1130 -1.2510 -0.1253
16263TIP3    H270205   3.002   0.222   5.438  1.9222  1.7753 -0.3342
16264TIP3   OH270206   3.772   5.236   0.896  0.2389 -0.3788 -0.2299
16264TIP3    H170207   3.795   5.287   0.819 -1.4394  1.0081  0.1260
16264TIP3    H270208   3.749   5.149   0.861 -3.4077  1.0007 -1.8385
16265TIP3   OH270209   4.129   1.165   0.055  0.2465  0.4404 -0.2062
16265TIP3    H170210   4.046   1.135   0.091  0.8052 -1.2268 -0.2082
16265TIP3    H270211   4.107   1.197  -0.033 -0.2438 -1.2025 -0.7234
16266TIP3   OH270212   6.219   6.011   3.077  0.4827  0.5177  0.2357
16266TIP3    H170213   6.220   6.047   2.988  3.1528  1.5592  0.5834
16266TIP3    H270214   6.215   6.087   3.134 -2.5547 -0.1668  1.1452
16267TIP3   OH270215   4.628   1.639  14.205  0.0304  0.3814  0.1908
16267TIP3    H170216   4.686   1.645  14.129  2.6518 -0.3048  1.9984
16267TIP3    H270217   4.687   1.638  14.280 -2.4055  0.2468  2.2392
16268TIP3   OH270218   2.625   2.223   6.911  0.8596  0.3233 -0.5378
16268TIP3    H170219   2.556   2.158   6.899  0.4507  0.7419 -0.4931
16268TIP3    H270220   2.698   2.191   6.858  1.4053 -1.2424  1.0749
16269TIP3   OH270221   2.321   4.144  16.699 -0.0016  0.4628  0.1201
16269TIP3    H170222   2.366   4.198  16.633  0.1701  0.0749 -0.0815
16269TIP3    H270223   2.230   4.174  16.695  0.0184  0.4856 -0.2508
16270TIP3   OH270224   2.348   3.018  12.041 -0.0039 -0.0240  0.3048
16270TIP3    H170225   2.438   3.020  12.006 -0.2366 -0.7821 -0.3583
16270TIP3    H270226   2.318   2.929  12.023 -0.7908  0.1432  0.7905
16271TIP3   OH270227   2.842   6.546   2.723  0.1127 -0.1018 -0.0306
16271TIP3    H170228   2.936   6.535   2.738  0.1393  0.5815  0.3477
16271TIP3    H270229   2.803   6.469   2.765  0.4060  0.3484  1.1147
16272TIP3   OH270230   2.244   3.160  17.024  0.1081 -0.8027  0.0320
16272TIP3    H170231   2.305   3.172  16.951 -0.3721  2.9361  0.0264
16272TIP3    H270232   2.175   3.225  17.008 -2.5688 -3.0824  1.3953
16273TIP3   OH270233   5.887   3.888   5.193  0.3727  0.0119  0.0771
16273TIP3    H170234   5.896   3.967   5.139  0.7128 -0.4371 -0.5274
16273TIP3    H270235   5.971   3.843   5.185 -0.2602 -1.0960 -0.6748
16274TIP3   OH270236   3.262   1.303  15.117 -0.1931 -0.1290  0.1820
16274TIP3    H170237   3.331   1.308  15.182  0.5847 -1.0429 -0.5403
16274TIP3    H270238   3.183   1.282  15.167  0.5129 -1.4942  0.7783
16275TIP3   OH270239   1.619   2.891  12.943  0.7030 -0.6594 -0.2436
16275TIP3    H170240   1.670   2.827  12.894 -1.8230 -2.2902 -0.9358
16275TIP3    H270241   1.593   2.957  12.879 -1.7780 -2.2732 -1.0246
16276TIP3   OH270242   0.997   3.085  11.946  0.3964  0.0887 -0.1788
16276TIP3    H170243   0.931   3.135  11.995  0.1116 -0.2303 -0.2359
16276TIP3    H270244   1.074   3.142  11.947 -0.2207  0.9836 -1.1102
16277TIP3   OH270245   4.146   4.105   3.903  0.1099  0.2415 -0.2268
16277TIP3    H170246   4.070   4.048   3.920  0.1555  0.2193 -0.0916
16277TIP3    H270247   4.211   4.076   3.968  0.1117  0.4888 -0.1190
16278TIP3   OH270248   6.353   4.717   0.455  0.3329 -0.1704 -0.0330
16278TIP3    H170249   6.377   4.735   0.364  0.7934  3.2947  0.6000
16278TIP3    H270250   6.289   4.785   0.476 -0.6420 -1.6071  1.9309
16279TIP3   OH270251   1.155   1.291  12.033  0.2410 -0.2139 -0.0500
16279TIP3    H170252   1.134   1.357  12.099  0.9471 -0.2867  0.2477
16279TIP3    H270253   1.129   1.331  11.950  1.0365  0.5936  0.0861
16280TIP3   OH270254   1.765   6.478  11.550 -0.1561 -0.2794 -0.2262
16280TIP3    H170255   1.717   6.427  11.485 -1.4749  0.4199  0.1484
16280TIP3    H270256   1.730   6.447  11.634 -1.3762  1.5192  0.0028
16281TIP3   OH270257   0.454   5.530   2.561  0.4743 -0.0405  0.3288
16281TIP3    H170258   0.531   5.551   2.614  0.2566 -0.6325  0.8821
16281TIP3    H270259   0.383   5.581   2.600  0.4308 -0.0502  0.2620
16282TIP3   OH270260   5.494   1.221   6.300  0.5187  0.0524 -0.3439
16282TIP3    H170261   5.547   1.286   6.254  1.3705  0.4067  1.0807
16282TIP3    H270262   5.557   1.164   6.342 -0.2320 -0.5216  0.0326
16283TIP3   OH270263   4.640   4.660  11.408  0.2965 -0.2552  0.2834
16283TIP3    H170264   4.633   4.651  11.313  1.6101  2.1671 -0.1207
16283TIP3    H270265   4.703   4.593  11.434 -0.2026 -1.0553 -0.4811
16284TIP3   OH270266   4.327   2.116  13.606  0.3562 -0.3558 -0.6553
16284TIP3    H170267   4.341   2.139  13.514  0.4029  1.8716 -0.1458
16284TIP3    H270268   4.394   2.166  13.653  0.0163 -1.0774  0.6326
16285TIP3   OH270269   3.280   2.720   0.089 -0.1763  0.1617 -0.6687
16285TIP3    H170270   3.368   2.689   0.112 -0.3801 -0.8312 -1.1728
16285TIP3    H270271   3.289   2.815   0.087  0.4151  0.1711  1.1068
16286TIP3   OH270272   2.651   0.034   2.951  0.5554 -0.2686  0.0335
16286TIP3    H170273   2.686  -0.010   2.873 -0.7349 -0.0788 -0.6765
16286TIP3    H270274   2.666  -0.029   3.022 -0.9325 -1.7573 -0.8990
16287TIP3   OH270275   2.534   4.729   3.618  0.3618 -0.1446  0.4475
16287TIP3    H170276   2.517   4.769   3.533  0.9691  0.6511  0.6874
16287TIP3    H270277   2.454   4.743   3.668  0.5231  0.6988  0.4900
16288TIP3   OH270278   4.144   3.733   5.748  0.4665  0.0245  0.3265
16288TIP3    H170279   4.086   3.737   5.672  0.5335  1.7192  0.3360
16288TIP3    H270280   4.127   3.813   5.796  0.0206 -1.2620  2.4492
16289TIP3   OH270281   6.664   6.377   4.154  0.0493 -0.1079 -0.0204
16289TIP3    H170282   6.663   6.287   4.187  0.5880 -0.8749 -1.9689
16289TIP3    H270283   6.595   6.421   4.204 -1.8621 -2.2129 -0.5917
16290TIP3   OH270284   1.473   1.379   0.061 -0.1643 -0.1435 -0.5168
16290TIP3    H170285   1.397   1.322   0.044 -0.0319 -0.7546  0.7847
16290TIP3    H270286   1.543   1.318   0.086  0.2337  0.5355  0.0452
16291TIP3   OH270287   3.400   5.928   3.477  0.0493 -0.5811  0.1636
16291TIP3    H170288   3.344   6.005   3.482  0.1497 -0.5767  1.7408
16291TIP3    H270289   3.360   5.866   3.538  0.5977 -1.3600 -0.2556
16292TIP3   OH270290   1.950   1.682   1.348 -0.6571 -0.0451 -0.4620
16292TIP3    H170291   1.982   1.683   1.258 -1.0808  1.6316 -0.6248
16292TIP3    H270292   1.892   1.757   1.354  0.1086  0.4673  1.4799
16293TIP3   OH270293   2.749   1.245  13.223 -0.0326 -0.5186 -0.2365
16293TIP3    H170294   2.668   1.246  13.172 -0.2495 -0.3187  0.1061
16293TIP3    H270295   2.730   1.184  13.295 -0.8405  1.4965  1.3634
16294TIP3   OH270296   6.091   4.377  14.148 -0.0806  0.0307  0.0304
16294TIP3    H170297   6.138   4.350  14.227  2.5692  1.4612 -0.9239
16294TIP3    H270298   6.099   4.473  14.147 -1.3711  0.1536 -1.2170
16295TIP3   OH270299   3.963   6.193   5.409 -0.1281 -0.2000 -0.1941
16295TIP3    H170300   3.901   6.252   5.451 -0.2349 -0.3751 -0.1035
16295TIP3    H270301   3.911   6.114   5.390 -0.3038  0.2013 -1.4348
16296TIP3   OH270302   3.920   1.874   5.232 -0.7515  0.6639  1.0069
16296TIP3    H170303   4.013   1.894   5.221 -1.0090  1.3851 -0.0155
16296TIP3    H270304   3.875   1.943   5.184 -1.7718 -0.6649 -0.0220
16297TIP3   OH270305   2.230   5.686   6.054  0.6494  0.1589 -0.1930
16297TIP3    H170306   2.280   5.767   6.065  1.5864 -0.0460 -2.4213
16297TIP3    H270307   2.247   5.636   6.134 -0.1535  2.2084  1.3548
16298TIP3   OH270308   1.495   4.070   0.513 -0.4194  0.2113 -0.2280
16298TIP3    H170309   1.501   3.983   0.472  2.2762  0.3898 -0.3737
16298TIP3    H270310   1.492   4.131   0.439  0.5278  0.3515 -0.1605
16299TIP3   OH270311   4.206   3.546  14.746 -0.5759  0.1101 -1.0428
16299TIP3    H170312   4.199   3.642  14.739 -1.4085  0.4002  2.2940
16299TIP3    H270313   4.300   3.530  14.756 -0.3791  0.4901 -2.1233
16300TIP3   OH270314   5.880   1.647  13.251 -0.2124 -0.0545  0.1448
16300TIP3    H170315   5.837   1.631  13.167  1.8018 -1.0643 -0.7713
16300TIP3    H270316   5.962   1.692  13.228  0.8543 -1.2339  1.4306
16301TIP3   OH270317   0.682   5.631   3.902 -0.0156  0.1657 -0.2227
16301TIP3    H170318   0.713   5.662   3.817  0.6670 -1.8424 -0.7633
16301TIP3    H270319   0.726   5.688   3.965  0.2689  1.0303 -1.1696
16302TIP3   OH270320   1.264   3.881   1.723  0.3566  0.0147  0.0185
16302TIP3    H170321   1.293   3.949   1.784 -0.1694 -1.0541  1.5029
16302TIP3    H270322   1.172   3.867   1.744  0.1636 -0.3932 -1.0237
16303TIP3   OH270323   1.434   1.639  13.041  0.5010 -0.2033 -0.5320
16303TIP3    H170324   1.427   1.633  12.946  1.6439 -1.2196 -0.5712
16303TIP3    H270325   1.418   1.731  13.060  2.1759  0.4148 -1.8867
16304TIP3   OH270326   3.106   2.877  13.347 -0.3432  0.0007  0.3250
16304TIP3    H170327   3.160   2.955  13.364  0.4454 -0.7504  1.4042
16304TIP3    H270328   3.157   2.805  13.383 -1.3975 -0.9307 -0.0123
16305TIP3   OH270329   0.869   1.219  17.033  0.0615  0.3624  0.3058
16305TIP3    H170330   0.810   1.178  17.096 -0.8828  0.2401 -0.6254
16305TIP3    H270331   0.814   1.237  16.957  0.4646  3.1942  0.5751
16306TIP3   OH270332   1.328   2.236   0.687  0.0396 -0.3862  0.4267
16306TIP3    H170333   1.269   2.189   0.629  0.6474 -0.9010  0.2132
16306TIP3    H270334   1.273   2.303   0.729 -0.9638 -1.6022  1.1193
16307TIP3   OH270335   0.894   0.902  17.214  0.8600  0.8305 -0.2565
16307TIP3    H170336   0.949   0.955  17.271 -1.5933  2.3687  0.8292
16307TIP3    H270337   0.815   0.954  17.201 -1.6037 -2.3316  0.6229
16308TIP3   OH270338   0.072   4.328  16.252  0.7187 -0.3593 -0.3529
16308TIP3    H170339  -0.022   4.348  16.251  0.7445  0.3353  2.7718
16308TIP3    H270340   0.077   4.242  16.293  1.4947  0.5735  1.6406
16309TIP3   OH270341   0.161   6.695  16.014 -0.5824 -0.0004 -0.2521
16309TIP3    H170342   0.233   6.708  15.952 -1.1937  1.2458 -0.7220
16309TIP3    H270343   0.199   6.716  16.099 -0.2017 -0.0767 -0.3981
16310TIP3   OH270344   1.206   3.073  11.496  0.6098  0.2446 -0.2371
16310TIP3    H170345   1.145   3.123  11.550 -1.4059 -1.2640 -1.0007
16310TIP3    H270346   1.278   3.133  11.479  0.3730  1.4198  2.4319
16311TIP3   OH270347   0.834   0.767  14.337 -0.6968 -0.1008  0.6952
16311TIP3    H170348   0.918   0.769  14.383 -0.9918  0.2969  1.2469
16311TIP3    H270349   0.833   0.685  14.290 -0.1860 -0.3171  1.0582
16312TIP3   OH270350   5.680   1.986   3.807 -0.4211 -0.4468 -0.6601
16312TIP3    H170351   5.588   2.004   3.829 -0.6960 -0.3180 -1.8669
16312TIP3    H270352   5.691   2.022   3.719  1.2372  1.0060  0.0818
16313TIP3   OH270353   3.883   0.820  12.983  0.2226 -0.3135  0.5084
16313TIP3    H170354   3.961   0.828  13.037  0.3446  0.0701  0.2777
16313TIP3    H270355   3.833   0.899  13.001  0.0443 -0.4024  0.4040
16314TIP3   OH270356   1.327   4.374  17.098 -0.4976 -0.4711  0.0725
16314TIP3    H170357   1.381   4.374  17.019 -0.5992 -1.0314 -0.0010
16314TIP3    H270358   1.260   4.440  17.082  0.1082  0.1687  0.1265
16315TIP3   OH270359   3.027   3.207  13.085  0.0303  0.8088 -0.5942
16315TIP3    H170360   3.030   3.303  13.085  1.5025  0.7936 -1.5970
16315TIP3    H270361   3.108   3.180  13.129 -0.3083  0.0172 -0.4404
16316TIP3   OH270362   4.958   3.355   1.712  0.4981  0.0427  0.2374
16316TIP3    H170363   4.916   3.271   1.728  0.7311 -0.4958 -1.6711
16316TIP3    H270364   5.046   3.345   1.746  0.6782 -0.6808 -0.4173
16317TIP3   OH270365   4.927   4.740  15.000 -0.5958 -0.4462  0.4954
16317TIP3    H170366   4.921   4.652  14.965  0.1473  0.4960 -2.2388
16317TIP3    H270367   4.837   4.770  15.006 -0.8360 -1.2656  1.2130
16318TIP3   OH270368   3.226   0.477   0.798 -0.1361 -0.0790 -0.0024
16318TIP3    H170369   3.314   0.492   0.764 -0.5873  1.6112 -0.5140
16318TIP3    H270370   3.229   0.388   0.834  1.0843 -0.9829 -2.1768
16319TIP3   OH270371   3.539   0.542  14.000 -0.2038  0.1312 -0.8774
16319TIP3    H170372   3.464   0.515  14.053 -0.4861  1.4319 -0.5758
16319TIP3    H270373   3.612   0.543  14.062 -0.0526 -0.5463 -1.0354
16320TIP3   OH270374   0.001   3.364  15.125 -0.3402  0.0705  0.0390
16320TIP3    H170375   0.033   3.292  15.179  0.8613 -1.1208 -2.1184
16320TIP3    H270376  -0.045   3.421  15.186 -0.4430 -1.9869  2.0194
16321TIP3   OH270377   0.191   5.400   4.700  0.0689  0.6065  0.3608
16321TIP3    H170378   0.233   5.423   4.783  0.7766  2.9809 -0.5703
16321TIP3    H270379   0.238   5.322   4.671  1.0000  0.7658  1.3692
16322TIP3   OH270380   3.227   3.755   6.185  0.5033  0.3658 -0.0343
16322TIP3    H170381   3.145   3.770   6.231  0.5843  0.3845  0.1044
16322TIP3    H270382   3.206   3.769   6.092  0.2029 -0.2370 -0.0624
16323TIP3   OH270383   0.381   2.345   1.549 -0.2527 -0.1820 -0.2492
16323TIP3    H170384   0.404   2.261   1.589  0.4360  0.6779  1.2653
16323TIP3    H270385   0.340   2.395   1.620  0.2094  1.1006 -0.8510
16324TIP3   OH270386   2.972   2.430  15.130  0.1528 -0.1871  0.2789
16324TIP3    H170387   2.987   2.342  15.096  0.0020 -0.3104  0.5283
16324TIP3    H270388   3.055   2.455  15.170 -0.0985 -0.6106  1.0843
16325TIP3   OH270389   6.389   1.353  16.911 -0.1664  1.1787 -0.4089
16325TIP3    H170390   6.465   1.298  16.932  1.4650  2.7014 -1.9481
16325TIP3    H270391   6.375   1.406  16.990 -0.6070 -0.1259  0.4206
16326TIP3   OH270392   2.193   5.856   3.962 -0.1271 -0.5499  0.0447
16326TIP3    H170393   2.182   5.908   4.041  1.0910  1.0284 -0.7682
16326TIP3    H270394   2.105   5.829   3.938 -0.6234 -0.1736  1.3447
16327TIP3   OH270395   6.556   5.070   2.352  0.6665 -0.0733  0.5656
16327TIP3    H170396   6.596   5.090   2.437  0.3588  0.5870  0.5607
16327TIP3    H270397   6.496   4.998   2.370  1.4824 -0.7410  0.6700
16328TIP3   OH270398   3.748   0.313   2.963  0.0795  0.1809  0.4523
16328TIP3    H170399   3.741   0.390   3.019 -5.1705 -1.2389  2.3524
16328TIP3    H270400   3.698   0.336   2.885  0.4126 -0.5318  0.0250
16329TIP3   OH270401   0.311   4.511  14.496 -0.8363  0.1938 -0.0751
16329TIP3    H170402   0.353   4.594  14.474 -2.2157  0.9950  0.1919
16329TIP3    H270403   0.384   4.452  14.518  0.3891  0.4223 -3.0110
16330TIP3   OH270404   4.869   6.357   0.596 -0.1856 -0.5849  0.7984
16330TIP3    H170405   4.943   6.397   0.641 -0.3556 -0.0640  0.6206
16330TIP3    H270406   4.822   6.431   0.556 -0.5806 -0.9465  0.5856
16331TIP3   OH270407   3.445   0.175   5.295  0.1172  0.4096  0.4660
16331TIP3    H170408   3.472   0.085   5.313  0.2800  0.3230 -0.1942
16331TIP3    H270409   3.519   0.229   5.324  1.5061  0.1151 -2.2663
16332TIP3   OH270410   2.439   1.029  15.048 -0.7230 -0.0124  0.1924
16332TIP3    H170411   2.486   1.112  15.045  0.3817 -0.5814  0.8678
16332TIP3    H270412   2.417   1.010  14.957  1.0029 -0.0630 -0.2435
16333TIP3   OH270413   4.205   5.599  11.397  0.0180 -0.2168  0.1652
16333TIP3    H170414   4.291   5.562  11.417  1.0911  2.0804  0.1297
16333TIP3    H270415   4.213   5.692  11.419 -2.1120  0.2883 -0.8911
16334TIP3   OH270416   0.643   4.728   4.244 -0.4487  0.2576  0.0895
16334TIP3    H170417   0.610   4.659   4.187 -1.0938  1.2834 -0.8128
16334TIP3    H270418   0.614   4.702   4.332  0.1334 -1.0789 -0.0801
16335TIP3   OH270419   3.531   4.121   1.083 -0.4271 -0.2539  1.1693
16335TIP3    H170420   3.442   4.113   1.117 -1.8226 -0.4830 -2.1843
16335TIP3    H270421   3.546   4.040   1.035  0.4367  0.9122 -0.6527
16336TIP3   OH270422   1.816   1.254  12.270 -0.2287  0.2346  0.0607
16336TIP3    H170423   1.772   1.223  12.349 -1.7112 -0.6148 -1.0557
16336TIP3    H270424   1.747   1.294  12.218  1.0422  2.4344 -0.0580
16337TIP3   OH270425   1.408   2.665   1.447  0.1907  0.0080 -0.4264
16337TIP3    H170426   1.359   2.689   1.526  0.3581  0.2429 -0.3923
16337TIP3    H270427   1.401   2.570   1.442  1.1330 -0.1178  0.4902
16338TIP3   OH270428   6.441   6.483   0.149  0.0673  0.6846 -0.3176
16338TIP3    H170429   6.445   6.546   0.077  0.4779  1.6770  0.5465
16338TIP3    H270430   6.471   6.532   0.226  1.5229 -0.8826  0.1826
16339TIP3   OH270431   0.499   3.769   4.546 -0.1868  0.7043  0.6524
16339TIP3    H170432   0.453   3.825   4.608 -1.1515  0.3169  0.2986
16339TIP3    H270433   0.586   3.757   4.584 -0.3321  1.5500  1.2626
16340TIP3   OH270434   4.483   3.264  11.681  0.6317  0.8393  0.2386
16340TIP3    H170435   4.488   3.302  11.768  1.3028 -0.5231  0.8404
16340TIP3    H270436   4.398   3.291  11.647 -0.4215 -0.0372  2.0220
16341TIP3   OH270437   3.849   3.012  12.520  0.9248  0.1556 -0.4203
16341TIP3    H170438   3.770   3.034  12.471 -0.1710  2.5259  2.1320
16341TIP3    H270439   3.845   2.917  12.530 -1.1433  0.1069 -1.1606
16342TIP3   OH270440   1.350   2.479  11.881  0.0415 -0.3104 -0.3562
16342TIP3    H170441   1.337   2.563  11.836 -0.1945  1.4919  2.7747
16342TIP3    H270442   1.262   2.443  11.890 -0.2070  0.4903  0.6334
16343TIP3   OH270443   3.196   3.702  12.950 -0.6017  0.0102  1.0103
16343TIP3    H170444   3.292   3.707  12.944 -0.6180  2.8385  1.7054
16343TIP3    H270445   3.165   3.724  12.862 -0.5731  2.1170  1.4789
16344TIP3   OH270446   4.430   0.856  14.003  0.0518  0.2186  0.1435
16344TIP3    H170447   4.452   0.776  13.954  0.3128  2.6568 -4.2055
16344TIP3    H270448   4.335   0.852  14.013  0.1228 -0.8830  0.5491
16345TIP3   OH270449   5.670   3.049   3.607 -0.0919  0.0905 -0.4442
16345TIP3    H170450   5.671   3.142   3.633 -0.1513  0.1246 -0.5629
16345TIP3    H270451   5.603   3.010   3.661 -0.4370  0.2269 -0.7691
16346TIP3   OH270452   0.513   1.526  13.898 -0.4087 -0.1192 -0.1994
16346TIP3    H170453   0.451   1.483  13.957 -0.1060 -2.0614 -1.2041
16346TIP3    H270454   0.565   1.582  13.954  0.7524 -2.8633  1.6726
16347TIP3   OH270455   0.820   2.862   5.215  0.4590 -0.0362 -0.1353
16347TIP3    H170456   0.791   2.773   5.237 -1.4323  0.3679 -0.7692
16347TIP3    H270457   0.829   2.905   5.300 -4.1174  0.7178  0.2206
16348TIP3   OH270458   0.807   0.756  14.022 -0.1884  0.1291 -0.3086
16348TIP3    H170459   0.899   0.768  13.995  0.3704  0.8132  1.7431
16348TIP3    H270460   0.762   0.833  13.986 -0.2929 -0.8457 -2.4441
16349TIP3   OH270461   5.395   0.984   2.573 -0.1082  0.2994  0.4594
16349TIP3    H170462   5.465   1.020   2.519  0.0238 -1.4661 -0.6238
16349TIP3    H270463   5.354   0.917   2.518 -2.6708  1.2539  1.0514
16350TIP3   OH270464   4.294   0.562  15.091  0.5678 -0.5782 -0.2852
16350TIP3    H170465   4.227   0.501  15.060 -0.8346  1.0111 -0.5627
16350TIP3    H270466   4.347   0.511  15.152 -0.6252 -2.0161 -0.3930
16351TIP3   OH270467   5.690   4.582   1.898  0.0309  0.6878  0.5293
16351TIP3    H170468   5.625   4.567   1.968 -2.5770  3.5150 -1.0506
16351TIP3    H270469   5.679   4.507   1.839 -2.8027  1.6203 -0.2931
16352TIP3   OH270470   5.235   3.424  14.549 -0.6447  0.2485  0.0972
16352TIP3    H170471   5.245   3.413  14.455  0.5953  0.9476  0.1281
16352TIP3    H270472   5.264   3.341  14.586 -0.5362  0.1917 -0.1137
16353TIP3   OH270473   6.698   2.034   2.706  0.1629  0.2809 -0.0637
16353TIP3    H170474   6.639   2.076   2.643 -1.1061 -0.4666  0.6037
16353TIP3    H270475   6.728   2.105   2.762  1.2749  0.9570 -1.4384
16354TIP3   OH270476   6.324   6.731  10.825 -0.4292 -0.3763  0.3968
16354TIP3    H170477   6.320   6.823  10.797  2.0899 -0.0997  0.7082
16354TIP3    H270478   6.269   6.727  10.903 -2.2835  0.3237 -0.7970
16355TIP3   OH270479   0.054   0.390  16.496 -0.1405  0.1487  0.0103
16355TIP3    H170480   0.043   0.345  16.580  0.4530  1.1748  0.6505
16355TIP3    H270481  -0.031   0.432  16.481 -0.4835 -0.6184 -0.2713
16356TIP3   OH270482   3.905   5.329   1.948 -0.5298  0.0474  0.4489
16356TIP3    H170483   3.867   5.387   2.015 -0.2234  1.5741 -0.6479
16356TIP3    H270484   3.951   5.388   1.889  1.6062 -1.5387  0.4371
16357TIP3   OH270485   5.626   3.772  15.988 -0.2840 -0.0647  0.3543
16357TIP3    H170486   5.605   3.692  16.036  1.0826 -0.1853  0.7960
16357TIP3    H270487   5.721   3.769  15.976 -0.4189  0.6819 -1.0960
16358TIP3   OH270488   2.803   4.949   6.213 -0.0420 -0.6027 -0.1238
16358TIP3    H170489   2.894   4.976   6.227 -0.2396 -0.0570  0.1244
16358TIP3    H270490   2.778   4.906   6.294  0.5838 -2.4939 -0.8539
16359TIP3   OH270491   4.694   5.844  12.449  0.0114 -0.6315  0.2764
16359TIP3    H170492   4.718   5.928  12.488 -0.1271  0.5101 -1.9630
16359TIP3    H270493   4.615   5.818  12.497 -0.9090  1.3488 -0.0500
16360TIP3   OH270494   1.236   3.049  16.517  0.0993  0.1389  0.2932
16360TIP3    H170495   1.182   3.026  16.442  1.5786  0.7691 -1.0309
16360TIP3    H270496   1.220   3.142  16.532 -0.6186 -0.1118  1.1432
16361TIP3   OH270497   5.040   3.584   2.727  0.0240 -0.0366 -0.1124
16361TIP3    H170498   5.127   3.611   2.757  0.5820 -0.6921 -1.0850
16361TIP3    H270499   4.987   3.663   2.734 -0.1950 -0.3638  3.5274
16362TIP3   OH270500   6.101   6.344  12.593 -0.6298  0.8540  0.1897
16362TIP3    H170501   6.137   6.425  12.558 -0.8367  0.6525 -0.5233
16362TIP3    H270502   6.033   6.319  12.529  1.4351 -1.4454 -1.2799
16363TIP3   OH270503   6.014   3.995  13.367  0.2298 -0.1196 -0.5802
16363TIP3    H170504   6.080   3.928  13.349  0.0163 -0.3850 -0.3946
16363TIP3    H270505   5.931   3.951  13.352  0.0805  0.0177 -0.1760
16364TIP3   OH270506   4.292   2.197  15.019 -0.2666  0.2353 -0.1052
16364TIP3    H170507   4.219   2.137  15.031 -0.6470  0.3808 -1.5342
16364TIP3    H270508   4.370   2.141  15.021 -0.4760 -0.0467  0.4275
16365TIP3   OH270509   6.707   5.785  11.525  0.5026 -0.1003 -0.0256
16365TIP3    H170510   6.697   5.767  11.431  0.4211 -2.1918  0.3304
16365TIP3    H270511   6.705   5.698  11.566 -0.0696  0.8105  1.9806
16366TIP3   OH270512   4.502   6.126  12.793  0.6069 -0.1742 -0.6566
16366TIP3    H170513   4.500   6.220  12.780 -1.1145 -0.1423 -0.4298
16366TIP3    H270514   4.480   6.115  12.886  0.3806 -0.8148 -0.7831
16367TIP3   OH270515   4.120   5.726   5.262  0.1514  0.2229  0.6973
16367TIP3    H170516   4.123   5.660   5.331  0.5150 -1.0354 -0.4839
16367TIP3    H270517   4.056   5.693   5.199  0.2616  1.0496  0.1364
16368TIP3   OH270518   1.651   0.162  16.525 -0.1055  0.7854 -0.5670
16368TIP3    H170519   1.705   0.161  16.604 -0.0690 -0.1672 -0.5957
16368TIP3    H270520   1.571   0.208  16.552  0.2449  1.1986 -0.2126
16369TIP3   OH270521   2.099   0.911  11.754 -0.7265 -0.4660 -0.6589
16369TIP3    H170522   2.079   0.950  11.669 -1.9218 -3.8708 -2.1126
16369TIP3    H270523   2.018   0.867  11.780 -1.0111  1.9101  3.2517
16370TIP3   OH270524   6.679   4.927  12.622 -0.0480  0.3673 -0.0730
16370TIP3    H170525   6.589   4.958  12.624  0.3587  1.7447 -1.1554
16370TIP3    H270526   6.677   4.852  12.562 -0.2046  1.4855 -1.5281
16371TIP3   OH270527   2.049   0.938  15.829 -0.3789  0.1494  0.7409
16371TIP3    H170528   2.130   0.986  15.813  0.6987 -1.2235  1.9135
16371TIP3    H270529   2.004   0.988  15.896 -0.3033  0.6869  0.3943
16372TIP3   OH270530   2.654   6.082   4.018 -0.1314  0.4048 -0.1026
16372TIP3    H170531   2.576   6.127   4.052 -0.4593  0.1922 -0.5717
16372TIP3    H270532   2.690   6.143   3.953  0.7539  1.0138  0.9138
16373TIP3   OH270533   0.747   1.399  13.468 -0.2540 -0.0458 -0.4267
16373TIP3    H170534   0.761   1.332  13.535  1.2421 -0.3286 -0.9774
16373TIP3    H270535   0.734   1.480  13.516  1.4022 -0.1346  0.2281
16374TIP3   OH270536   3.499   5.145  13.781 -0.0927 -0.1695  0.0868
16374TIP3    H170537   3.550   5.065  13.795  1.8927  0.5299 -2.3128
16374TIP3    H270538   3.538   5.184  13.702 -2.7222  1.8144 -0.3466
16375TIP3   OH270539   2.791   4.910  14.529  0.4058 -0.2501 -0.0942
16375TIP3    H170540   2.728   4.843  14.554 -0.4966  0.1597 -1.2045
16375TIP3    H270541   2.833   4.875  14.450  0.7492 -0.0203 -0.0168
16376TIP3   OH270542   5.318   5.156  15.019  0.1575  0.2411 -0.4316
16376TIP3    H170543   5.309   5.235  15.071 -0.2221 -0.3149  0.3750
16376TIP3    H270544   5.310   5.185  14.928 -1.5205  0.9386 -0.0990
16377TIP3   OH270545   1.531   2.343  12.874  0.2356 -0.4245 -0.0423
16377TIP3    H170546   1.511   2.432  12.902  2.0524  0.3560 -1.0406
16377TIP3    H270547   1.627   2.340  12.870  0.2975 -2.9192  1.4292
16378TIP3   OH270548   5.985   3.889  12.310  0.2729  0.4210 -0.6952
16378TIP3    H170549   5.914   3.874  12.372  0.8589 -1.2747 -0.3890
16378TIP3    H270550   5.954   3.961  12.254 -1.4131  0.1191 -0.1918
16379TIP3   OH270551   4.722   6.661   3.167 -0.5282  0.4794 -0.5828
16379TIP3    H170552   4.678   6.746   3.173 -1.1790  0.0484  2.7639
16379TIP3    H270553   4.770   6.653   3.249  1.3130 -1.5148 -1.7439
16380TIP3   OH270554   6.298   4.280  13.982  0.2070 -0.2380  0.0918
16380TIP3    H170555   6.374   4.328  14.016 -0.7428  0.8327  0.8020
16380TIP3    H270556   6.237   4.275  14.056 -1.9930  2.2883 -1.3374
16381TIP3   OH270557   5.847   2.826   1.836 -0.9968 -0.6305  0.3344
16381TIP3    H170558   5.815   2.915   1.827  0.0693 -0.3858 -1.8447
16381TIP3    H270559   5.897   2.826   1.917 -0.4126  0.9758  0.0092
16382TIP3   OH270560   5.214   2.742  11.276  0.1929 -0.6519 -0.0250
16382TIP3    H170561   5.196   2.666  11.220 -0.9846 -1.0770  0.8908
16382TIP3    H270562   5.162   2.813  11.238  1.4145 -0.2256 -0.9740
16383TIP3   OH270563   6.480   0.521  13.369  0.2794 -0.5654 -0.3041
16383TIP3    H170564   6.458   0.432  13.342  0.1283 -1.7293  3.1880
16383TIP3    H270565   6.550   0.510  13.433  0.5450  1.8890 -0.0954
16384TIP3   OH270566   2.330   6.633  13.500 -0.3079  0.0935 -0.7083
16384TIP3    H170567   2.262   6.644  13.434  0.0036  1.9249 -0.7666
16384TIP3    H270568   2.285   6.647  13.584 -0.7665 -2.5106 -0.4320
16385TIP3   OH270569   1.219   5.873   1.074 -0.4662 -0.2984  0.2541
16385TIP3    H170570   1.284   5.811   1.107 -0.7122 -0.9175 -0.3976
16385TIP3    H270571   1.191   5.921   1.152  1.8289  1.0313  0.3350
16386TIP3   OH270572   6.310   2.003   0.480 -0.5363  0.2435  0.3208
16386TIP3    H170573   6.365   1.929   0.503  0.8453  0.8060 -1.0115
16386TIP3    H270574   6.368   2.063   0.433 -2.2774  0.8583 -1.1661
16387TIP3   OH270575   1.247   1.881  13.608 -0.3216 -0.7628 -0.2071
16387TIP3    H170576   1.265   1.974  13.621 -2.1709 -0.3560 -0.1841
16387TIP3    H270577   1.282   1.861  13.522 -1.0761  0.3198 -0.7865
16388TIP3   OH270578   6.177   3.227  16.527 -0.2062 -0.0320 -0.1033
16388TIP3    H170579   6.182   3.149  16.473  0.8989  0.9964 -1.5802
16388TIP3    H270580   6.115   3.284  16.483 -0.0986  0.4050  0.2896
16389TIP3   OH270581   4.580   1.410   0.246 -0.1377  0.3131  0.5443
16389TIP3    H170582   4.576   1.314   0.238 -0.2355  0.3473  0.1223
16389TIP3    H270583   4.597   1.426   0.339 -0.3044 -0.1093  0.6510
16390TIP3   OH270584   3.259   1.511  16.191 -0.4603  0.3561  0.4031
16390TIP3    H170585   3.320   1.516  16.117  0.3875 -0.3269  1.0341
16390TIP3    H270586   3.241   1.418  16.201 -0.0977  0.3794  1.4083
16391TIP3   OH270587   0.363   5.436  11.176 -0.6839  0.6356  0.4160
16391TIP3    H170588   0.373   5.461  11.084 -0.8397  0.8309  0.4511
16391TIP3    H270589   0.289   5.488  11.207 -0.2437  1.0355  0.8201
16392TIP3   OH270590   4.141   6.039   0.906 -0.1806 -0.2390 -0.3196
16392TIP3    H170591   4.206   6.095   0.862  1.1095 -1.2666  0.1963
16392TIP3    H270592   4.111   6.092   0.980 -0.9393  0.7616 -1.3165
16393TIP3   OH270593   2.287   5.546  15.809 -0.4145  0.0674 -0.1051
16393TIP3    H170594   2.282   5.564  15.903  0.0927 -0.0459 -0.0561
16393TIP3    H270595   2.249   5.624  15.768  1.9761  1.4309  0.0861
16394TIP3   OH270596   6.503   6.583  11.889  0.0906 -0.7593  0.0227
16394TIP3    H170597   6.580   6.526  11.886  0.5049 -0.2214  0.3153
16394TIP3    H270598   6.523   6.647  11.958 -1.6627 -2.1123  1.8939
16395TIP3   OH270599   1.721   1.798   3.928  0.4901 -0.4605 -0.4067
16395TIP3    H170600   1.768   1.875   3.897  1.4545 -0.4553  0.9536
16395TIP3    H270601   1.732   1.733   3.859 -1.1930  0.8943 -2.0314
16396TIP3   OH270602   4.290   0.851  13.290  0.4176 -0.3520 -0.3706
16396TIP3    H170603   4.274   0.829  13.382 -0.3038  0.7783 -0.2107
16396TIP3    H270604   4.314   0.768  13.250 -0.7933 -1.1710  0.5163
16397TIP3   OH270605   2.212   5.032   2.183 -0.4484 -0.1886 -0.1088
16397TIP3    H170606   2.123   5.016   2.215 -0.7429  0.3429 -0.6391
16397TIP3    H270607   2.269   5.011   2.258 -1.0764  0.3549  0.5293
16398TIP3   OH270608   1.982   0.080  15.109  0.3596 -0.3689 -0.1029
16398TIP3    H170609   2.016   0.007  15.161 -1.3156 -0.1413  1.4246
16398TIP3    H270610   2.008   0.158  15.158 -2.5194 -0.1940  1.3850
16399TIP3   OH270611   1.846   5.300   4.610 -0.1343  0.7885 -0.4484
16399TIP3    H170612   1.839   5.244   4.533  0.0084  1.0503 -0.6565
16399TIP3    H270613   1.940   5.306   4.628 -0.2072  0.1474  0.1864
16400TIP3   OH270614   3.782   1.072  16.627  0.0681 -0.2384  0.6432
16400TIP3    H170615   3.740   0.991  16.657  1.5871 -1.5469 -0.5773
16400TIP3    H270616   3.762   1.074  16.533  0.6809  0.4136  0.5270
16401TIP3   OH270617   1.709   5.537   2.317  0.0335 -0.0384  0.6691
16401TIP3    H170618   1.638   5.524   2.381  0.7126  0.6877  1.6116
16401TIP3    H270619   1.700   5.629   2.291 -0.5749 -0.4642 -0.7404
16402TIP3   OH270620   2.365   4.870   1.495  0.3542  0.2492 -0.3099
16402TIP3    H170621   2.434   4.873   1.429  1.0309 -2.8873  0.0927
16402TIP3    H270622   2.410   4.883   1.578 -0.0280  1.1295 -0.2304
16403TIP3   OH270623   5.435   2.836   2.742  0.1300 -0.2819  0.2947
16403TIP3    H170624   5.361   2.790   2.781  0.0285 -0.4521 -0.0898
16403TIP3    H270625   5.395   2.907   2.691  0.2912  0.2869  0.9537
16404TIP3   OH270626   0.926   5.211  14.874  0.2720  0.2508 -0.2940
16404TIP3    H170627   0.877   5.283  14.836 -0.0215  0.5446  0.6151
16404TIP3    H270628   0.863   5.166  14.930  1.2758  1.3316  1.8284
16405TIP3   OH270629   6.060   0.501   2.311  0.0005 -0.0993 -0.1583
16405TIP3    H170630   6.072   0.408   2.289  2.3801 -0.3207  1.6417
16405TIP3    H270631   6.081   0.547   2.230 -1.1344 -1.0962 -1.0589
16406TIP3   OH270632   0.458   6.499   1.820  0.5927 -0.1763 -0.6516
16406TIP3    H170633   0.384   6.474   1.766  0.7221  0.4325 -1.1256
16406TIP3    H270634   0.509   6.558   1.764  1.7510 -1.0536 -0.5494
16407TIP3   OH270635   6.087   3.739  16.579  0.6825 -0.6720 -0.1476
16407TIP3    H170636   6.043   3.818  16.547 -0.4564 -0.6870  1.2755
16407TIP3    H270637   6.177   3.747  16.548  1.2734  2.4189  1.9155
16408TIP3   OH270638   3.815   0.709   1.982 -0.3335  0.2660  0.3982
16408TIP3    H170639   3.733   0.731   1.938 -0.4273  0.2713  0.5753
16408TIP3    H270640   3.883   0.746   1.926 -0.5431  2.9863  1.7975
16409TIP3   OH270641   1.330   0.687  17.072 -0.4964 -0.4958  0.0786
16409TIP3    H170642   1.250   0.739  17.058  0.4707  1.1419  0.3549
16409TIP3    H270643   1.350   0.701  17.165  0.2066 -0.7574 -0.0352
16410TIP3   OH270644   2.089   2.452   4.369  0.1687 -0.3417  0.5261
16410TIP3    H170645   2.156   2.386   4.354 -0.2589 -0.4934 -0.8957
16410TIP3    H270646   2.080   2.496   4.284 -0.6886  0.4758  1.0196
16411TIP3   OH270647   5.212   2.791  15.536  0.8948  0.4057 -0.0702
16411TIP3    H170648   5.130   2.829  15.568  1.0819  1.3335 -0.6398
16411TIP3    H270649   5.215   2.815  15.443  1.2103 -0.7077 -0.3661
16412TIP3   OH270650   4.042   5.502   0.036  0.2609 -0.7243  0.0199
16412TIP3    H170651   4.044   5.417   0.081 -0.3202 -1.5326 -1.4105
16412TIP3    H270652   3.961   5.500  -0.014  0.4453  0.5299 -0.3612
16413TIP3   OH270653   1.898   4.797  13.034 -0.4119 -0.1874  0.4797
16413TIP3    H170654   1.991   4.805  13.051 -0.1395 -0.9576 -0.5291
16413TIP3    H270655   1.862   4.884  13.052  0.6823  0.4220 -0.2242
16414TIP3   OH270656   3.332   2.386   4.406 -0.3702 -0.1210 -0.5689
16414TIP3    H170657   3.416   2.409   4.368 -0.0546  1.4658  0.9219
16414TIP3    H270658   3.302   2.468   4.447 -1.2464 -1.3704  1.4292
16415TIP3   OH270659   2.603   0.514   2.204  0.1979 -0.2409  0.1181
16415TIP3    H170660   2.636   0.425   2.207  0.3069 -0.1859  1.8604
16415TIP3    H270661   2.566   0.524   2.116 -0.8722 -2.3654  0.2808
16416TIP3   OH270662   5.404   5.447  14.053 -0.3849 -0.0581 -0.3340
16416TIP3    H170663   5.441   5.422  13.969 -3.4564 -2.8028 -1.0822
16416TIP3    H270664   5.346   5.521  14.033  0.4571  0.6551 -0.1894
16417TIP3   OH270665   0.596   1.238   3.983  0.3824  0.1022 -0.4489
16417TIP3    H170666   0.559   1.325   3.992 -1.6432 -0.8486  1.5158
16417TIP3    H270667   0.675   1.239   4.037 -0.6356  0.2514  1.0874
16418TIP3   OH270668   1.714   6.591  12.676 -0.1878  0.2644 -0.2897
16418TIP3    H170669   1.713   6.495  12.681 -0.7114  0.3103  1.4259
16418TIP3    H270670   1.656   6.618  12.747  1.1442  1.8684  0.2405
16419TIP3   OH270671   5.435   3.826   5.715 -0.3409 -0.1826  0.0124
16419TIP3    H170672   5.517   3.819   5.665  0.2688  1.1705  0.7763
16419TIP3    H270673   5.422   3.739   5.753 -0.6992 -1.2013 -2.2546
16420TIP3   OH270674   1.910   4.251   2.955  0.3749  0.1316  0.3880
16420TIP3    H170675   1.927   4.160   2.931  1.0844  0.9293 -2.4585
16420TIP3    H270676   1.887   4.294   2.873  0.1335  2.5644  1.6358
16421TIP3   OH270677   5.045   3.969   1.058 -0.5765 -0.1311  0.5687
16421TIP3    H170678   5.037   3.959   0.963 -0.5309  0.1175  0.5393
16421TIP3    H270679   5.138   3.951   1.076 -0.3976  0.6657  0.4625
16422TIP3   OH270680   6.225   5.020   4.649 -0.0148 -0.2768 -0.0638
16422TIP3    H170681   6.288   5.004   4.719  0.2706  2.2092  0.3386
16422TIP3    H270682   6.224   4.939   4.598  1.1208 -1.4962  1.7446
16423TIP3   OH270683   1.671   5.595   3.380 -0.1145  0.2566  0.2697
16423TIP3    H170684   1.706   5.600   3.291 -1.1370 -1.4161 -0.2731
16423TIP3    H270685   1.596   5.655   3.379 -1.7299 -1.6337 -0.8673
16424TIP3   OH270686   4.346   4.669   0.617  0.0857 -0.1443 -0.1960
16424TIP3    H170687   4.315   4.679   0.707 -0.4615 -1.3836 -0.2157
16424TIP3    H270688   4.297   4.594   0.583  2.1252 -1.3267 -0.7053
16425TIP3   OH270689   3.872   5.343  13.840  0.2558 -0.4975  0.0723
16425TIP3    H170690   3.943   5.397  13.803 -0.8657  0.2902 -1.0062
16425TIP3    H270691   3.812   5.407  13.877  0.2280 -1.1827  1.2226
16426TIP3   OH270692   4.995   5.451  15.703 -0.4609 -0.3712 -0.0171
16426TIP3    H170693   4.915   5.487  15.741  1.2901 -0.2251  4.0680
16426TIP3    H270694   4.972   5.361  15.680 -1.9904 -0.0859  0.2526
16427TIP3   OH270695   3.740   0.215  13.033  0.3479  0.7816  0.2043
16427TIP3    H170696   3.747   0.310  13.043  0.2769  0.8059  0.0354
16427TIP3    H270697   3.646   0.199  13.020  0.2209  0.5791  1.2765
16428TIP3   OH270698   4.836   5.453  14.689 -0.2887  0.0957  0.0506
16428TIP3    H170699   4.837   5.357  14.695 -1.1742  0.0678  0.0115
16428TIP3    H270700   4.749   5.477  14.721 -1.0916  0.6942 -2.3262
16429TIP3   OH270701   2.549   2.887   5.846 -0.1024  0.2997 -0.1410
16429TIP3    H170702   2.475   2.946   5.835  1.0757  1.4729 -2.9264
16429TIP3    H270703   2.512   2.799   5.834 -1.2994  0.7296  0.2712
16430TIP3   OH270704   1.255   6.120  12.720  0.3869  0.5063 -0.1674
16430TIP3    H170705   1.253   6.025  12.713  0.7314  0.5311 -0.7105
16430TIP3    H270706   1.297   6.149  12.638 -2.4025  1.3042 -1.4292
16431TIP3   OH270707   6.371   3.092  13.784  0.0229 -0.0002  0.0916
16431TIP3    H170708   6.302   3.073  13.721  0.3387  0.7366 -0.4904
16431TIP3    H270709   6.451   3.100  13.731 -0.1812  3.7745  0.0758
16432TIP3   OH270710   2.505   6.190   5.637  0.1643  0.1386 -0.4981
16432TIP3    H170711   2.430   6.195   5.577  0.8227 -1.0852 -1.4588
16432TIP3    H270712   2.516   6.097   5.654  0.1570  0.4471  1.3590
16433TIP3   OH270713   5.894   3.288  13.871  0.2919 -0.2785  0.3076
16433TIP3    H170714   5.868   3.368  13.917 -0.6602  0.1714 -0.9311
16433TIP3    H270715   5.817   3.231  13.877 -0.1696  0.1086 -1.3519
16434TIP3   OH270716   1.083   1.056   5.773 -0.3986  0.0840 -0.5954
16434TIP3    H170717   1.024   1.077   5.846 -1.8143  0.0145 -1.6664
16434TIP3    H270718   1.167   1.094   5.798 -1.4621  2.1908  0.0155
16435TIP3   OH270719   1.788   3.072   2.990  0.0134 -0.2313 -0.3787
16435TIP3    H170720   1.873   3.087   3.031 -0.2326  2.3566 -0.6267
16435TIP3    H270721   1.806   3.010   2.919  1.9656  1.0332 -1.0949
16436TIP3   OH270722   4.705   5.302  12.892  0.0424  0.2548 -0.3305
16436TIP3    H170723   4.694   5.358  12.815 -0.1249 -0.9852 -1.2275
16436TIP3    H270724   4.638   5.333  12.953  0.3893  1.4670 -0.5318
16437TIP3   OH270725   6.684   1.355   1.970 -0.2639 -0.1093 -0.2354
16437TIP3    H170726   6.624   1.281   1.982  0.2830 -0.4096  0.8833
16437TIP3    H270727   6.685   1.371   1.876  1.0892 -2.8483 -0.7991
16438TIP3   OH270728   3.299   1.870   0.748  0.2544  0.1163 -0.1665
16438TIP3    H170729   3.228   1.870   0.684 -1.1461 -0.3824  1.3361
16438TIP3    H270730   3.259   1.902   0.829  2.5385  3.1100 -0.0556
16439TIP3   OH270731   6.014   3.107  14.470 -0.1308 -0.9677 -0.5139
16439TIP3    H170732   5.989   3.065  14.552 -1.3062 -0.9061 -0.8281
16439TIP3    H270733   6.005   3.038  14.404  0.5268 -0.9387 -0.6447
16440TIP3   OH270734   6.339   1.730  11.269  0.0700 -0.0382 -0.3817
16440TIP3    H170735   6.343   1.690  11.356 -0.1452  0.7068 -0.0216
16440TIP3    H270736   6.387   1.669  11.212 -0.0953 -0.7102  0.1851
16441TIP3   OH270737   3.773   0.703  10.817  0.4753  0.3281 -0.5442
16441TIP3    H170738   3.798   0.611  10.815  2.8446  0.7955  1.9934
16441TIP3    H270739   3.843   0.746  10.866 -2.8528  2.6994  2.6291
16442TIP3   OH270740   6.578   3.873  14.690  0.1821 -0.3397 -0.1043
16442TIP3    H170741   6.663   3.909  14.665 -0.0296 -0.8683 -1.7259
16442TIP3    H270742   6.564   3.904  14.780  1.4520  0.8993 -0.2945
16443TIP3   OH270743   5.888   1.454  15.008 -0.1172 -0.8544 -0.2198
16443TIP3    H170744   5.929   1.506  14.939 -1.9573 -0.5376 -1.1363
16443TIP3    H270745   5.795   1.454  14.985 -0.6292 -1.5940  1.7193
16444TIP3   OH270746   6.778   0.626  16.786  0.1393 -0.8181  0.0894
16444TIP3    H170747   6.850   0.618  16.722 -0.2515 -1.3261 -0.2954
16444TIP3    H270748   6.700   0.639  16.732 -0.0308  0.0020  0.5146
16445TIP3   OH270749   6.314   2.322   6.286  0.1522 -0.3092  0.1696
16445TIP3    H170750   6.396   2.292   6.247 -0.0852  2.0301 -2.5009
16445TIP3    H270751   6.258   2.343   6.211 -1.7106  1.1510  1.8475
16446TIP3   OH270752   2.657   3.328  15.479  0.3985  0.1081  0.1172
16446TIP3    H170753   2.636   3.235  15.493  0.2946  0.2607  1.0194
16446TIP3    H270754   2.676   3.334  15.385 -3.1290 -0.1235 -0.7474
16447TIP3   OH270755   4.165   4.051   3.373  0.3093  0.5239  0.1208
16447TIP3    H170756   4.162   4.012   3.460 -0.5086  0.8450  0.2486
16447TIP3    H270757   4.233   4.118   3.380  1.0859 -0.2506  0.1553
16448TIP3   OH270758   0.065   1.919  16.266 -0.1682 -0.4056 -0.4362
16448TIP3    H170759   0.102   1.967  16.192  0.9375  0.3025  0.5297
16448TIP3    H270760  -0.014   1.967  16.290  0.0206 -0.0447 -0.5345
16449TIP3   OH270761   3.449   4.293  12.873  0.0375  0.6626 -0.3701
16449TIP3    H170762   3.479   4.366  12.927  0.6855 -0.5812  1.0459
16449TIP3    H270763   3.458   4.216  12.930 -1.2693 -0.4346 -1.5628
16450TIP3   OH270764   3.847   1.377   3.264 -0.0132  0.2678  0.1593
16450TIP3    H170765   3.916   1.428   3.305  0.6830  1.0371 -1.8766
16450TIP3    H270766   3.790   1.441   3.224 -0.9566 -0.4484  0.3171
16451TIP3   OH270767   5.238   6.030  13.127 -0.3820  0.1046 -0.0730
16451TIP3    H170768   5.174   5.960  13.115 -2.0680  1.4370  0.7090
16451TIP3    H270769   5.307   5.991  13.180 -0.8248 -1.2123 -0.4350
16452TIP3   OH270770   3.761   2.700  11.838  0.1209  0.2735 -0.2843
16452TIP3    H170771   3.695   2.660  11.781  0.4739 -1.0555  0.2150
16452TIP3    H270772   3.816   2.627  11.866  1.4015  1.2708 -0.1516
16453TIP3   OH270773   4.883   1.022   4.096  0.3580 -0.5400  0.0988
16453TIP3    H170774   4.838   0.996   4.176 -2.9914  0.9882 -1.1012
16453TIP3    H270775   4.847   0.964   4.029  0.6764  0.2906 -0.8138
16454TIP3   OH270776   6.596   5.996   4.387 -0.4300 -0.9464 -0.0949
16454TIP3    H170777   6.599   6.044   4.304 -0.8009  0.4849  0.6867
16454TIP3    H270778   6.655   5.922   4.374  2.2241  1.0864 -0.5347
16455TIP3   OH270779   0.535   5.754  14.367 -0.0964  0.0521 -0.0974
16455TIP3    H170780   0.545   5.659  14.375  1.0093  0.0690 -0.9929
16455TIP3    H270781   0.608   5.781  14.311 -0.8170  1.3340 -0.4641
16456TIP3   OH270782   3.327   5.848  11.149  0.5720 -1.2328  0.6573
16456TIP3    H170783   3.401   5.881  11.099  1.1614 -0.1610  2.1648
16456TIP3    H270784   3.252   5.861  11.092  1.4554 -1.8155 -0.6716
16457TIP3   OH270785   1.248   6.757  16.389  0.1680  0.0340 -1.1779
16457TIP3    H170786   1.261   6.671  16.351  2.9582 -1.3079  2.2031
16457TIP3    H270787   1.335   6.782  16.421 -1.1908  2.5703  0.9397
16458TIP3   OH270788   4.911   3.286  10.956  0.1670 -0.3249  0.2276
16458TIP3    H170789   4.859   3.230  10.898 -0.1561  0.5253 -0.3300
16458TIP3    H270790   4.858   3.294  11.035  1.4618 -3.0487  1.4724
16459TIP3   OH270791   5.023   0.938   2.404  0.4934  0.4068  0.1789
16459TIP3    H170792   5.003   0.902   2.490  1.6093  1.2720  0.8307
16459TIP3    H270793   4.939   0.938   2.358  0.2773 -2.2548  0.3858
16460TIP3   OH270794   4.162   6.059  15.046  0.1740 -0.5775 -0.5753
16460TIP3    H170795   4.165   6.127  15.112  0.8343 -1.3878  0.2652
16460TIP3    H270796   4.254   6.044  15.023  0.0212 -1.0176 -0.9169
16461TIP3   OH270797   2.016   2.898   2.565 -0.1805  0.0043  0.1577
16461TIP3    H170798   1.975   2.870   2.483  0.2551  0.5141 -0.2414
16461TIP3    H270799   2.107   2.915   2.542  0.4448 -1.7138  1.1645
16462TIP3   OH270800   4.500   6.300   5.155  0.2243 -0.2997  0.3868
16462TIP3    H170801   4.456   6.373   5.110 -0.3702  0.6290  2.3529
16462TIP3    H270802   4.592   6.326   5.158 -0.1576  1.0439  2.1553
16463TIP3   OH270803   6.447   0.788  14.983 -0.3595  0.4868 -0.2971
16463TIP3    H170804   6.498   0.722  14.936 -0.0140  0.5086  0.0393
16463TIP3    H270805   6.472   0.777  15.074 -0.9151  0.5445 -0.1368
16464TIP3   OH270806   2.941   5.839  11.239 -0.0565 -0.4430  0.2022
16464TIP3    H170807   2.928   5.933  11.227  2.0293 -0.1084  0.1075
16464TIP3    H270808   3.011   5.833  11.305 -0.5483 -1.9569  0.6364
16465TIP3   OH270809   2.900   5.679  14.492  0.0652  0.2414  0.1999
16465TIP3    H170810   2.865   5.590  14.495 -0.7908  0.5910  1.3147
16465TIP3    H270811   2.995   5.668  14.494  0.0310 -0.6919 -1.6435
16466TIP3   OH270812   1.244   4.585  14.238 -0.5162  0.1105 -0.2451
16466TIP3    H170813   1.274   4.563  14.326  0.5753 -0.9124 -0.8418
16466TIP3    H270814   1.305   4.652  14.208 -0.4384 -0.0650 -0.4857
16467TIP3   OH270815   1.118   3.584  16.465 -0.1431 -0.7884  0.1170
16467TIP3    H170816   1.116   3.611  16.557  1.8051 -0.0349 -0.0165
16467TIP3    H270817   1.117   3.489  16.468  1.7119 -0.8300  1.0535
16468TIP3   OH270818   6.305   2.573  13.153  0.5642 -0.3784 -0.2682
16468TIP3    H170819   6.374   2.518  13.117  0.6608 -0.6861  0.3693
16468TIP3    H270820   6.347   2.657  13.170  0.9032 -0.6886  0.5051
16469TIP3   OH270821   6.058   1.268  14.591  0.6924  0.3335 -0.9961
16469TIP3    H170822   6.005   1.326  14.536 -1.1041 -0.5287 -0.2416
16469TIP3    H270823   5.997   1.202  14.622  1.5124  0.9939  2.3662
16470TIP3   OH270824   1.532   2.268   3.170 -0.0486 -0.1815  0.2789
16470TIP3    H170825   1.606   2.217   3.138 -0.4899 -0.9759  0.5039
16470TIP3    H270826   1.534   2.258   3.265 -2.3001 -2.9480  0.1700
16471TIP3   OH270827   1.497   4.683  16.311 -0.1155  0.0155  0.5774
16471TIP3    H170828   1.436   4.748  16.348 -1.5567 -0.1576 -1.3746
16471TIP3    H270829   1.581   4.728  16.310 -0.9964  1.7352 -0.3356
16472TIP3   OH270830   2.629   4.705  13.249  0.5715 -0.0963  0.0604
16472TIP3    H170831   2.640   4.651  13.171  0.9505 -0.6604  0.4971
16472TIP3    H270832   2.541   4.742  13.240  1.1333  0.9913 -1.3310
16473TIP3   OH270833   2.223   4.785   3.516  0.4573  0.0791  0.1870
16473TIP3    H170834   2.138   4.751   3.487  0.2500  1.3556 -0.7767
16473TIP3    H270835   2.257   4.717   3.575 -0.7070 -0.9774 -0.3106
16474TIP3   OH270836   5.852   2.384   2.866  0.0583 -0.3155 -0.3353
16474TIP3    H170837   5.901   2.457   2.904  0.6642  0.0389 -1.7522
16474TIP3    H270838   5.786   2.363   2.933  1.3612 -0.0263  1.1050
16475TIP3   OH270839   1.392   4.912   5.384 -1.0900  0.2287 -0.0377
16475TIP3    H170840   1.331   4.848   5.421 -1.6153  0.4486 -0.4986
16475TIP3    H270841   1.344   4.951   5.311 -0.3631  0.3583 -0.4562
16476TIP3   OH270842   5.991   2.116  15.442 -0.8430 -0.2652 -0.5984
16476TIP3    H170843   6.070   2.169  15.429 -0.4571 -0.3840  1.0992
16476TIP3    H270844   5.919   2.176  15.424 -0.3937  0.2833 -0.6024
16477TIP3   OH270845   0.737   5.417  15.664  0.4747 -0.5633  0.3264
16477TIP3    H170846   0.704   5.343  15.715 -1.4743  0.4177  0.5736
16477TIP3    H270847   0.713   5.396  15.573 -0.6245  0.0101  0.4692
16478TIP3   OH270848   4.892   4.317  15.135  0.3464 -0.3810  0.9220
16478TIP3    H170849   4.814   4.374  15.132 -0.4019 -1.3902 -2.2504
16478TIP3    H270850   4.964   4.375  15.110 -0.3813 -0.5925 -2.0946
16479TIP3   OH270851   4.509   5.143   5.602  0.1250  0.6040 -0.4936
16479TIP3    H170852   4.522   5.225   5.556  2.5120  1.8619  2.1066
16479TIP3    H270853   4.446   5.164   5.672 -0.8834 -0.3878 -1.0623
16480TIP3   OH270854   1.292   2.410   2.435 -0.4207  0.3715  0.2153
16480TIP3    H170855   1.361   2.347   2.459  0.0947  0.5439 -0.7671
16480TIP3    H270856   1.251   2.433   2.518  1.4380  1.1103  0.9824
16481TIP3   OH270857   3.315   0.684   1.749 -0.1886 -0.1762 -0.4438
16481TIP3    H170858   3.256   0.609   1.755 -2.2248  1.4575  1.6963
16481TIP3    H270859   3.269   0.745   1.691  0.7954  0.0276 -1.0389
16482TIP3   OH270860   0.316   1.907   6.422 -0.6074 -0.2246  0.3595
16482TIP3    H170861   0.326   1.973   6.491 -0.0474 -0.9498  0.9949
16482TIP3    H270862   0.395   1.854   6.429 -0.4894 -0.2335 -0.9394
16483TIP3   OH270863   2.148   0.377   2.394 -0.0958  0.4130  0.0050
16483TIP3    H170864   2.157   0.305   2.331  0.0430  0.3180  0.1309
16483TIP3    H270865   2.149   0.456   2.341 -2.5556  0.2673 -0.3824
16484TIP3   OH270866   3.136   6.489   4.217  0.9089  0.0963 -0.8413
16484TIP3    H170867   3.045   6.511   4.237  1.0885  1.1088 -1.0761
16484TIP3    H270868   3.166   6.438   4.292  0.6131  1.1015 -0.0308
16485TIP3   OH270869   4.594   5.809   0.683 -0.2538  0.0466 -0.1437
16485TIP3    H170870   4.499   5.800   0.680 -0.3182  0.4831  0.3914
16485TIP3    H270871   4.614   5.879   0.621 -0.2459 -0.2600 -0.4927
16486TIP3   OH270872   5.607   6.461   5.425 -0.5945  0.1829 -0.0358
16486TIP3    H170873   5.605   6.557   5.426  0.1936  0.2231 -0.8919
16486TIP3    H270874   5.689   6.439   5.381  0.1339 -0.8998  1.7331
16487TIP3   OH270875   3.235   3.758   4.711 -0.0853 -0.5381  0.3556
16487TIP3    H170876   3.308   3.698   4.728 -0.5490 -1.6147 -1.2790
16487TIP3    H270877   3.270   3.844   4.731  1.5450 -1.0597 -0.0907
16488TIP3   OH270878   3.344   5.290  11.306 -0.7126  0.8310  0.7909
16488TIP3    H170879   3.421   5.252  11.263 -0.7024  0.1441  1.3980
16488TIP3    H270880   3.333   5.375  11.263 -0.2838  0.4692 -0.0732
16489TIP3   OH270881   1.402   2.842  15.383  0.0459  0.3641  0.1710
16489TIP3    H170882   1.359   2.916  15.427  0.0333  1.0407 -0.9401
16489TIP3    H270883   1.333   2.803  15.329  0.6357  1.1059 -1.1835
16490TIP3   OH270884   3.874   0.719  11.297 -0.3973  0.0323 -0.3275
16490TIP3    H170885   3.837   0.652  11.239 -0.9177  1.8030 -2.1521
16490TIP3    H270886   3.962   0.735  11.263 -0.7353  1.1451 -0.7211
16491TIP3   OH270887   4.574   6.408   5.645 -0.9143  0.2469  0.4656
16491TIP3    H170888   4.562   6.426   5.552 -2.9406  3.6932  1.1967
16491TIP3    H270889   4.505   6.346   5.667 -0.9793  0.0959 -0.1449
16492TIP3   OH270890   5.353   4.677  12.463  0.1366 -0.5223  0.2757
16492TIP3    H170891   5.274   4.635  12.495 -1.1352  1.5550  0.0379
16492TIP3    H270892   5.423   4.642  12.517 -1.1058 -1.5748  1.2430
16493TIP3   OH270893   1.039   6.477  14.966  0.3583  0.4332  0.5274
16493TIP3    H170894   1.091   6.479  14.886 -2.1508 -0.5046 -1.2746
16493TIP3    H270895   1.099   6.506  15.035  3.3489 -1.0142 -1.2573
16494TIP3   OH270896   1.139   6.498   3.323  0.6176 -0.1528 -0.3452
16494TIP3    H170897   1.118   6.436   3.253  1.1983 -0.1325 -0.5448
16494TIP3    H270898   1.198   6.449   3.381  0.0069 -0.2238  0.2167
16495TIP3   OH270899   2.297   1.062   3.790 -0.0178  0.1805 -0.5409
16495TIP3    H170900   2.259   1.136   3.743 -1.8289 -1.9152 -2.6869
16495TIP3    H270901   2.236   1.045   3.862 -0.1371  0.1875 -0.6398
16496TIP3   OH270902   4.402   1.612   2.734  0.4065  0.1263 -0.2348
16496TIP3    H170903   4.327   1.671   2.733  0.4381  0.1630 -0.8535
16496TIP3    H270904   4.466   1.655   2.790  0.3549  0.5913 -0.5261
16497TIP3   OH270905   5.129   0.030  16.509  0.4560 -0.1756  0.3907
16497TIP3    H170906   5.193  -0.012  16.450  0.7626 -1.6904  1.7387
16497TIP3    H270907   5.051   0.040  16.455  1.2866  0.1375 -0.8026
16498TIP3   OH270908   2.276   2.345   1.826 -0.0946 -0.4131  0.3594
16498TIP3    H170909   2.208   2.409   1.844 -1.4151 -1.5687 -0.2953
16498TIP3    H270910   2.344   2.393   1.779 -0.1275  0.9034  1.6025
16499TIP3   OH270911   3.653   2.846  13.270  0.1540 -0.4133 -0.0601
16499TIP3    H170912   3.694   2.912  13.326 -0.0601 -0.9981  0.8062
16499TIP3    H270913   3.674   2.874  13.181  0.3077  0.6650  0.2972
16500TIP3   OH270914   1.271   6.203   3.232 -0.5390  0.0151  0.8823
16500TIP3    H170915   1.340   6.160   3.283  0.7651  1.1386  0.1248
16500TIP3    H270916   1.301   6.196   3.142 -0.9166  1.4241  0.6392
16501TIP3   OH270917   4.765   3.647   2.109  0.1334  0.1022 -0.0097
16501TIP3    H170918   4.824   3.582   2.148 -0.2275  0.7365  1.6849
16501TIP3    H270919   4.753   3.712   2.178 -2.6323 -0.0472 -0.2646
16502TIP3   OH270920   3.171   4.770   6.595 -0.6572 -0.8188 -0.0370
16502TIP3    H170921   3.229   4.733   6.529 -1.0740 -0.2639 -0.7264
16502TIP3    H270922   3.220   4.846   6.629 -0.6014 -0.8860  0.0345
16503TIP3   OH270923   6.099   6.694  16.383 -0.3341  0.2546 -0.1814
16503TIP3    H170924   6.188   6.681  16.353  0.1304  0.0093  1.2113
16503TIP3    H270925   6.060   6.752  16.318  0.0812 -1.5137 -2.0741
16504TIP3   OH270926   2.389   3.794  12.545 -0.4207  0.0973  0.1252
16504TIP3    H170927   2.375   3.821  12.635  0.1013  0.7996  0.0004
16504TIP3    H270928   2.427   3.871  12.502  0.3312 -0.5756 -0.4359
16505TIP3   OH270929   3.851   4.211   0.310 -0.0685 -0.5862 -0.5260
16505TIP3    H170930   3.884   4.238   0.395  1.1490  0.7657 -1.3782
16505TIP3    H270931   3.760   4.240   0.309  0.8150  2.4976 -0.8734
16506TIP3   OH270932   5.236   6.200   5.853 -0.5218 -0.0875  0.1985
16506TIP3    H170933   5.262   6.199   5.761 -0.6187 -0.7805  0.1714
16506TIP3    H270934   5.192   6.116   5.866  2.6785 -1.6683  1.7725
16507TIP3   OH270935   0.240   0.292   4.150  0.1321 -0.3925 -0.1692
16507TIP3    H170936   0.307   0.234   4.113 -0.7341 -0.6467 -1.4358
16507TIP3    H270937   0.157   0.252   4.124 -0.5452 -0.2899  1.6858
16508TIP3   OH270938   4.586   1.007   5.270 -0.4241 -0.1600 -0.1969
16508TIP3    H170939   4.549   1.008   5.181  0.4177 -0.0208 -0.5489
16508TIP3    H270940   4.573   1.096   5.302  0.2403  0.0867 -0.5918
16509TIP3   OH270941   5.754   3.578  12.276 -0.4681  0.0522  0.1592
16509TIP3    H170942   5.716   3.529  12.203  1.6262 -1.7778  0.1879
16509TIP3    H270943   5.809   3.644  12.234  1.4882 -1.5994 -0.0614
16510TIP3   OH270944   6.669   2.761   2.251 -0.5258  0.2665  0.2812
16510TIP3    H170945   6.610   2.801   2.316 -0.6672  1.2714 -0.4448
16510TIP3    H270946   6.713   2.836   2.210  0.3142 -0.4169 -0.0693
16511TIP3   OH270947   3.862   2.861   4.921  0.0978  0.8436  0.4050
16511TIP3    H170948   3.905   2.782   4.891  0.1914  0.8601  0.4953
16511TIP3    H270949   3.899   2.931   4.866 -0.1212  0.7982  0.2010
16512TIP3   OH270950   6.652   2.296  14.409  0.1236  0.2204 -0.4032
16512TIP3    H170951   6.601   2.376  14.423 -1.5250 -0.4193 -2.2412
16512TIP3    H270952   6.586   2.230  14.388  1.4458 -1.6603  1.0658
16513TIP3   OH270953   1.882   3.240   4.486 -0.1156 -0.2516 -0.1883
16513TIP3    H170954   1.802   3.276   4.523  0.3408 -0.1824  0.7509
16513TIP3    H270955   1.881   3.269   4.395  0.8829  3.3616  0.8032
16514TIP3   OH270956   4.571   1.407   1.387  0.5435 -0.2136 -0.0068
16514TIP3    H170957   4.587   1.497   1.360 -1.3156 -0.0153 -0.5880
16514TIP3    H270958   4.543   1.362   1.307  0.1623 -0.9708  0.5363
16515TIP3   OH270959   5.399   2.157   2.955  0.0271 -0.6695  0.1644
16515TIP3    H170960   5.488   2.172   2.922 -0.2825 -0.3299 -0.5307
16515TIP3    H270961   5.365   2.245   2.974  0.1830 -0.8533  1.3765
16516TIP3   OH270962   1.980   3.366  12.671 -0.7068  0.1346 -0.5277
16516TIP3    H170963   2.051   3.302  12.666 -1.3858 -0.5452 -3.0452
16516TIP3    H270964   2.014   3.436  12.726  0.9920 -1.2545  0.2764
16517TIP3   OH270965   2.241   6.140   5.192  0.0059 -0.4239 -0.0352
16517TIP3    H170966   2.185   6.163   5.266 -0.9529 -0.0283 -0.8559
16517TIP3    H270967   2.275   6.224   5.160 -0.0264 -0.5350 -0.3744
16518TIP3   OH270968   5.994   6.157  14.212  0.2544  0.0002 -0.7625
16518TIP3    H170969   6.003   6.100  14.136  1.0182  0.1114 -0.7620
16518TIP3    H270970   6.044   6.114  14.281 -1.3113 -0.6590  0.0150
16519TIP3   OH270971   6.078   1.260  15.403 -0.0175  0.6109 -0.2133
16519TIP3    H170972   6.142   1.193  15.377  1.2990  1.2852  1.1412
16519TIP3    H270973   5.993   1.221  15.383  0.7512 -0.9192 -0.6854
16520TIP3   OH270974   2.234   6.217  14.831 -0.1738 -0.7363 -0.0407
16520TIP3    H170975   2.262   6.295  14.783  0.5302 -0.5243  0.6859
16520TIP3    H270976   2.147   6.198  14.798 -0.0103 -0.1392 -0.8345
16521TIP3   OH270977   0.016   4.798   1.672  0.1119 -1.0233 -0.0229
16521TIP3    H170978  -0.007   4.837   1.756  0.2502 -1.3630  0.1797
16521TIP3    H270979   0.095   4.747   1.691  0.5148 -0.5908 -0.5037
16522TIP3   OH270980   1.927   2.323   1.811 -0.5155  0.6000  0.3478
16522TIP3    H170981   1.927   2.299   1.719 -0.0391  0.7998  0.2966
16522TIP3    H270982   1.976   2.253   1.854 -0.1007  0.8902  0.3500
16523TIP3   OH270983   2.134   4.806   4.065  0.1958 -0.0870  0.3180
16523TIP3    H170984   2.187   4.734   4.099 -1.5933 -0.5685  2.2949
16523TIP3    H270985   2.091   4.769   3.987  1.0311 -0.4025  0.0041
16524TIP3   OH270986   3.499   2.172  11.994 -0.2007 -0.0808  0.1632
16524TIP3    H170987   3.492   2.138  11.905  1.3719 -0.4137  0.1297
16524TIP3    H270988   3.460   2.103  12.049  0.6042 -0.7795 -0.1197
16525TIP3   OH270989   1.309   3.554  12.352 -0.6749  0.0788  0.6648
16525TIP3    H170990   1.302   3.571  12.446  1.3312  0.0128  0.8785
16525TIP3    H270991   1.301   3.640  12.311 -3.1603 -0.0595  0.7149
16526TIP3   OH270992   2.204   6.393  13.828 -0.9372 -0.4747 -0.8893
16526TIP3    H170993   2.110   6.374  13.827 -0.8388 -1.1815  0.5774
16526TIP3    H270994   2.245   6.307  13.829 -0.3560 -0.2026  1.2292
16527TIP3   OH270995   6.124   4.253  16.149 -0.3089 -0.3543 -0.0585
16527TIP3    H170996   6.044   4.239  16.199 -1.1069 -0.6096 -1.3569
16527TIP3    H270997   6.106   4.333  16.098  1.1013  0.8476  1.2357
16528TIP3   OH270998   6.526   4.670  14.281  0.3802  0.0311  0.0359
16528TIP3    H170999   6.579   4.594  14.256  0.4068  0.5811 -1.7260
16528TIP3    H271000   6.512   4.660  14.375  0.8480 -1.8550 -0.0620
16529TIP3   OH271001   0.298   0.025  12.462 -0.5955 -0.3991 -0.3629
16529TIP3    H171002   0.378   0.076  12.464 -0.5425 -0.4848 -0.2513
16529TIP3    H271003   0.301  -0.021  12.378  0.6639 -2.2724  0.6319
16530TIP3   OH271004   0.526   4.593  10.536 -0.2776 -0.1195 -0.5400
16530TIP3    H171005   0.548   4.648  10.611  1.8228 -1.4748 -0.0718
16530TIP3    H271006   0.484   4.652  10.474  0.1016  1.5564  0.7242
16531TIP3   OH271007   4.764   1.171   0.634  0.3792 -0.5633  0.0430
16531TIP3    H171008   4.736   1.092   0.587  0.0094 -1.5429  1.8098
16531TIP3    H271009   4.838   1.204   0.583  0.7508 -2.2450 -0.5676
16532TIP3   OH271010   2.139   2.191   0.705  0.6503  0.1670 -0.3982
16532TIP3    H171011   2.163   2.106   0.741 -0.9365 -0.1789 -0.0913
16532TIP3    H271012   2.045   2.199   0.721  0.6848  1.8142 -0.7686
16533TIP3   OH271013   2.619   5.988   4.776 -0.5164 -0.1233 -0.2830
16533TIP3    H171014   2.638   6.038   4.856 -1.1296  1.6774 -1.2074
16533TIP3    H271015   2.525   6.000   4.762 -0.4033 -0.3707 -1.3021
16534TIP3   OH271016   3.119   0.264  13.660  0.4834 -0.5316  0.6098
16534TIP3    H171017   3.212   0.262  13.682 -0.1980 -2.6569  4.1796
16534TIP3    H271018   3.088   0.349  13.690  0.9812 -0.5226  1.1077
16535TIP3   OH271019   5.180   3.931   2.305  0.0634  0.1867  0.0795
16535TIP3    H171020   5.099   3.895   2.269  1.3709  0.6776 -3.8896
16535TIP3    H271021   5.172   3.918   2.399 -3.1145 -2.8646 -0.3837
16536TIP3   OH271022   4.257   4.587   2.647 -0.9001  0.3612 -0.6453
16536TIP3    H171023   4.181   4.562   2.595 -1.1657 -0.4617  0.1307
16536TIP3    H271024   4.224   4.599   2.735 -0.2319  0.5520 -0.4107
16537TIP3   OH271025   2.629   5.723   5.306 -0.3837 -0.0996 -0.3467
16537TIP3    H171026   2.597   5.648   5.355 -1.2509 -0.4264 -1.3634
16537TIP3    H271027   2.557   5.787   5.308 -0.5099 -0.1909 -1.3117
16538TIP3   OH271028   2.801   4.510   5.332 -0.1533  0.1787  0.0127
16538TIP3    H171029   2.771   4.565   5.404 -0.4420 -0.0563  0.0743
16538TIP3    H271030   2.727   4.508   5.271  0.6026  1.5842 -1.0080
16539TIP3   OH271031   6.397   4.300   5.459  0.0456 -0.4108  0.4361
16539TIP3    H171032   6.419   4.212   5.490 -0.1773 -0.7656 -0.3846
16539TIP3    H271033   6.403   4.293   5.363  0.2166  0.5193  0.3774
16540TIP3   OH271034   3.682   5.985   4.497 -0.2086 -0.1413 -0.2981
16540TIP3    H171035   3.736   5.907   4.483  0.4947  0.3107 -0.1282
16540TIP3    H271036   3.735   6.058   4.463 -1.0388  0.2192 -0.8657
16541TIP3   OH271037   4.917   5.976  14.721 -0.8748 -0.4045 -0.0375
16541TIP3    H171038   4.950   6.063  14.743 -1.9160  0.3825 -1.4489
16541TIP3    H271039   4.921   5.973  14.625 -2.1069 -1.4005 -0.0756
16542TIP3   OH271040   2.062   2.184   3.986  0.1978  0.2129 -0.0425
16542TIP3    H171041   1.973   2.167   4.017  0.4013 -0.1191  0.3639
16542TIP3    H271042   2.118   2.137   4.047  0.6075 -0.5609 -1.0049
16543TIP3   OH271043   6.669   6.439  15.886  0.0749 -0.3075 -0.7701
16543TIP3    H171044   6.601   6.406  15.945  0.4414 -0.0793 -0.2030
16543TIP3    H271045   6.668   6.379  15.812 -0.9845 -0.1002 -0.9430
16544TIP3   OH271046   6.513   2.163  13.059 -0.1830 -0.3063 -0.4530
16544TIP3    H171047   6.599   2.172  13.019 -0.0261  2.4180  0.3173
16544TIP3    H271048   6.457   2.225  13.013 -1.1693 -0.4395  0.5069
16545TIP3   OH271049   0.897   3.762  15.803  0.6097  0.1516  0.1094
16545TIP3    H171050   0.974   3.713  15.775  0.8431  0.6911 -0.1845
16545TIP3    H271051   0.907   3.770  15.898  1.2478  0.7928 -0.0091
16546TIP3   OH271052   1.787   4.090  11.928 -0.2183  0.0622  0.1498
16546TIP3    H171053   1.823   4.099  11.840  0.1353 -1.0053  0.1669
16546TIP3    H271054   1.776   3.995  11.940 -1.8754  0.2683  0.6119
16547TIP3   OH271055   0.517   2.657   1.884  0.0551 -0.4849  0.0002
16547TIP3    H171056   0.462   2.700   1.818 -0.8754 -4.0867 -1.8832
16547TIP3    H271057   0.605   2.691   1.868 -0.8988  2.3817  0.3309
16548TIP3   OH271058   4.892   3.095   5.982  0.1790 -0.2015  0.2109
16548TIP3    H171059   4.892   3.136   5.896  2.3865  1.1991  0.8212
16548TIP3    H271060   4.809   3.124   6.021 -0.7391 -0.6504 -1.2819
16549TIP3   OH271061   3.551   6.174  13.189 -0.3936  0.1328 -0.0097
16549TIP3    H171062   3.539   6.097  13.133  0.0984  0.5973 -0.7703
16549TIP3    H271063   3.498   6.242  13.148 -2.7475 -0.3679  1.9424
16550TIP3   OH271064   3.989   2.094   0.888 -0.1549  0.1958  0.2208
16550TIP3    H171065   3.908   2.067   0.844 -0.0414  0.0077  0.1271
16550TIP3    H271066   4.051   2.023   0.870 -0.1225  0.0920  0.7354
16551TIP3   OH271067   2.684   6.471   6.104 -0.3859 -0.1650  0.6494
16551TIP3    H171068   2.622   6.542   6.087 -0.0771  0.3766  1.7256
16551TIP3    H271069   2.662   6.441   6.192 -1.9101 -2.8552 -0.5083
16552TIP3   OH271070   2.529   3.812  14.016 -0.1351  0.9250 -0.1242
16552TIP3    H171071   2.448   3.788  14.060  1.0020  0.2078  1.7118
16552TIP3    H271072   2.507   3.889  13.964 -2.2409  0.0355 -0.6113
16553TIP3   OH271073   3.770   0.447   3.355 -0.1948 -0.2915 -0.3651
16553TIP3    H171074   3.705   0.438   3.424 -0.3564 -0.0557 -0.4836
16553TIP3    H271075   3.833   0.377   3.371 -0.7947 -0.8971 -0.5981
16554TIP3   OH271076   5.894   3.104  16.037 -0.3694 -0.1233  0.2363
16554TIP3    H171077   5.819   3.115  16.095 -0.1876  0.9512  0.2882
16554TIP3    H271078   5.877   3.164  15.964  1.0475  1.1553  0.8977
16555TIP3   OH271079   1.244   6.237   3.618 -0.3465  0.0107 -0.8055
16555TIP3    H171080   1.293   6.156   3.606  1.4092  1.0428 -0.9815
16555TIP3    H271081   1.301   6.293   3.670 -1.8232  0.8924 -0.0550
16556TIP3   OH271082   6.664   6.471   2.373 -0.8634 -0.1204 -0.3772
16556TIP3    H171083   6.741   6.430   2.334 -2.3515 -2.2488 -1.2447
16556TIP3    H271084   6.693   6.560   2.395  1.7447 -0.7671 -0.8709
16557TIP3   OH271085   4.253   6.045  13.035 -0.1042  0.8078  0.6714
16557TIP3    H171086   4.306   6.032  13.114  0.7412  1.9091  0.3149
16557TIP3    H271087   4.191   6.113  13.060  0.3921  1.4086  0.2980
16558TIP3   OH271088   1.270   0.246   1.576 -0.1898 -0.1078  0.1749
16558TIP3    H171089   1.320   0.306   1.521  0.7300 -0.3655  0.7131
16558TIP3    H271090   1.293   0.270   1.666  0.1123 -1.1993  0.4003
16559TIP3   OH271091   5.457   0.603   5.512 -0.2235  0.1107  0.3015
16559TIP3    H171092   5.544   0.574   5.542  0.6528  1.2006 -1.0626
16559TIP3    H271093   5.415   0.638   5.591  0.9232  0.3769  0.8155
16560TIP3   OH271094   4.910   3.210  16.258 -0.2923  0.2452 -1.0279
16560TIP3    H171095   4.831   3.259  16.283 -0.4561  0.6435 -2.2636
16560TIP3    H271096   4.904   3.201  16.163  0.6986 -0.5311 -1.0336
16561TIP3   OH271097   2.120   5.015   3.173  0.3380  0.0737 -0.1479
16561TIP3    H171098   2.045   4.972   3.132  0.7218 -0.0962 -0.6999
16561TIP3    H271099   2.090   5.040   3.260  0.4945 -2.5715  0.7636
16562TIP3   OH271100   3.910   2.201   2.369 -0.1263  0.4793  0.3358
16562TIP3    H171101   3.817   2.185   2.351 -0.5901  1.1946  1.8988
16562TIP3    H271102   3.956   2.158   2.297 -1.6725  0.3743 -0.6468
16563TIP3   OH271103   3.321   3.262  12.990  0.7679 -0.5407  0.9912
16563TIP3    H171104   3.265   3.191  13.019 -1.5936  0.8423  0.0642
16563TIP3    H271105   3.292   3.282  12.901  1.1554  1.7571  1.3175
16564TIP3   OH271106   5.612   3.576  16.234 -0.4593  0.0882 -0.3294
16564TIP3    H171107   5.686   3.521  16.260 -0.9619 -0.0097  0.9800
16564TIP3    H271108   5.536   3.517  16.237 -0.8838  0.6510  0.3097
16565TIP3   OH271109   0.854   0.507  14.195 -0.3583 -0.2163  0.1942
16565TIP3    H171110   0.814   0.430  14.155 -1.9269  0.9685 -0.5695
16565TIP3    H271111   0.913   0.541  14.128 -2.3404  1.2648 -0.9058
16566TIP3   OH271112   3.697   4.934   4.977  0.4829 -0.2069  0.2343
16566TIP3    H171113   3.636   5.006   4.995 -0.8575 -1.0103 -0.9458
16566TIP3    H271114   3.715   4.897   5.064 -0.3422  0.3365  0.6603
16567TIP3   OH271115   5.830   2.759   1.568 -0.0881  0.5456 -0.5146
16567TIP3    H171116   5.835   2.786   1.660 -1.6641  1.0715 -0.5513
16567TIP3    H271117   5.737   2.745   1.553  0.1066  0.8723 -2.1492
16568TIP3   OH271118   3.379   2.339   6.025 -0.7247  0.5120  0.7056
16568TIP3    H171119   3.300   2.323   5.974  1.0545 -0.1880 -2.0681
16568TIP3    H271120   3.393   2.258   6.074 -0.9783  0.0795  0.0745
16569TIP3   OH271121   3.546   6.016  16.176  0.0155  0.0859 -0.2331
16569TIP3    H171122   3.513   6.058  16.255 -0.2035 -0.1905 -0.1765
16569TIP3    H271123   3.606   5.948  16.208 -0.1033 -0.0520 -0.3000
16570TIP3   OH271124   2.887   5.169   3.980  0.0702 -0.1285 -0.0492
16570TIP3    H171125   2.976   5.202   3.968 -0.7255  2.4417  0.3619
16570TIP3    H271126   2.875   5.108   3.908  1.5729  0.8770 -1.2348
16571TIP3   OH271127   4.953   2.402  12.122 -0.0997  0.1959 -0.0592
16571TIP3    H171128   4.930   2.434  12.209 -0.6401  0.3428 -0.2512
16571TIP3    H271129   5.048   2.396  12.122 -0.0630  0.8074  0.3299
16572TIP3   OH271130   6.036   6.083   0.214 -0.4484  0.3973  0.1975
16572TIP3    H171131   6.010   6.006   0.265 -3.3109  0.6025 -0.7984
16572TIP3    H271132   6.073   6.047   0.134  0.8318  0.0934  0.8998
16573TIP3   OH271133   3.630   1.137   0.006  0.1260  0.3115  0.2847
16573TIP3    H171134   3.563   1.188   0.053 -0.2034 -0.9027  1.1967
16573TIP3    H271135   3.581   1.070  -0.040  0.3394  2.0793 -2.7729
16574TIP3   OH271136   4.937   0.338  11.129  0.3804 -0.0951  0.3931
16574TIP3    H171137   4.953   0.422  11.087 -1.2824  0.6156  1.0829
16574TIP3    H271138   4.964   0.273  11.063 -0.3437  0.9832 -1.0340
16575TIP3   OH271139   4.525   1.636  12.342 -0.2723 -0.5946  0.5620
16575TIP3    H171140   4.557   1.549  12.367 -0.2834 -0.2507  1.8345
16575TIP3    H271141   4.489   1.624  12.254  0.1523 -1.7709  0.5355
16576TIP3   OH271142   3.422   6.238  16.684  0.4204 -0.4323  0.1442
16576TIP3    H171143   3.470   6.174  16.737  1.0069  0.1425  0.3162
16576TIP3    H271144   3.479   6.315  16.681 -0.3214  0.1246  0.0205
16577TIP3   OH271145   6.430   0.600  14.593  0.0162  0.2111 -0.0790
16577TIP3    H171146   6.468   0.595  14.505 -0.7508  0.1099 -0.4074
16577TIP3    H271147   6.489   0.658  14.641  0.7465 -0.1662 -0.4988
16578TIP3   OH271148   4.196   1.125  12.567 -0.5883  0.3278  0.2719
16578TIP3    H171149   4.274   1.169  12.535 -1.3043  1.6815  0.3045
16578TIP3    H271150   4.226   1.039  12.595  0.8284  0.7237  0.0219
16579TIP3   OH271151   3.244   6.016   1.440 -0.1486  0.5929  0.3249
16579TIP3    H171152   3.273   6.015   1.349  1.8927  0.9437  0.9086
16579TIP3    H271153   3.288   6.091   1.478 -0.6275  0.2069  1.7085
16580TIP3   OH271154   6.460   1.596   1.252 -0.7768 -0.3609 -0.2709
16580TIP3    H171155   6.459   1.502   1.235 -1.2031 -0.1212 -1.6789
16580TIP3    H271156   6.535   1.609   1.309 -0.4496 -1.4990 -0.4163
16581TIP3   OH271157   6.344   3.149   1.403  0.4480 -0.3445 -0.2243
16581TIP3    H171158   6.330   3.242   1.421  1.6080 -0.3291  0.6985
16581TIP3    H271159   6.380   3.114   1.484 -1.8214 -2.0515  0.1371
16582TIP3   OH271160   3.112   3.658   6.493  0.2285  0.5576  0.3459
16582TIP3    H171161   3.128   3.617   6.578 -0.5461  1.0115  0.7278
16582TIP3    H271162   3.141   3.749   6.504  0.6726  0.4737 -0.0675
16583TIP3   OH271163   2.028   2.324  16.457  0.5467 -0.0140 -0.4259
16583TIP3    H171164   2.092   2.265  16.497  0.8446  0.9742  0.5954
16583TIP3    H271165   2.075   2.407  16.448  0.2124  0.0433 -2.0556
16584TIP3   OH271166   3.405   4.928   0.233 -0.8166 -0.6717 -0.2001
16584TIP3    H171167   3.383   5.021   0.234 -1.1820 -0.7567  0.7876
16584TIP3    H271168   3.493   4.924   0.195 -0.0628  0.2562  1.3440
16585TIP3   OH271169   3.087   5.052  16.105  0.0703 -0.0468 -0.5231
16585TIP3    H171170   3.032   4.975  16.097  1.8355 -1.4050 -0.1352
16585TIP3    H271171   3.082   5.094  16.019 -0.4247 -0.9276 -0.9347
16586TIP3   OH271172   5.512   6.558   1.883 -0.4746  0.1048  0.2239
16586TIP3    H171173   5.458   6.635   1.867  0.2204  0.7827  1.0825
16586TIP3    H271174   5.500   6.504   1.804 -0.8959  1.1178 -0.4239
16587TIP3   OH271175   3.242   1.510   1.453 -0.3107  0.5335 -0.0350
16587TIP3    H171176   3.263   1.595   1.414  1.8897  0.3240  0.5967
16587TIP3    H271177   3.296   1.506   1.532 -1.3408 -0.9337  0.6371
16588TIP3   OH271178   3.945   4.581  13.227  0.1430  0.3965 -0.2379
16588TIP3    H171179   3.957   4.491  13.197 -0.7595  0.9902 -2.5828
16588TIP3    H271180   4.027   4.602  13.272  0.4663 -1.4989  0.1354
16589TIP3   OH271181   2.992   3.040   4.656 -0.1683  0.7795  0.5996
16589TIP3    H171182   2.966   3.130   4.632 -2.8971  0.0188  0.3170
16589TIP3    H271183   2.976   2.989   4.577 -1.8322 -0.4524  1.6593
16590TIP3   OH271184   2.121   4.139  15.247 -0.6308  0.5366 -0.1758
16590TIP3    H171185   2.185   4.081  15.205  0.9237  0.9322  1.4662
16590TIP3    H271186   2.055   4.080  15.283  0.3930 -0.1709  0.6044
16591TIP3   OH271187   0.558   4.375  14.517 -0.2357  0.3221  0.2878
16591TIP3    H171188   0.595   4.445  14.464 -1.9185  0.8564 -0.2292
16591TIP3    H271189   0.620   4.303  14.508  0.0739  0.7765 -1.5336
16592TIP3   OH271190   0.822   3.971  14.701 -0.3540  0.4951 -0.1116
16592TIP3    H171191   0.908   3.931  14.688 -1.1654 -0.9523 -1.2732
16592TIP3    H271192   0.829   4.015  14.786  0.8612 -1.3607  0.8148
16593TIP3   OH271193   3.054   5.824   1.275  0.9078 -0.0961  0.4022
16593TIP3    H171194   3.034   5.875   1.353 -0.7170 -0.3482  0.1845
16593TIP3    H271195   2.999   5.746   1.282 -0.8833  0.8372 -1.9698
16594TIP3   OH271196   6.170   2.226  10.846  0.2645  0.0492 -0.0208
16594TIP3    H171197   6.188   2.318  10.866  0.8227 -0.0184 -0.1839
16594TIP3    H271198   6.120   2.195  10.922 -1.1357  0.8312 -0.5868
16595TIP3   OH271199   1.259   0.027   6.202 -0.0279  0.2497 -0.4875
16595TIP3    H171200   1.330  -0.036   6.187 -1.0761 -0.5993 -2.2860
16595TIP3    H271201   1.262   0.046   6.295  1.7210 -0.7840 -0.2990
16596TIP3   OH271202   6.168   2.107   0.709  0.0164  0.7759  0.3491
16596TIP3    H171203   6.078   2.080   0.690 -0.9131  2.2518  2.2804
16596TIP3    H271204   6.219   2.076   0.634 -1.6940 -2.0185  0.1907
16597TIP3   OH271205   6.048   5.176  17.202 -0.2886  0.1876  0.1828
16597TIP3    H171206   6.063   5.176  17.296 -1.3721  1.7227  0.3854
16597TIP3    H271207   6.100   5.249  17.169 -2.0961  1.4512  0.0161
16598TIP3   OH271208   5.918   0.557  11.763 -0.0539  1.0172  0.4033
16598TIP3    H171209   5.844   0.497  11.773  0.0936  0.8398  0.4152
16598TIP3    H271210   5.887   0.639  11.803 -0.4037  1.0733  0.0250
16599TIP3   OH271211   3.338   3.896   0.723 -0.1318  0.0962 -0.1281
16599TIP3    H171212   3.419   3.923   0.767  0.3311 -1.6882  0.2127
16599TIP3    H271213   3.339   3.800   0.728 -0.9350 -0.1085 -2.4856
16600TIP3   OH271214   4.181   2.984  15.179  0.1506  0.4719  0.1346
16600TIP3    H171215   4.107   2.931  15.150  0.6058  0.4756 -1.1161
16600TIP3    H271216   4.164   3.071  15.143 -0.7141  1.2932  2.3792
16601TIP3   OH271217   3.357   5.372   3.413  0.2120  0.2057  0.3240
16601TIP3    H171218   3.400   5.458   3.416 -0.5795  0.6415 -0.3634
16601TIP3    H271219   3.264   5.392   3.414  0.0167 -0.6388 -0.0113
16602TIP3   OH271220   4.135   4.157   0.378 -0.5259 -0.3568 -0.2870
16602TIP3    H171221   4.052   4.189   0.342  0.5534  1.1983 -1.5378
16602TIP3    H271222   4.185   4.127   0.302  1.5546  2.4027 -0.1695
16603TIP3   OH271223   6.670   5.652  11.922 -0.2143  0.0580 -0.3034
16603TIP3    H171224   6.628   5.696  11.848  0.9983  1.0209 -0.4525
16603TIP3    H271225   6.609   5.664  11.995 -0.5211  0.8162 -0.6743
16604TIP3   OH271226   4.176   5.386  13.491 -1.2142 -0.1052 -0.5036
16604TIP3    H171227   4.228   5.371  13.412 -3.1349 -1.4293 -1.6046
16604TIP3    H271228   4.191   5.309  13.546  0.9616  1.2972  1.0076
16605TIP3   OH271229   3.652   6.555  15.588  0.2251  0.1677 -0.3215
16605TIP3    H171230   3.664   6.507  15.506  0.6716 -1.5695  0.7328
16605TIP3    H271231   3.730   6.610  15.595 -0.3241  1.1770 -1.5632
16606TIP3   OH271232   4.916   6.574   2.006 -0.0143 -0.1788 -0.2404
16606TIP3    H171233   4.896   6.570   2.100  2.0316  1.4458  0.3433
16606TIP3    H271234   4.997   6.523   1.997  1.4937  2.1262 -0.5123
16607TIP3   OH271235   4.344   2.049  14.105  0.1595  0.1698 -0.2731
16607TIP3    H171236   4.354   1.956  14.086 -1.1974 -0.1396  0.4069
16607TIP3    H271237   4.257   2.056  14.144  0.9567  1.4435  1.4045
16608TIP3   OH271238   6.427   5.179   6.556  0.0979 -0.4659  0.1792
16608TIP3    H171239   6.364   5.220   6.615  0.5396  1.0592 -0.3483
16608TIP3    H271240   6.451   5.097   6.598  2.2369  1.5934  3.4013
16609TIP3   OH271241   3.145   6.532  11.478 -0.0476  0.0238 -0.4223
16609TIP3    H171242   3.061   6.495  11.454 -0.6393  0.9431  0.1785
16609TIP3    H271243   3.172   6.482  11.555  0.2135 -0.6178 -0.9229
16610TIP3   OH271244   2.632   5.451   2.818  0.0924  0.1997  0.1092
16610TIP3    H171245   2.604   5.540   2.837  1.2188  0.7363 -0.6372
16610TIP3    H271246   2.581   5.396   2.878  0.4378  1.4540  1.6110
16611TIP3   OH271247   6.102   6.143   0.846 -0.6204 -0.8828 -0.0969
16611TIP3    H171248   6.075   6.130   0.755 -0.3105 -2.7309  0.0232
16611TIP3    H271249   6.142   6.230   0.848 -0.7728 -0.7546 -1.6828
16612TIP3   OH271250   5.645   0.841   4.883 -0.1402 -1.0295 -0.2159
16612TIP3    H171251   5.730   0.798   4.891  0.6666  0.3073 -1.1285
16612TIP3    H271252   5.629   0.842   4.788 -0.2554  0.4092 -0.1931
16613TIP3   OH271253   4.070   6.532   1.124  0.0800  0.3689 -0.3931
16613TIP3    H171254   3.977   6.516   1.105  0.2916 -3.2759  0.8474
16613TIP3    H271255   4.078   6.628   1.127 -4.0686  0.8668  1.4388
16614TIP3   OH271256   4.235   2.178  13.897  0.1737  0.0137  0.1507
16614TIP3    H171257   4.199   2.090  13.890  1.2716 -0.3616 -1.1748
16614TIP3    H271258   4.304   2.170  13.964  0.4131 -0.1958 -0.1166
16615TIP3   OH271259   1.083   6.173   0.841 -0.0012  0.0950 -0.3883
16615TIP3    H171260   1.103   6.257   0.882 -3.0932 -0.1718  2.0010
16615TIP3    H271261   1.160   6.119   0.858  0.3763  1.1997  1.7376
16616TIP3   OH271262   3.947   3.663   3.599  0.4741  0.1686  0.0816
16616TIP3    H171263   4.012   3.617   3.546  1.1474  1.1062  0.0730
16616TIP3    H271264   3.906   3.725   3.538 -0.3661 -0.3395  0.1129
16617TIP3   OH271265   2.234   1.825  16.801  0.7254 -0.0201  0.6675
16617TIP3    H171266   2.209   1.870  16.881 -0.1543  0.6004  0.0602
16617TIP3    H271267   2.152   1.804  16.758  1.1905  0.0502 -0.2872
16618TIP3   OH271268   1.949   6.658  12.573  1.0871 -0.5260 -0.8149
16618TIP3    H171269   1.856   6.650  12.592  0.9517  1.0659 -0.6491
16618TIP3    H271270   1.992   6.603  12.638  0.2880 -0.8937 -0.5864
16619TIP3   OH271271   5.974   6.678   6.355  0.5035 -0.1209 -0.3817
16619TIP3    H171272   6.006   6.607   6.410 -0.9293 -1.0707 -0.7029
16619TIP3    H271273   6.033   6.679   6.280 -0.4600 -2.1963 -1.2407
16620TIP3   OH271274   6.135   0.941  12.708 -0.2279  0.0840  0.2329
16620TIP3    H171275   6.221   0.952  12.667 -0.3664 -0.3498 -0.1927
16620TIP3    H271276   6.078   1.001  12.661 -0.4151 -0.5055 -0.3189
16621TIP3   OH271277   3.843   3.711  13.021  0.2565  0.0902 -0.2733
16621TIP3    H171278   3.851   3.713  12.926  2.3715  0.2019 -0.1301
16621TIP3    H271279   3.897   3.783  13.051  0.7479 -0.8060  1.0738
16622TIP3   OH271280   6.409   5.830  14.833  0.5026  0.1991  0.1542
16622TIP3    H171281   6.465   5.768  14.786  1.1078 -0.5152  1.7590
16622TIP3    H271282   6.458   5.851  14.912 -0.9440  0.5567  0.9819
16623TIP3   OH271283   5.789   0.781   3.069 -0.3755  0.2865 -0.3788
16623TIP3    H171284   5.749   0.694   3.063  0.4408 -0.1416  0.2549
16623TIP3    H271285   5.718   0.841   3.048 -1.5986 -0.3967  1.6092
16624TIP3   OH271286   1.611   2.748  15.627  0.3217 -0.0041  0.3334
16624TIP3    H171287   1.527   2.704  15.618  1.5082 -2.4976  0.5465
16624TIP3    H271288   1.661   2.720  15.550  1.7942 -0.6735  1.4773
16625TIP3   OH271289   0.884   3.157  14.631  0.0009 -0.6374 -0.0012
16625TIP3    H171290   0.899   3.103  14.708 -0.9575 -2.7990 -1.2344
16625TIP3    H271291   0.791   3.145  14.611 -0.6617  2.7054  0.4729
16626TIP3   OH271292   1.042   3.218  17.224  0.7400  0.0227  0.2362
16626TIP3    H171293   1.031   3.273  17.302  1.4264 -0.3066  0.5723
16626TIP3    H271294   1.117   3.163  17.244  1.4709  0.5276 -1.0010
16627TIP3   OH271295   0.113   3.237  12.750  0.5088  0.2356 -0.0304
16627TIP3    H171296   0.128   3.311  12.691 -1.0489 -1.0942 -2.2306
16627TIP3    H271297   0.200   3.198  12.760  1.3144  2.1256  0.9592
16628TIP3   OH271298   5.952   4.047   0.828  0.5596  0.0197 -0.0336
16628TIP3    H171299   5.929   4.071   0.917 -0.0486  1.0790 -0.4563
16628TIP3    H271300   5.907   3.964   0.812 -0.7800  0.7142  0.0592
16629TIP3   OH271301   2.170   4.771   0.311  0.0354 -0.4848 -0.0809
16629TIP3    H171302   2.083   4.737   0.290 -0.2713 -0.0025  0.3921
16629TIP3    H271303   2.230   4.700   0.287 -0.2148  0.1745 -3.1261
16630TIP3   OH271304   1.190   4.028   0.546  0.0711  0.6801 -0.2380
16630TIP3    H171305   1.177   4.054   0.455  2.2402  0.4998 -0.6590
16630TIP3    H271306   1.265   4.080   0.575 -0.3242  0.4165  1.3121
16631TIP3   OH271307   0.548   4.575   4.888 -0.2222  0.4424 -0.1804
16631TIP3    H171308   0.464   4.565   4.932  0.1204 -0.8342  0.2284
16631TIP3    H271309   0.549   4.506   4.822 -0.3979  1.8357 -1.6889
16632TIP3   OH271310   3.757   0.696   1.144 -0.6660  0.1037 -0.0771
16632TIP3    H171311   3.737   0.612   1.185 -1.6770  0.9758  1.2861
16632TIP3    H271312   3.846   0.686   1.112 -0.7539 -1.4719  0.0831
16633TIP3   OH271313   4.608   4.554  14.419  0.3032 -0.2457 -0.1316
16633TIP3    H171314   4.671   4.483  14.407  0.8970  0.1605  0.5091
16633TIP3    H271315   4.656   4.633  14.394  0.5734  0.2550  1.7744
16634TIP3   OH271316   5.244   5.570   3.177  0.4819 -0.3793  0.1967
16634TIP3    H171317   5.261   5.541   3.088  0.8795 -1.0006  0.4624
16634TIP3    H271318   5.289   5.654   3.185 -0.9197  0.4860 -0.6743
16635TIP3   OH271319   6.024   2.225   2.403 -0.4468 -0.6116  0.8365
16635TIP3    H171320   5.979   2.165   2.343 -1.7487  1.0084  0.1321
16635TIP3    H271321   5.972   2.222   2.483  0.4082 -1.5960  1.3812
16636TIP3   OH271322   1.045   6.755   0.655  0.0477 -0.1740  0.3534
16636TIP3    H171323   0.994   6.822   0.608  0.1219 -1.4432 -1.6761
16636TIP3    H271324   0.994   6.736   0.733 -2.0267 -0.5321 -1.0061
16637TIP3   OH271325   6.461   4.187   3.370  0.3575  0.5503  0.5006
16637TIP3    H171326   6.548   4.217   3.346  0.3730  0.2233  0.1179
16637TIP3    H271327   6.466   4.091   3.363 -0.0960  0.5426  0.2351
16638TIP3   OH271328   0.454   0.375  12.667  0.3648  0.1446  0.2998
16638TIP3    H171329   0.524   0.432  12.636  0.6783 -0.3939  0.0079
16638TIP3    H271330   0.375   0.407  12.622  0.8906 -0.9310 -1.4908
16639TIP3   OH271331   1.485   6.282  16.474 -0.1412  0.0371  0.2703
16639TIP3    H171332   1.560   6.310  16.422 -0.3986 -0.2362 -0.2508
16639TIP3    H271333   1.507   6.310  16.563 -0.7101  2.6345 -0.3180
16640TIP3   OH271334   5.972   6.505  12.801 -0.0944 -0.4724  0.1981
16640TIP3    H171335   6.064   6.518  12.776 -0.2992  2.2441  0.5586
16640TIP3    H271336   5.968   6.536  12.891 -1.2862 -1.1069  0.3791
16641TIP3   OH271337   1.736   3.514  14.010 -0.3846  0.3092  0.1869
16641TIP3    H171338   1.711   3.544  13.923  0.3478  0.0884 -0.1072
16641TIP3    H271339   1.827   3.486  14.001  0.0243  1.2072  1.2615
16642TIP3   OH271340   2.420   3.792   4.614  0.3199 -0.1220 -0.1589
16642TIP3    H171341   2.431   3.854   4.542 -1.0561 -1.0691 -1.2369
16642TIP3    H271342   2.351   3.733   4.585  0.3957 -1.1325  1.5513
16643TIP3   OH271343   3.279   4.894  17.016 -0.2018 -0.9952 -0.3290
16643TIP3    H171344   3.333   4.957  17.064  0.7576 -0.6908 -1.7533
16643TIP3    H271345   3.314   4.809  17.039  0.8897 -0.8003 -1.2155
16644TIP3   OH271346   6.322   0.219  15.379 -0.2580  0.4391  0.2208
16644TIP3    H171347   6.365   0.139  15.409 -1.3001 -0.2142  0.0038
16644TIP3    H271348   6.391   0.286  15.384  0.6919 -0.5053  0.1984
16645TIP3   OH271349   3.053   1.159  15.271 -0.0083  0.4176 -0.3200
16645TIP3    H171350   3.125   1.162  15.334 -2.5411  0.3052  2.8030
16645TIP3    H271351   2.978   1.127  15.321 -1.3262 -4.0680 -4.4091
16646TIP3   OH271352   0.146   5.082  13.906  0.6876 -0.2023  0.3256
16646TIP3    H171353   0.198   5.048  13.833 -0.9514 -0.6972 -0.6600
16646TIP3    H271354   0.060   5.098  13.868 -0.3610 -0.9557  2.2699
16647TIP3   OH271355   4.794   2.936   5.674  0.0861 -0.0487 -0.0961
16647TIP3    H171356   4.869   2.917   5.730  0.2080 -1.1098 -0.6020
16647TIP3    H271357   4.782   3.031   5.681  1.7391  0.1970 -0.3484
16648TIP3   OH271358   0.916   2.988  14.849  0.3746  0.6052  0.2508
16648TIP3    H171359   0.824   3.003  14.871 -0.0105 -1.1732 -0.0464
16648TIP3    H271360   0.934   2.899  14.879  2.0394  0.9451  0.3727
16649TIP3   OH271361   3.855   0.766   5.079 -0.3587  0.4732 -0.2004
16649TIP3    H171362   3.889   0.825   5.146  0.6944  1.8283 -1.8247
16649TIP3    H271363   3.797   0.821   5.026 -1.7507 -0.7509  0.0035
16650TIP3   OH271364   2.584   0.162   3.678 -0.2398 -0.2832  0.7240
16650TIP3    H171365   2.516   0.221   3.646  0.4601 -0.0918 -0.4436
16650TIP3    H271366   2.637   0.215   3.738 -0.6484 -0.2244  1.0369
16651TIP3   OH271367   0.751   2.364   3.193  0.3556 -0.0593 -0.2169
16651TIP3    H171368   0.806   2.430   3.236 -0.3296  0.1801  0.2975
16651TIP3    H271369   0.797   2.345   3.111  1.0014  0.4304  0.0212
16652TIP3   OH271370   0.828   4.176  14.146 -0.3946 -0.3607  0.4621
16652TIP3    H171371   0.828   4.082  14.129  0.3595  0.1148 -3.0065
16652TIP3    H271372   0.751   4.209  14.099 -0.5367  0.7906  1.4620
16653TIP3   OH271373   0.550   1.692   5.629 -0.2702 -0.0147 -0.4125
16653TIP3    H171374   0.548   1.754   5.701  0.5329 -2.2130  1.6503
16653TIP3    H271375   0.637   1.653   5.633 -0.8339 -1.4700 -1.4110
16654TIP3   OH271376   0.809   0.456  17.002 -0.0015  0.6644  0.0063
16654TIP3    H171377   0.793   0.532  16.947 -0.3040 -0.6283 -1.8080
16654TIP3    H271378   0.900   0.432  16.985 -0.7919 -1.2538 -2.0715
16655TIP3   OH271379   6.116   2.482   2.293 -0.2798 -0.9321  0.1359
16655TIP3    H171380   6.050   2.523   2.237  0.9348  0.1023 -0.5982
16655TIP3    H271381   6.086   2.392   2.303 -0.1131 -1.4575 -2.9771
16656TIP3   OH271382   6.162   3.848  16.900  0.8069  0.4391 -0.2080
16656TIP3    H171383   6.114   3.815  16.976 -0.1411  2.1832 -0.0010
16656TIP3    H271384   6.234   3.786  16.888 -0.2239 -1.0096  0.8332
16657TIP3   OH271385   0.391   3.186   0.052  0.0742  0.6077 -0.5439
16657TIP3    H171386   0.463   3.214  -0.003  0.8313 -0.4873 -0.1503
16657TIP3    H271387   0.407   3.092   0.066 -1.3451  0.3753 -0.3392
16658TIP3   OH271388   1.337   4.509   5.370 -0.0178 -0.1346 -0.2216
16658TIP3    H171389   1.419   4.524   5.323 -0.6556 -1.1996 -1.7668
16658TIP3    H271390   1.338   4.572   5.441  2.4957 -0.6110  0.2659
16659TIP3   OH271391   6.159   0.898  13.450 -0.0180  0.3622  0.1034
16659TIP3    H171392   6.068   0.880  13.474  0.1220  1.3171  1.4971
16659TIP3    H271393   6.204   0.814  13.462 -0.5845  0.0560  0.1138
16660TIP3   OH271394   0.812   3.204  10.954 -0.5029 -0.1375  0.1045
16660TIP3    H171395   0.806   3.235  10.864 -1.0328  0.0174  0.1845
16660TIP3    H271396   0.803   3.284  11.007  0.5011 -0.1422  0.2853
16661TIP3   OH271397   0.442   0.638  12.293 -0.1556  0.4838  0.1631
16661TIP3    H171398   0.537   0.644  12.294 -0.0180 -1.1106 -1.0793
16661TIP3    H271399   0.418   0.622  12.385  0.9049 -0.7515  0.2475
16662TIP3   OH271400   4.911   5.805   2.536  0.8818  0.9907  0.1716
16662TIP3    H171401   4.944   5.865   2.469  3.0496 -0.4909 -0.2255
16662TIP3    H271402   4.850   5.748   2.489  1.2084  0.9339 -0.1913
16663TIP3   OH271403   1.931   4.653  10.922  0.1061  0.0187 -0.6057
16663TIP3    H171404   1.858   4.609  10.878  0.0779  1.0682 -1.6744
16663TIP3    H271405   2.005   4.643  10.862  0.9356 -1.2363  0.5749
16664TIP3   OH271406   4.489   4.651   2.451 -0.1980  0.1221  0.2422
16664TIP3    H171407   4.444   4.645   2.536  0.6208  0.4346  0.7139
16664TIP3    H271408   4.548   4.726   2.461 -1.7366  1.6562 -1.4124
16665TIP3   OH271409   6.091   5.626   1.004  0.7141  0.3340 -0.5690
16665TIP3    H171410   6.053   5.690   0.944  0.0924 -0.7236 -1.3449
16665TIP3    H271411   6.148   5.572   0.950 -0.5648 -1.2172 -0.4606
16666TIP3   OH271412   4.994   5.863   0.798  0.1294  0.3864  0.3209
16666TIP3    H171413   4.941   5.808   0.740  1.1273  0.6542 -0.8802
16666TIP3    H271414   4.932   5.922   0.839 -1.2476 -2.5432  2.8348
16667TIP3   OH271415   1.915   0.090   5.521  0.1021  0.3300  0.2354
16667TIP3    H171416   1.996   0.065   5.564 -0.2114 -0.0474  0.6146
16667TIP3    H271417   1.871   0.146   5.585 -1.3557 -1.9313  1.3391
16668TIP3   OH271418   5.144   1.287  17.197 -0.0804 -0.0273  0.5245
16668TIP3    H171419   5.239   1.296  17.188 -0.0315 -1.1942 -0.3382
16668TIP3    H271420   5.133   1.210  17.254 -0.5131 -0.1463  0.2813
16669TIP3   OH271421   0.443   1.498   1.328  0.3432 -0.1972 -0.2869
16669TIP3    H171422   0.529   1.476   1.364 -0.0778 -0.8689  0.3391
16669TIP3    H271423   0.441   1.594   1.326  0.4754 -0.1452  1.2644
16670TIP3   OH271424   3.162   6.693  15.710 -0.5821 -0.2084 -0.4928
16670TIP3    H171425   3.246   6.666  15.673  0.0348  0.5417  0.3260
16670TIP3    H271426   3.135   6.619  15.764  0.4469  0.2124  0.6645
16671TIP3   OH271427   5.983   2.160   2.890  0.1315 -0.2798  0.0321
16671TIP3    H171428   6.075   2.173   2.869  0.1402  0.6813  0.6091
16671TIP3    H271429   5.939   2.240   2.860 -0.7428 -1.2572 -1.4234
16672TIP3   OH271430   0.537   0.693  17.074  0.1509 -0.4185  0.3786
16672TIP3    H171431   0.473   0.659  17.135 -0.0364  0.7269  0.8594
16672TIP3    H271432   0.614   0.713  17.128 -0.1902  1.0707  0.3647
16673TIP3   OH271433   4.759   3.118   4.184 -0.5404  0.3304 -0.0177
16673TIP3    H171434   4.733   3.050   4.246 -0.1034  0.6568  0.5366
16673TIP3    H271435   4.679   3.168   4.168 -0.9136 -0.4379 -0.5984
16674TIP3   OH271436   1.452   6.427  14.957 -0.2377 -0.8821  0.7263
16674TIP3    H171437   1.545   6.406  14.957 -0.1591 -0.5900 -0.3383
16674TIP3    H271438   1.412   6.361  15.014  0.7505 -0.3065  2.1342
16675TIP3   OH271439   6.740   0.649  11.583  0.5635 -0.0574  0.1237
16675TIP3    H171440   6.803   0.645  11.655 -0.5873  0.4116  1.1951
16675TIP3    H271441   6.759   0.731  11.539  1.7045 -0.6597 -0.5273
16676TIP3   OH271442   6.096   2.154  12.057  0.1280 -0.1690 -0.0073
16676TIP3    H171443   6.135   2.079  12.103  2.5734  1.2169  0.3793
16676TIP3    H271444   6.163   2.180  11.993 -0.0757  2.4003  0.7177
16677TIP3   OH271445   3.265   3.498   1.705  0.0922 -0.1137  0.0784
16677TIP3    H171446   3.196   3.452   1.657 -0.8066 -0.6667  1.7790
16677TIP3    H271447   3.219   3.537   1.780  1.1477  2.0432 -0.3163
16678TIP3   OH271448   0.257   2.225   5.912  0.6720  0.0033 -0.0908
16678TIP3    H171449   0.298   2.306   5.944  0.3771  0.1075  0.0306
16678TIP3    H271450   0.290   2.215   5.822  1.6711 -0.4089  0.3128
16679TIP3   OH271451   2.876   2.684  11.729 -0.6165  0.1443  0.5086
16679TIP3    H171452   2.956   2.698  11.780 -0.8680  0.6446  0.7749
16679TIP3    H271453   2.889   2.734  11.649 -0.8736  0.6587  0.7817
16680TIP3   OH271454   0.577   2.052   5.618 -0.9616 -0.4726  0.2272
16680TIP3    H171455   0.654   1.996   5.607 -0.3745  0.3087  0.2976
16680TIP3    H271456   0.543   2.062   5.529 -0.4717 -0.1182  0.0744
16681TIP3   OH271457   3.450   4.157  13.535 -0.0906  0.4127 -0.0939
16681TIP3    H171458   3.503   4.089  13.494 -1.4974 -0.8503  0.1056
16681TIP3    H271459   3.370   4.162  13.482 -0.6398  0.8662  0.7309
16682TIP3   OH271460   3.580   3.802   0.981  0.4255 -0.5280 -0.1133
16682TIP3    H171461   3.666   3.841   0.997  0.7029 -1.5685  1.0479
16682TIP3    H271462   3.589   3.759   0.896  0.5902  0.5445 -0.6677
16683TIP3   OH271463   5.722   4.900   4.057 -0.0665  0.0885 -0.3376
16683TIP3    H171464   5.669   4.836   4.009 -1.0357  0.1083  0.6512
16683TIP3    H271465   5.804   4.906   4.008 -0.6390 -0.6116 -1.4150
16684TIP3   OH271466   0.517   5.311  15.265 -0.6548 -0.2847 -0.0897
16684TIP3    H171467   0.479   5.279  15.183 -1.6857 -1.7450  0.9059
16684TIP3    H271468   0.610   5.323  15.245 -0.8735 -0.6665 -1.4487
16685TIP3   OH271469   0.688   1.735  13.365 -0.0126 -0.6591 -0.1848
16685TIP3    H171470   0.670   1.665  13.427  0.8719  0.1568  1.0349
16685TIP3    H271471   0.720   1.808  13.419  0.5557  0.1616 -1.5644
16686TIP3   OH271472   1.207   4.186  12.670 -0.0971  0.0371 -0.1197
16686TIP3    H171473   1.140   4.227  12.615  0.0152  0.8301  0.3256
16686TIP3    H271474   1.178   4.203  12.759 -0.8697 -2.2053  0.1041
16687TIP3   OH271475   1.545   5.966  14.751  0.2481  0.8378  0.0319
16687TIP3    H171476   1.456   6.002  14.753  0.6924  2.0869 -1.1915
16687TIP3    H271477   1.538   5.881  14.795 -1.5300  0.9443  0.0065
16688TIP3   OH271478   5.129   5.686   2.124  0.0620 -0.0024  0.4769
16688TIP3    H171479   5.035   5.694   2.111 -0.0532 -0.9214  0.6808
16688TIP3    H271480   5.145   5.725   2.210  0.6392  4.8464 -1.4899
16689TIP3   OH271481   1.253   3.636   2.202 -0.7697  0.0142 -0.5194
16689TIP3    H171482   1.277   3.561   2.256  2.9682  0.1725 -1.7173
16689TIP3    H271483   1.248   3.709   2.263 -0.0313 -0.4256  0.0835
16690TIP3   OH271484   5.884   1.403  16.587  0.0173  0.0010  0.1386
16690TIP3    H171485   5.970   1.441  16.599 -0.1990  0.4088  0.4241
16690TIP3    H271486   5.831   1.474  16.550 -0.1218 -0.3311 -0.3196
16691TIP3   OH271487   0.598   3.321  17.146 -0.5969 -0.5172  1.1389
16691TIP3    H171488   0.653   3.329  17.224  1.5749  4.1231 -0.4622
16691TIP3    H271489   0.651   3.271  17.084 -0.5987 -0.7733  1.3416
16692TIP3   OH271490   6.748   0.502   5.447  0.7478  0.2816 -0.0647
16692TIP3    H171491   6.700   0.559   5.507  0.5002 -1.4474  1.4688
16692TIP3    H271492   6.684   0.435   5.422  1.9356 -1.3410  1.0262
16693TIP3   OH271493   6.706   0.286  11.422  0.2067 -0.4411  0.3239
16693TIP3    H171494   6.684   0.253  11.335  1.1187 -1.3022  0.4035
16693TIP3    H271495   6.635   0.255  11.478 -0.2862 -0.0430 -0.0642
16694TIP3   OH271496   6.077   2.633   0.498 -0.7401  0.1104  0.4593
16694TIP3    H171497   6.067   2.718   0.542  0.9568  0.6783 -0.1880
16694TIP3    H271498   6.125   2.579   0.561 -0.7878  0.0072  0.4069
16695TIP3   OH271499   2.848   4.243   1.220 -0.2576 -0.5740 -0.2364
16695TIP3    H171500   2.862   4.298   1.297 -0.6588 -0.8795  0.0586
16695TIP3    H271501   2.782   4.180   1.247 -0.1485 -0.9040 -0.7240
16696TIP3   OH271502   3.110   5.138   0.386  0.0900  0.3979 -0.2419
16696TIP3    H171503   3.121   5.224   0.346  2.0800  0.3487  0.0980
16696TIP3    H271504   3.110   5.077   0.311  0.0160  0.5917 -0.3998
16697TIP3   OH271505   2.706   2.524  16.125  0.2600 -0.1590  0.2408
16697TIP3    H171506   2.673   2.561  16.207  0.5122  0.9023 -0.1214
16697TIP3    H271507   2.652   2.447  16.109 -0.1274 -0.0800  1.1379
16698TIP3   OH271508   2.591   2.392   3.968 -0.6200 -0.1764  0.1039
16698TIP3    H171509   2.581   2.321   3.904 -1.4813 -1.5977  1.7181
16698TIP3    H271510   2.685   2.393   3.988 -0.4952 -0.3980 -0.4641
16699TIP3   OH271511   5.726   0.919   0.800 -0.0322 -0.0262  0.0577
16699TIP3    H171512   5.799   0.958   0.848 -2.3089  2.2283  1.9482
16699TIP3    H271513   5.669   0.992   0.779 -0.9908 -1.4658 -2.9406
16700TIP3   OH271514   4.756   1.592   0.033  0.2824  0.0548 -0.3376
16700TIP3    H171515   4.826   1.613   0.095  0.2310  0.7970 -0.5212
16700TIP3    H271516   4.798   1.593  -0.053 -0.3141  2.5789 -0.6804
16701TIP3   OH271517   3.909   6.646   4.658 -0.2068 -0.8986 -0.6167
16701TIP3    H171518   3.887   6.726   4.612  0.6198 -1.4804 -2.0837
16701TIP3    H271519   4.005   6.644   4.659 -0.1710 -2.7396 -2.2705
16702TIP3   OH271520   1.357   6.706  14.889 -0.3240 -0.0111 -0.0533
16702TIP3    H171521   1.373   6.783  14.945 -1.6292  0.2222  0.0319
16702TIP3    H271522   1.374   6.631  14.945  3.0658  0.1201 -0.7186
16703TIP3   OH271523   1.030   1.705   4.628  0.1634  0.4637  0.3827
16703TIP3    H171524   1.087   1.630   4.615  0.5643  0.9535 -0.7699
16703TIP3    H271525   0.941   1.672   4.612  0.4749  0.6106 -1.9750
16704TIP3   OH271526   5.973   5.995  11.217 -0.6624 -0.0500 -0.5649
16704TIP3    H171527   6.053   6.031  11.178  0.1893 -0.6304  0.5584
16704TIP3    H271528   5.952   5.919  11.162 -0.6959  0.3633 -1.1279
16705TIP3   OH271529   5.354   2.700  13.830  0.3079  0.1895 -0.4282
16705TIP3    H171530   5.407   2.737  13.759 -0.6398  0.3507 -1.0636
16705TIP3    H271531   5.293   2.641  13.786  1.7216 -2.1710  0.5234
16706TIP3   OH271532   1.999   4.948   4.769 -0.0760  0.0335 -0.8377
16706TIP3    H171533   2.081   4.982   4.804 -0.9095  1.0011  0.2674
16706TIP3    H271534   1.984   4.999   4.690  0.0523  0.3402 -0.6683
16707TIP3   OH271535   3.247   5.184  12.069 -0.7418  0.6164  0.3314
16707TIP3    H171536   3.306   5.109  12.072  0.7452  1.7566  0.6063
16707TIP3    H271537   3.169   5.155  12.117 -0.0798 -0.6436  0.6758
16708TIP3   OH271538   1.963   6.157  11.599 -0.1667 -0.2030 -0.1328
16708TIP3    H171539   2.011   6.180  11.520  0.3268  1.4332  0.5831
16708TIP3    H271540   1.874   6.139  11.570  0.1519 -0.2053 -1.1263
16709TIP3   OH271541   2.769   5.888  11.705 -0.3148  0.0297  0.3087
16709TIP3    H171542   2.792   5.929  11.788 -0.0038  2.9489 -1.1033
16709TIP3    H271543   2.684   5.847  11.722 -0.5731  1.1223  1.9137
16710TIP3   OH271544   2.167   4.077   2.831 -0.2538 -0.0902 -0.0112
16710TIP3    H171545   2.228   4.149   2.817 -1.6231  0.8301 -1.5806
16710TIP3    H271546   2.218   4.012   2.879  2.4432  0.0431 -2.3963
16711TIP3   OH271547   1.542   3.579   0.643 -0.1290  0.3418  0.0621
16711TIP3    H171548   1.533   3.661   0.691  0.5253 -0.0785  0.9137
16711TIP3    H271549   1.634   3.554   0.653 -0.2132 -0.2665 -0.5704
16712TIP3   OH271550   6.511   1.493  15.629  0.0452  0.3185 -0.1713
16712TIP3    H171551   6.493   1.548  15.705 -1.7091 -1.0611  0.4905
16712TIP3    H271552   6.427   1.486  15.584  0.2165 -1.6285 -0.3060
16713TIP3   OH271553   4.511   5.912  15.689 -0.0612 -0.1598 -0.3836
16713TIP3    H171554   4.523   5.986  15.749  2.7022  0.3777 -1.4459
16713TIP3    H271555   4.506   5.836  15.746 -2.2192  0.7359  0.6981
16714TIP3   OH271556   0.322   2.400   4.418  0.3565 -0.1982 -0.1227
16714TIP3    H171557   0.226   2.399   4.420  0.3514 -0.6693 -0.4353
16714TIP3    H271558   0.343   2.483   4.376  0.0445 -0.7801 -1.4759
16715TIP3   OH271559   6.562   1.016   4.857 -0.4898 -0.0695  0.4643
16715TIP3    H171560   6.517   0.932   4.846  1.3757 -0.9847 -0.7769
16715TIP3    H271561   6.615   1.005   4.936  0.4576 -0.4265 -0.2061
16716TIP3   OH271562   6.458   1.793   3.008 -0.3952  0.0680 -0.0938
16716TIP3    H171563   6.465   1.715   2.952 -0.1295 -1.0749  1.4631
16716TIP3    H271564   6.366   1.820   3.000  0.0125  0.9641 -2.3635
16717TIP3   OH271565   0.185   4.921  10.991 -0.2628  0.0455  0.1148
16717TIP3    H171566   0.198   5.016  10.989  0.6844 -0.0438  1.3284
16717TIP3    H271567   0.093   4.911  11.016  0.0648  0.6525  1.6480
16718TIP3   OH271568   1.887   6.601   3.239  0.2699  0.2266 -0.1443
16718TIP3    H171569   1.874   6.549   3.159 -0.6431  1.2682 -0.6979
16718TIP3    H271570   1.854   6.688   3.217 -1.4480  0.1562  1.8556
16719TIP3   OH271571   5.576   1.285  13.857 -0.0886  0.1858  0.1214
16719TIP3    H171572   5.505   1.334  13.898 -1.2656 -0.8847 -0.5566
16719TIP3    H271573   5.533   1.209  13.818  1.5072 -0.7509  0.1021
16720TIP3   OH271574   0.868   5.566  15.366 -0.3891 -0.0543  0.3537
16720TIP3    H171575   0.830   5.597  15.448  0.5281 -2.2105  1.6808
16720TIP3    H271576   0.844   5.633  15.302 -1.1979  1.6825  2.3364
16721TIP3   OH271577   6.315   6.535   1.653  0.0334 -0.0786 -0.3507
16721TIP3    H171578   6.249   6.516   1.586 -1.6447 -2.1029  1.6867
16721TIP3    H271579   6.309   6.630   1.666 -2.6331 -0.1860 -0.1979
16722TIP3   OH271580   4.553   5.032  13.071 -0.0405 -0.2280  0.5822
16722TIP3    H171581   4.480   5.081  13.033 -0.2155 -0.9474 -0.0308
16722TIP3    H271582   4.601   4.999  12.996 -0.4156 -1.7187  0.9654
16723TIP3   OH271583   1.408   4.711  13.271 -0.3447 -0.9608  0.1301
16723TIP3    H171584   1.426   4.774  13.340  0.9891 -2.8120  1.5750
16723TIP3    H271585   1.322   4.675  13.291 -1.3880  0.7561 -1.0503
16724TIP3   OH271586   2.553   5.170   5.906  0.2565 -0.5188 -0.0862
16724TIP3    H171587   2.614   5.146   5.835  1.1081  0.1167  0.4154
16724TIP3    H271588   2.479   5.210   5.861  0.3667 -0.9543 -0.6791
16725TIP3   OH271589   4.861   5.065  11.015 -0.0745 -0.2941  0.0848
16725TIP3    H171590   4.874   4.993  10.953  0.4063  0.0664 -0.2401
16725TIP3    H271591   4.918   5.135  10.983 -0.2539  0.0996  0.6108
16726TIP3   OH271592   1.800   2.439  15.988 -0.0606  0.0257  0.6560
16726TIP3    H171593   1.873   2.404  15.938 -0.7342 -0.8707  0.2627
16726TIP3    H271594   1.723   2.424  15.932 -0.6753  0.0360  1.4710
16727TIP3   OH271595   2.335   1.128   2.806 -0.3107  0.5605 -0.2945
16727TIP3    H171596   2.243   1.146   2.828 -0.9432 -1.5513 -0.9513
16727TIP3    H271597   2.342   1.146   2.713 -0.2826 -0.0192 -0.4103
16728TIP3   OH271598   4.949   3.343  12.328  0.2106 -0.3259  0.0870
16728TIP3    H171599   5.027   3.397  12.339  0.2758  0.2025 -2.3527
16728TIP3    H271600   4.884   3.383  12.386  1.5278 -0.4251  1.7091
16729TIP3   OH271601   5.705   5.646   2.642  0.3041 -0.2002  0.5253
16729TIP3    H171602   5.735   5.683   2.560  2.6721  1.3090  1.9496
16729TIP3    H271603   5.763   5.684   2.708 -0.9065 -2.0415  2.7990
16730TIP3   OH271604   3.473   2.889   6.725 -0.0426  0.1332 -0.8336
16730TIP3    H171605   3.384   2.896   6.759 -0.4110 -1.3787 -1.3896
16730TIP3    H271606   3.482   2.963   6.665 -0.5018  0.9497  0.0744
16731TIP3   OH271607   5.018   0.929   5.322 -0.3694 -0.4963  0.3776
16731TIP3    H171608   5.072   0.880   5.385 -1.4639 -0.5447  1.3125
16731TIP3    H271609   4.933   0.884   5.324  0.2428 -2.1180 -3.0708
16732TIP3   OH271610   6.461   1.660  15.103 -0.0834 -0.5216  0.7472
16732TIP3    H171611   6.506   1.631  15.023 -0.8588 -0.2485  0.2072
16732TIP3    H271612   6.424   1.580  15.140 -1.7654 -0.3438 -0.4579
16733TIP3   OH271613   3.334   0.795  12.799 -0.1642  0.2111  0.4200
16733TIP3    H171614   3.400   0.730  12.822 -0.6326 -0.1224  0.8675
16733TIP3    H271615   3.288   0.757  12.724  0.2534  0.5134  0.0119
16734TIP3   OH271616   5.930   5.155  14.778  0.0275 -0.1897  0.4155
16734TIP3    H171617   6.017   5.195  14.779  1.1216 -2.3411 -1.0238
16734TIP3    H271618   5.922   5.114  14.864  0.5833 -0.2632  0.4347
16735TIP3   OH271619   6.402   4.344  12.609 -0.5301  0.1092  0.4097
16735TIP3    H171620   6.342   4.396  12.554 -1.8372 -0.0439  1.6285
16735TIP3    H271621   6.345   4.304  12.675  0.5794 -2.0979  0.1138
16736TIP3   OH271622   2.654   4.383   3.018 -0.1610 -0.1477  0.0204
16736TIP3    H171623   2.675   4.294   2.990  0.2011  0.0013 -0.1917
16736TIP3    H271624   2.634   4.430   2.937  0.5730  0.2034  0.0299
16737TIP3   OH271625   5.650   2.974   1.550 -0.7621  0.3801 -0.0332
16737TIP3    H171626   5.562   2.972   1.586  0.0718 -0.0509  2.1550
16737TIP3    H271627   5.691   3.050   1.592  0.1574  0.0998 -0.4030
16738TIP3   OH271628   0.311   5.408  16.911  0.2035  0.2925  0.2128
16738TIP3    H171629   0.235   5.403  16.853  0.0990  0.8468  0.2982
16738TIP3    H271630   0.366   5.477  16.873  0.5051  0.1212  0.3366
16739TIP3   OH271631   4.313   5.594  14.571  0.2973  0.1435 -0.3212
16739TIP3    H171632   4.228   5.570  14.608  0.2370  1.8675  0.7313
16739TIP3    H271633   4.301   5.586  14.476 -1.7058  2.2657 -0.3389
16740TIP3   OH271634   2.383   1.208  16.769 -0.5609  0.1874  0.0416
16740TIP3    H171635   2.475   1.222  16.744 -0.5572 -0.6324 -0.4535
16740TIP3    H271636   2.379   1.115  16.792 -1.0765  0.4248  0.9308
16741TIP3   OH271637   6.278   0.197  17.024  0.0018  0.4410  0.1182
16741TIP3    H171638   6.239   0.110  17.032  1.6437 -0.5799 -2.0652
16741TIP3    H271639   6.270   0.219  16.932  3.8281  0.4008 -0.3919
16742TIP3   OH271640   0.859   5.269   2.970 -0.0802  0.2123 -0.3477
16742TIP3    H171641   0.861   5.360   2.998  0.3277 -0.6784  3.0162
16742TIP3    H271642   0.951   5.245   2.959 -0.1756  0.1187 -1.0007
16743TIP3   OH271643   1.789   6.304  14.181  0.1562  0.1709  1.0021
16743TIP3    H171644   1.836   6.257  14.251  1.2515  2.4422  1.8829
16743TIP3    H271645   1.832   6.389  14.176 -2.1223  1.3381 -0.1432
16744TIP3   OH271646   2.542   5.392  11.770 -0.3288  0.0925  0.1343
16744TIP3    H171647   2.590   5.449  11.711  0.7382 -1.5618 -0.6762
16744TIP3    H271648   2.452   5.422  11.765 -0.0098  0.8851 -1.2458
16745TIP3   OH271649   3.629   3.131   2.901 -0.0417 -0.2099 -0.3214
16745TIP3    H171650   3.600   3.199   2.840  0.3877  0.2558 -0.0250
16745TIP3    H271651   3.634   3.176   2.985  0.7131 -0.4876 -0.2115
16746TIP3   OH271652   4.445   4.980  16.823  0.1144  0.1120 -0.0135
16746TIP3    H171653   4.533   5.007  16.850  0.2364  1.1346 -1.3302
16746TIP3    H271654   4.404   5.061  16.791 -1.3221 -0.3424  0.5786
16747TIP3   OH271655   6.505   5.190  14.613  0.2383  0.4421  0.3639
16747TIP3    H171656   6.505   5.129  14.539  0.7427  2.4743 -1.4219
16747TIP3    H271657   6.456   5.145  14.682  0.1005 -1.7074 -1.0511
16748TIP3   OH271658   2.321   4.587  10.974  0.5687 -0.3028  0.1666
16748TIP3    H171659   2.332   4.681  10.989  0.2815 -0.5157  1.8632
16748TIP3    H271660   2.259   4.582  10.901 -2.0841  0.8984  2.1290
16749TIP3   OH271661   2.537   5.876  13.805 -0.7551 -0.3396  0.4857
16749TIP3    H171662   2.552   5.784  13.783 -0.7202 -0.4796  1.0844
16749TIP3    H271663   2.548   5.922  13.722 -0.1998 -0.8133  0.2859
16750TIP3   OH271664   2.472   1.155  13.203 -0.0366 -0.5194  0.1815
16750TIP3    H171665   2.388   1.174  13.245 -0.1352 -0.5877  0.0117
16750TIP3    H271666   2.461   1.182  13.112 -0.7192 -2.8527 -0.4924
16751TIP3   OH271667   0.345   6.215   0.909  0.1617  0.3548  0.3675
16751TIP3    H171668   0.291   6.135   0.908  0.5256  0.1108 -0.1673
16751TIP3    H271669   0.404   6.204   0.835  0.5484  0.8988  0.5970
16752TIP3   OH271670   0.018   3.644  15.750  0.2349 -0.2661  0.4533
16752TIP3    H171671   0.089   3.623  15.689 -1.6464 -3.0553 -0.9619
16752TIP3    H271672  -0.022   3.560  15.771 -4.8894  1.2408 -1.7039
16753TIP3   OH271673   3.876   0.754   4.598 -0.2284  0.3766  0.9499
16753TIP3    H171674   3.931   0.737   4.675 -0.8452  0.2539  1.3743
16753TIP3    H271675   3.789   0.724   4.624 -0.1432 -1.0878 -0.3534
16754TIP3   OH271676   1.944   2.133   3.559 -0.1454  0.9390  0.2183
16754TIP3    H171677   1.970   2.219   3.594 -0.3168  0.5993  1.2118
16754TIP3    H271678   1.885   2.155   3.487 -3.3600  1.7608  2.8207
16755TIP3   OH271679   2.154   6.316  13.035  0.0099 -0.8253  0.0694
16755TIP3    H171680   2.103   6.397  13.029  0.8748 -0.1696  1.1180
16755TIP3    H271681   2.190   6.317  13.123  2.5163 -0.8180 -0.8687
16756TIP3   OH271682   5.117   3.900  15.445 -0.2928  0.0835  0.1689
16756TIP3    H171683   5.055   3.958  15.401 -1.0205 -0.7501  0.0489
16756TIP3    H271684   5.090   3.900  15.537  0.4536  0.8612  0.3928
16757TIP3   OH271685   5.898   5.583   3.387 -0.4628 -0.3163 -0.1671
16757TIP3    H171686   5.868   5.551   3.302 -1.6324  0.1754  0.0402
16757TIP3    H271687   5.897   5.678   3.379  0.7790 -0.2742 -0.0434
16758TIP3   OH271688   2.780   3.051   0.611 -0.7991  0.2732 -0.1025
16758TIP3    H171689   2.789   3.146   0.605  0.2121  0.2048  0.0306
16758TIP3    H271690   2.840   3.026   0.682 -0.7476 -0.4976 -0.4029
16759TIP3   OH271691   4.523   4.994   6.970  0.3134  0.0298 -0.4381
16759TIP3    H171692   4.564   5.007   6.884 -2.0402  0.3865 -1.5787
16759TIP3    H271693   4.463   4.920   6.957 -0.1729  0.1718  0.8725
16760TIP3   OH271694   2.607   6.077   2.442  0.0721  0.3990 -0.2310
16760TIP3    H171695   2.522   6.060   2.484 -0.3735  0.1247 -1.2236
16760TIP3    H271696   2.590   6.067   2.349  1.4940 -0.9525 -0.3764
16761TIP3   OH271697   0.098   0.059  15.795 -0.2796 -0.3026 -0.1871
16761TIP3    H171698   0.075   0.148  15.825 -0.3663 -0.9729  1.9222
16761TIP3    H271699   0.026   0.004  15.826 -0.2767 -1.1162 -1.5682
16762TIP3   OH271700   1.738   0.956   4.072  0.5001 -0.6366 -0.3980
16762TIP3    H171701   1.709   0.980   3.984  0.2772 -1.3398 -0.5245
16762TIP3    H271702   1.709   0.866   4.083 -0.1272 -0.3293  0.6697
16763TIP3   OH271703   2.152   1.868   1.523 -0.2920 -0.5321  0.3462
16763TIP3    H171704   2.073   1.922   1.523 -0.1342 -0.1688 -2.4351
16763TIP3    H271705   2.221   1.925   1.491  0.9544 -1.1045  1.8789
16764TIP3   OH271706   5.398   5.295  12.331 -0.3563  0.0982 -0.0181
16764TIP3    H171707   5.462   5.296  12.260 -0.4267 -0.9694 -0.1150
16764TIP3    H271708   5.313   5.292  12.286 -0.4254 -5.0786 -0.1278
16765TIP3   OH271709   1.164   0.804   4.657 -0.8030 -0.6141 -0.1093
16765TIP3    H171710   1.094   0.865   4.676 -0.9319 -0.4559 -1.0611
16765TIP3    H271711   1.220   0.806   4.735  0.6023  2.6119 -1.0135
16766TIP3   OH271712   3.378   5.842   0.649 -0.3193  0.3476  0.5789
16766TIP3    H171713   3.351   5.930   0.675  0.3409  1.1721 -1.3307
16766TIP3    H271714   3.469   5.836   0.678  0.1038  0.8894 -0.5754
16767TIP3   OH271715   4.960   2.847   6.224  0.6309  0.6143 -0.0826
16767TIP3    H171716   4.923   2.858   6.311 -0.4837 -2.8399  0.0449
16767TIP3    H271717   5.025   2.916   6.216  0.7466  1.0683  3.4586
16768TIP3   OH271718   2.397   6.664   1.380  0.1445 -0.0990  0.5323
16768TIP3    H171719   2.320   6.718   1.361  0.1940  0.7852  2.6194
16768TIP3    H271720   2.360   6.578   1.402 -0.1073 -0.1915 -0.2208
16769TIP3   OH271721   2.640   4.703  14.636  0.0434 -0.3047  0.1062
16769TIP3    H171722   2.579   4.713  14.709  1.5641 -0.5873  1.4577
16769TIP3    H271723   2.697   4.631  14.661  0.9641 -0.0461 -1.1164
16770TIP3   OH271724   5.866   5.089   5.549  0.0122 -0.6714  0.7825
16770TIP3    H171725   5.842   5.146   5.622  0.8521  1.3613 -0.4487
16770TIP3    H271726   5.917   5.019   5.590  1.3118  0.9429  2.0820
16771TIP3   OH271727   4.485   5.513  11.337 -0.1554 -0.1244  0.3941
16771TIP3    H171728   4.549   5.442  11.339 -0.3127 -0.2447  1.5544
16771TIP3    H271729   4.530   5.588  11.373 -1.0610 -0.5790  2.6278
16772TIP3   OH271730   1.984   2.940  14.170 -0.2666  0.3114 -0.1332
16772TIP3    H171731   1.897   2.907  14.191  0.6196 -1.5639  0.8848
16772TIP3    H271732   1.974   3.035  14.168 -2.0880  0.2041  1.1887
16773TIP3   OH271733   1.626   6.753  13.662 -0.1478  0.3878 -0.5410
16773TIP3    H171734   1.671   6.813  13.602  1.0403  0.9013  0.8113
16773TIP3    H271735   1.696   6.717  13.717 -1.0679 -0.9386 -0.2158
16774TIP3   OH271736   2.386   5.827   2.018 -0.3483 -0.2305  0.1675
16774TIP3    H171737   2.374   5.737   2.048 -1.6687 -0.5603 -1.2226
16774TIP3    H271738   2.330   5.879   2.075  1.3405 -0.0549  1.7836
16775TIP3   OH271739   5.282   0.174  14.085  0.3354 -0.1383  0.3359
16775TIP3    H171740   5.309   0.208  14.000  1.3718 -0.8964  0.3485
16775TIP3    H271741   5.190   0.153  14.075  0.1036  1.0226 -0.1887
16776TIP3   OH271742   4.947   4.790  14.707  0.1347  0.7364 -0.1529
16776TIP3    H171743   4.961   4.745  14.790  0.6621  1.1318 -0.0195
16776TIP3    H271744   4.947   4.720  14.642 -0.9155  0.3568  0.2374
16777TIP3   OH271745   2.563   3.763   5.330 -0.3762  0.7346  0.3768
16777TIP3    H171746   2.532   3.794   5.415  1.0730 -1.4417  1.8325
16777TIP3    H271747   2.649   3.804   5.319  0.0621 -0.0581  0.7005
16778TIP3   OH271748   4.619   2.396   6.020 -0.2458 -0.7246 -0.1505
16778TIP3    H171749   4.685   2.458   6.052  0.4954 -0.8930 -1.3105
16778TIP3    H271750   4.605   2.337   6.094 -0.8695  0.7173  0.9315
16779TIP3   OH271751   5.078   4.609  16.627 -0.0612 -0.0178  0.0489
16779TIP3    H171752   5.132   4.595  16.705 -0.3357 -0.3768  0.1718
16779TIP3    H271753   5.112   4.691  16.590 -0.5271  0.6595  1.0514
16780TIP3   OH271754   6.503   2.203   5.107  0.6625 -0.2058 -0.0190
16780TIP3    H171755   6.466   2.289   5.086  0.2838 -0.4422 -0.3290
16780TIP3    H271756   6.515   2.160   5.023 -0.6029 -1.0471  0.1990
16781TIP3   OH271757   0.340   3.860   0.919  0.4567 -0.4091  0.0292
16781TIP3    H171758   0.256   3.899   0.946  0.6240  1.1036 -1.4707
16781TIP3    H271759   0.399   3.881   0.991 -0.0203  0.1658  0.2722
16782TIP3   OH271760   6.472   0.078  16.378  0.0607  0.0576 -0.7076
16782TIP3    H171761   6.444   0.034  16.458 -2.4819  1.5392 -0.6848
16782TIP3    H271762   6.465   0.171  16.398  2.1258  0.5035 -1.8044
16783TIP3   OH271763   4.425   4.127  14.947  0.1808 -0.3087 -0.3424
16783TIP3    H171764   4.469   4.069  14.885 -0.5992 -1.1082 -0.1616
16783TIP3    H271765   4.372   4.069  15.001 -0.9433  0.5989 -0.4227
16784TIP3   OH271766   3.310   0.763   5.603 -0.2308  0.4450  0.6789
16784TIP3    H171767   3.268   0.808   5.530  0.9240  0.3133 -0.0908
16784TIP3    H271768   3.398   0.801   5.607  1.2394 -2.4899 -0.7474
16785TIP3   OH271769   4.376   4.145   2.283  0.1568 -0.5454 -0.4482
16785TIP3    H171770   4.455   4.124   2.333  1.7173  0.0545 -2.5132
16785TIP3    H271771   4.342   4.060   2.256  0.7041 -0.7744 -0.4290
16786TIP3   OH271772   1.716   5.965  15.878 -0.8263 -0.3868  0.6317
16786TIP3    H171773   1.702   6.000  15.790 -0.1202  0.4135  0.8284
16786TIP3    H271774   1.805   5.993  15.901 -0.9573 -0.7083  1.5451
16787TIP3   OH271775   5.205   6.089  15.249  0.2256 -0.5636  0.7236
16787TIP3    H171776   5.167   6.166  15.290  0.0246 -0.8424  1.0659
16787TIP3    H271777   5.261   6.124  15.180 -1.3866 -0.1789 -0.4343
16788TIP3   OH271778   1.228   4.364   0.500 -0.5205  0.6683  0.0117
16788TIP3    H171779   1.240   4.446   0.452  0.3761  1.0524  0.8808
16788TIP3    H271780   1.161   4.384   0.565 -0.1585  0.7718  0.3544
16789TIP3   OH271781   0.514   1.148   1.820 -0.3253  0.5275  0.2888
16789TIP3    H171782   0.566   1.208   1.874  2.1595 -0.0084 -1.3310
16789TIP3    H271783   0.574   1.077   1.798 -2.0366 -0.6146 -0.9957
16790TIP3   OH271784   1.480   2.799   3.521  0.3641 -0.2199  0.0064
16790TIP3    H171785   1.416   2.765   3.459 -1.0121 -0.2646  1.4046
16790TIP3    H271786   1.502   2.724   3.576 -1.4826  0.6898  2.0970
16791TIP3   OH271787   4.688   3.490  13.745  0.5140 -0.4603 -0.0581
16791TIP3    H171788   4.664   3.537  13.666 -0.0193 -0.2070  0.2491
16791TIP3    H271789   4.784   3.493  13.747  0.4896  0.6305 -0.0238
16792TIP3   OH271790   0.554   5.675  14.686  0.1549 -0.1325  0.1191
16792TIP3    H171791   0.487   5.608  14.696 -0.2775  0.0717 -1.1603
16792TIP3    H271792   0.625   5.630  14.640  2.0159 -1.0264  3.5896
16793TIP3   OH271793   4.356   0.310  12.058  0.1044 -0.0354 -0.2671
16793TIP3    H171794   4.440   0.344  12.088  1.0936 -0.3175 -2.5508
16793TIP3    H271795   4.330   0.369  11.987 -1.3007 -0.3671 -0.0668
16794TIP3   OH271796   1.252   6.503   1.592  0.1616 -0.2905  0.2136
16794TIP3    H171797   1.179   6.444   1.612  0.4089 -0.3085  1.1017
16794TIP3    H271798   1.223   6.588   1.623  0.0245 -0.0423 -0.5746
16795TIP3   OH271799   4.811   0.210  15.000  0.3553  0.4722  0.0605
16795TIP3    H171800   4.904   0.186  14.994  0.3890  0.3625  0.9130
16795TIP3    H271801   4.807   0.270  15.074 -0.0190  1.7043 -0.9246
16796TIP3   OH271802   1.122   1.777   5.716 -0.2747  0.1530 -0.1336
16796TIP3    H171803   1.126   1.873   5.707  2.3925  0.0478 -0.8609
16796TIP3    H271804   1.081   1.747   5.635  0.5963  0.6042 -0.7560
16797TIP3   OH271805   5.716   5.872  12.268  0.2980 -0.2992 -0.3491
16797TIP3    H171806   5.686   5.927  12.195  1.8187  1.2799  0.1449
16797TIP3    H271807   5.642   5.873  12.329 -0.5661 -0.7271 -1.3482
16798TIP3   OH271808   1.442   6.039  16.306  0.1984  0.1396  0.6193
16798TIP3    H171809   1.525   6.048  16.257  1.0709  1.8702  2.2733
16798TIP3    H271810   1.445   6.110  16.370 -0.7110 -2.2182  3.4514
16799TIP3   OH271811   5.798   4.381  12.185 -0.0420  0.1946 -0.2976
16799TIP3    H171812   5.862   4.452  12.183  0.3607 -0.0985  1.1071
16799TIP3    H271813   5.762   4.382  12.274 -0.6679 -0.8047 -0.5101
16800TIP3   OH271814   6.262   1.662  16.105  0.1479 -0.4159  0.1526
16800TIP3    H171815   6.174   1.686  16.133 -0.5332  0.4452 -2.4149
16800TIP3    H271816   6.268   1.568  16.125 -2.5600 -1.2617 -2.1865
16801TIP3   OH271817   2.148   3.026  16.075 -0.3644  0.4427 -0.5563
16801TIP3    H171818   2.067   3.007  16.029 -0.4707  0.8475 -0.5363
16801TIP3    H271819   2.196   2.943  16.074 -0.5429  0.3419 -1.0377
16802TIP3   OH271820   2.678   3.707  11.482 -0.3274 -0.4411  0.2059
16802TIP3    H171821   2.678   3.633  11.542 -0.8583 -0.1287  0.6037
16802TIP3    H271822   2.765   3.706  11.442  0.0606 -0.6149  1.0325
16803TIP3   OH271823   1.962   0.468   1.896  0.4451 -0.3577  0.6094
16803TIP3    H171824   1.984   0.380   1.929  2.6902 -0.1283 -0.1259
16803TIP3    H271825   2.046   0.505   1.870 -0.8379  0.7052 -2.3558
16804TIP3   OH271826   1.343   3.413  11.215 -0.1801  0.3366  0.6931
16804TIP3    H171827   1.286   3.468  11.268  0.7750  1.1399  0.9009
16804TIP3    H271828   1.283   3.348  11.176 -0.8441 -0.8533  3.3963
16805TIP3   OH271829   3.060   5.919  15.614  0.0374  0.5133  0.2330
16805TIP3    H171830   3.081   5.883  15.701  0.6391  0.7646  0.1970
16805TIP3    H271831   3.060   5.842  15.556 -0.2431  0.3622  0.4287
16806TIP3   OH271832   6.408   3.850   2.041 -0.2286 -0.1217 -0.1344
16806TIP3    H171833   6.474   3.913   2.070  0.7405 -0.7685 -0.8518
16806TIP3    H271834   6.355   3.833   2.119  0.7031  0.1098  0.5656
16807TIP3   OH271835   5.421   6.271  11.344 -1.0608  0.1185  0.1385
16807TIP3    H171836   5.410   6.268  11.249  1.8563  0.2966 -0.3123
16807TIP3    H271837   5.507   6.230  11.359 -1.4535  0.0786  2.7126
16808TIP3   OH271838   2.451   3.291   1.357  0.4552  0.0015  0.0727
16808TIP3    H171839   2.536   3.296   1.313  0.0144 -2.6519 -1.2877
16808TIP3    H271840   2.389   3.270   1.287 -1.0266  0.1523  1.2938
16809TIP3   OH271841   0.013   5.793  15.024  0.1052 -0.3162  0.1278
16809TIP3    H171842  -0.003   5.711  14.978  0.4104 -0.2940 -0.0197
16809TIP3    H271843  -0.013   5.861  14.963  0.0942 -0.2968  0.1541
16810TIP3   OH271844   4.046   6.182  16.833 -0.0360 -0.1344  0.2465
16810TIP3    H171845   3.965   6.221  16.802  0.2104  0.2680  0.1039
16810TIP3    H271846   4.021   6.130  16.909 -0.4204  0.0053  0.2152
16811TIP3   OH271847   3.988   2.759   5.267 -0.0984  0.4949  0.1299
16811TIP3    H171848   3.989   2.818   5.342 -0.3810 -0.3926  0.8508
16811TIP3    H271849   4.063   2.786   5.214  0.7941  0.4057  1.3139
16812TIP3   OH271850   6.688   2.095  12.811  0.4903  0.1392 -0.2397
16812TIP3    H171851   6.644   2.138  12.738 -3.2926  3.5095  3.4684
16812TIP3    H271852   6.736   2.165  12.854  0.4858 -1.0742  1.8671
16813TIP3   OH271853   5.868   4.781  14.366  0.4429  0.7369 -0.2689
16813TIP3    H171854   5.909   4.858  14.405 -0.0718  0.1093  1.6516
16813TIP3    H271855   5.923   4.708  14.396  1.3558  0.3632 -2.6521
16814TIP3   OH271856   1.353   4.804  16.834  0.2633 -0.0619 -0.1160
16814TIP3    H171857   1.342   4.823  16.740  2.7089  0.4442 -0.3614
16814TIP3    H271858   1.439   4.839  16.855 -0.4831  0.3648  2.4987
16815TIP3   OH271859   4.491   6.743  14.384  0.1931  0.2489 -0.5076
16815TIP3    H171860   4.536   6.699  14.456 -0.4092  0.1009 -0.2112
16815TIP3    H271861   4.427   6.679  14.353  1.3195 -0.1872 -2.0508
16816TIP3   OH271862   5.678   3.492  15.328  0.1404  0.4229 -0.2073
16816TIP3    H171863   5.694   3.587  15.329 -0.3226  0.4981  0.4695
16816TIP3    H271864   5.675   3.470  15.235  0.8202  0.9753 -0.3700
16817TIP3   OH271865   1.527   0.221   5.446 -0.0953 -0.2200  0.0681
16817TIP3    H171866   1.611   0.177   5.459  1.1031  1.3803 -1.6017
16817TIP3    H271867   1.507   0.262   5.530  1.8469  0.9906  0.0103
16818TIP3   OH271868   5.540   2.890   2.059  0.2936  0.3743  0.2852
16818TIP3    H171869   5.516   2.978   2.030  1.0298  0.8809  1.1411
16818TIP3    H271870   5.567   2.845   1.979 -1.0436  0.5944 -0.3064
16819TIP3   OH271871   4.632   6.585  13.192 -0.6028  0.1113  0.1885
16819TIP3    H171872   4.693   6.562  13.122 -0.0781  2.3314 -0.1612
16819TIP3    H271873   4.687   6.610  13.266 -0.9628  2.7027 -0.3120
16820TIP3   OH271874   3.381   6.197   3.885 -0.3258  0.3264 -0.2680
16820TIP3    H171875   3.289   6.174   3.878 -0.2667 -0.1741  0.4835
16820TIP3    H271876   3.425   6.139   3.823 -0.6970  1.9219 -2.1258
16821TIP3   OH271877   2.854   0.593  12.013 -0.0030 -0.5488  0.1446
16821TIP3    H171878   2.769   0.585  11.971 -0.0406  2.3129 -0.4908
16821TIP3    H271879   2.844   0.665  12.075  1.9085 -0.2067  0.1157
16822TIP3   OH271880   5.851   3.675   4.681  0.4283 -0.1157 -0.2144
16822TIP3    H171881   5.856   3.717   4.767 -0.0245 -0.9744  0.2410
16822TIP3    H271882   5.930   3.704   4.635 -0.3986  2.1626 -0.3613
16823TIP3   OH271883   0.115   4.199   1.565  0.3364  0.7058  0.0680
16823TIP3    H171884   0.088   4.248   1.488 -1.8285 -3.3946 -2.0740
16823TIP3    H271885   0.040   4.143   1.586  1.7398 -0.0787  3.7379
16824TIP3   OH271886   1.054   4.351   4.139  0.0090 -0.0671 -0.3104
16824TIP3    H171887   0.987   4.407   4.179  3.4373  3.8876  0.6033
16824TIP3    H271888   1.056   4.273   4.194 -3.5220 -0.2871 -0.2582
16825TIP3   OH271889   5.996   2.893  14.297  0.2857 -0.2075 -0.3674
16825TIP3    H171890   6.091   2.879  14.304  0.3789 -0.2136 -1.4991
16825TIP3    H271891   5.973   2.861  14.210 -0.8764 -0.8170  0.1334
16826TIP3   OH271892   5.670   4.402   1.681 -0.3229 -0.0737 -0.5872
16826TIP3    H171893   5.619   4.394   1.600 -0.7091  1.3392 -0.5113
16826TIP3    H271894   5.761   4.399   1.651 -0.4520  1.5310 -1.2412
16827TIP3   OH271895   1.371   2.304  16.106  0.0313  0.3221  0.1441
16827TIP3    H171896   1.387   2.210  16.098 -0.2640  0.4059 -3.0981
16827TIP3    H271897   1.439   2.335  16.165  0.2766 -1.8699  1.1343
16828TIP3   OH271898   6.084   0.280  13.112 -0.1808  0.3413  1.0052
16828TIP3    H171899   6.161   0.333  13.131  0.0280 -0.3412  2.1958
16828TIP3    H271900   6.114   0.190  13.124 -1.0204  0.0508  0.9708
16829TIP3   OH271901   2.307   5.295   0.281  0.4688  0.1718 -0.2007
16829TIP3    H171902   2.267   5.310   0.367 -0.9465  0.7804 -0.9356
16829TIP3    H271903   2.261   5.355   0.222  2.4169  0.8485 -1.1333
16830TIP3   OH271904   1.179   3.841  13.645 -0.0518  0.7632  0.2902
16830TIP3    H171905   1.179   3.771  13.711 -1.7831  0.2878 -0.1688
16830TIP3    H271906   1.215   3.799  13.567 -1.2851  0.3094 -0.0440
16831TIP3   OH271907   4.348   4.912   0.492  0.2601 -0.6361 -0.2905
16831TIP3    H171908   4.362   4.822   0.524  0.0527 -0.3968  0.4908
16831TIP3    H271909   4.365   4.967   0.568 -0.8869 -0.0925 -0.4067
16832TIP3   OH271910   3.087   0.996  15.067 -0.0253 -0.4068  0.3347
16832TIP3    H171911   3.053   1.059  15.131 -1.1818  1.2449 -1.7674
16832TIP3    H271912   3.099   1.047  14.987  0.3816 -2.5792 -1.0803
16833TIP3   OH271913   2.246   2.497  14.523  0.4113  0.0791 -0.4636
16833TIP3    H171914   2.244   2.470  14.614 -0.2567  1.0384 -0.1719
16833TIP3    H271915   2.188   2.436  14.478 -2.3803  1.8330  0.4592
16834TIP3   OH271916   3.012   5.014  12.403 -0.2542 -0.0719 -0.1776
16834TIP3    H171917   3.106   5.015  12.421 -0.5900 -3.0242  2.6956
16834TIP3    H271918   2.976   5.086  12.456  0.1981 -0.4194  0.6225
16835TIP3   OH271919   3.350   4.959  15.226  0.1662 -0.3245 -0.5324
16835TIP3    H171920   3.280   5.024  15.233  0.9677  0.4966 -0.0125
16835TIP3    H271921   3.317   4.883  15.275  0.2587  0.6120  1.0539
16836TIP3   OH271922   3.839   1.599   1.448 -0.3747 -0.6405  0.1854
16836TIP3    H171923   3.868   1.674   1.500  1.0907 -1.4101  0.5348
16836TIP3    H271924   3.745   1.593   1.464  0.0435 -1.0036  3.0031
16837TIP3   OH271925   4.696   4.766  16.943  0.4355 -0.6260  0.2705
16837TIP3    H171926   4.698   4.686  16.890  0.9129 -0.2805 -0.2481
16837TIP3    H271927   4.692   4.735  17.033  3.0353 -1.3133  0.2402
16838TIP3   OH271928   4.747   3.155  11.673  0.4557 -0.1579  0.5781
16838TIP3    H171929   4.762   3.135  11.580 -0.5055 -2.5065  0.8606
16838TIP3    H271930   4.658   3.190  11.676  0.0561 -1.1434  0.7047
16839TIP3   OH271931   4.858   4.092   5.031 -0.8676 -0.5166 -0.5071
16839TIP3    H171932   4.813   4.010   5.011  1.4721 -1.8204 -0.8434
16839TIP3    H271933   4.880   4.129   4.945 -2.0616  0.5814 -0.3583
16840TIP3   OH271934   3.505   2.790   4.587 -0.3304  0.3121  0.4554
16840TIP3    H171935   3.554   2.765   4.665  0.6524 -1.1411 -0.5799
16840TIP3    H271936   3.526   2.882   4.574  1.9181 -0.1764  0.2456
16841TIP3   OH271937   6.144   0.755   0.688  0.0605 -0.3921 -0.0363
16841TIP3    H171938   6.053   0.753   0.717  0.5128 -2.2152  1.4653
16841TIP3    H271939   6.145   0.817   0.615 -2.0431  0.9471  0.9809
16842TIP3   OH271940   1.034   2.073  13.427 -0.3758  0.0045 -0.0034
16842TIP3    H171941   1.050   2.142  13.492 -0.0771 -1.3996  1.4706
16842TIP3    H271942   1.107   2.082  13.365  0.1666  0.4403  0.6802
16843TIP3   OH271943   3.489   6.292   3.559  0.7635  0.5308 -0.7583
16843TIP3    H171944   3.579   6.260   3.551  0.6965  0.2324 -0.3564
16843TIP3    H271945   3.493   6.382   3.527  1.1806  0.4759 -0.8673
16844TIP3   OH271946   1.429   6.051   5.077 -0.8336 -0.8440 -0.0744
16844TIP3    H171947   1.417   5.992   5.151  1.7700 -2.5006 -0.8450
16844TIP3    H271948   1.523   6.071   5.077 -1.1370  0.8316 -1.6848
16845TIP3   OH271949   1.822   5.029   5.800  0.1222 -0.1183  0.1397
16845TIP3    H171950   1.768   4.972   5.746  0.0607  1.0763 -1.0933
16845TIP3    H271951   1.816   5.115   5.759  0.5587  0.7075  1.7097
16846TIP3   OH271952   0.012   5.835  16.985 -0.2999  0.2159 -0.8641
16846TIP3    H171953  -0.025   5.865  16.902 -0.9390 -0.7417 -0.9488
16846TIP3    H271954   0.066   5.907  17.015  0.1166  0.5072 -2.2283
16847TIP3   OH271955   4.037   4.530   0.933 -0.0587  0.0176  0.2424
16847TIP3    H171956   3.942   4.540   0.929 -0.1737 -1.1794 -0.3685
16847TIP3    H271957   4.055   4.447   0.889  1.0803 -0.8884  2.2437
16848TIP3   OH271958   0.645   2.330   0.718  0.1038  0.6818 -0.3064
16848TIP3    H171959   0.690   2.344   0.801  0.6331  0.6896 -0.5895
16848TIP3    H271960   0.552   2.329   0.741  0.3052 -1.2578  0.5619
16849TIP3   OH271961   2.308   2.369  16.575  0.3317 -0.1106  0.5861
16849TIP3    H171962   2.397   2.391  16.601  0.1190 -1.4792  2.7054
16849TIP3    H271963   2.316   2.288  16.526  0.2940  0.1084  0.2110
16850TIP3   OH271964   1.263   1.076  11.317 -0.3044 -0.1942  0.2065
16850TIP3    H171965   1.259   0.985  11.285 -0.1771  0.8554 -3.2133
16850TIP3    H271966   1.171   1.102  11.327 -0.3410 -0.6791  1.3045
16851TIP3   OH271967   5.090   0.143   4.016 -0.0497  0.2021  0.8472
16851TIP3    H171968   5.120   0.103   4.097  1.9848 -1.0939 -0.4496
16851TIP3    H271969   5.130   0.230   4.016  1.0658 -0.2855  0.6726
16852TIP3   OH271970   6.424   2.936  17.090  0.4847  0.0704 -0.5885
16852TIP3    H171971   6.486   2.982  17.034  0.7551 -1.3373 -1.4881
16852TIP3    H271972   6.415   2.993  17.167  2.7173  0.4210 -0.5133
16853TIP3   OH271973   6.138   2.254  15.071  0.4699  0.1559 -0.5740
16853TIP3    H171974   6.190   2.176  15.052  1.5291  0.8178 -0.4983
16853TIP3    H271975   6.097   2.277  14.988  1.4664  0.4440 -1.0067
16854TIP3   OH271976   5.082   5.506   0.725  0.3924 -0.1323  0.8587
16854TIP3    H171977   5.140   5.434   0.701 -2.6627 -2.5664  0.0824
16854TIP3    H271978   5.085   5.566   0.650  1.9100 -0.1592  0.8832
16855TIP3   OH271979   5.055   4.189  15.345 -0.4272 -0.4187  0.2749
16855TIP3    H171980   5.142   4.174  15.309  0.1482 -0.5407  1.6533
16855TIP3    H271981   5.012   4.245  15.281 -0.0150 -1.8857 -1.3567
16856TIP3   OH271982   4.280   6.039  16.804  0.3566 -0.0200 -0.3961
16856TIP3    H171983   4.241   5.981  16.739  0.1431 -0.1484 -0.1522
16856TIP3    H271984   4.207   6.090  16.838  0.5664  0.5064 -0.7220
16857TIP3   OH271985   0.136   3.415  11.626  0.1102 -0.1159  0.1302
16857TIP3    H171986   0.157   3.331  11.667 -1.1614 -0.7104 -0.3610
16857TIP3    H271987   0.190   3.417  11.547 -2.0699 -2.0002 -1.5614
16858TIP3   OH271988   4.549   2.910   4.572  0.2103 -0.1712  0.1693
16858TIP3    H171989   4.532   2.816   4.569  0.0424 -0.1429  0.2248
16858TIP3    H271990   4.465   2.949   4.595 -0.0381  0.0911 -1.1050
16859TIP3   OH271991   2.329   5.295   3.378 -0.5343 -0.2234 -0.0783
16859TIP3    H171992   2.363   5.231   3.316 -0.1754  0.0521 -0.1779
16859TIP3    H271993   2.407   5.342   3.408 -0.6822 -0.4983  0.7452
16860TIP3   OH271994   5.571   1.065  14.100  0.1923 -0.2105  0.1008
16860TIP3    H171995   5.655   1.046  14.142 -0.9782 -0.4840  2.4977
16860TIP3    H271996   5.549   0.985  14.052  1.7752  0.2668 -1.5249
16861TIP3   OH271997   3.523   5.526   4.061  0.1903  0.3290 -0.1204
16861TIP3    H171998   3.578   5.592   4.103 -0.3560  1.1866 -0.7144
16861TIP3    H271999   3.438   5.568   4.052  0.7747  1.1270 -4.0714
16862TIP3   OH272000   2.169   0.984   4.919  0.0816  0.2443 -0.5593
16862TIP3    H172001   2.245   0.957   4.969 -0.5008 -0.3116  0.0433
16862TIP3    H272002   2.193   0.966   4.828  0.2162 -1.0900 -0.2807
16863TIP3   OH272003   4.665   0.324  11.701  0.1931 -0.0842  0.5324
16863TIP3    H172004   4.750   0.282  11.685  0.3725  0.5939 -0.3231
16863TIP3    H272005   4.616   0.313  11.620  0.3090  1.4992  0.2131
16864TIP3   OH272006   0.053   3.011   2.185  0.0023  0.2811  0.0117
16864TIP3    H172007   0.121   2.976   2.243  1.3485  1.0812 -1.0096
16864TIP3    H272008   0.102   3.052   2.114 -1.5880  0.1782 -1.1917
16865TIP3   OH272009   4.654   2.592   1.859 -0.6043 -0.4176  0.4331
16865TIP3    H172010   4.707   2.666   1.889  0.9708 -1.3226 -0.0025
16865TIP3    H272011   4.718   2.529   1.824 -2.0752 -1.0045 -1.3381
16866TIP3   OH272012   1.226   1.898   0.145  0.4661 -0.3024 -0.1609
16866TIP3    H172013   1.306   1.936   0.182  0.1562  1.4415 -1.1955
16866TIP3    H272014   1.221   1.933   0.056 -1.9095  0.3844  0.1710
16867TIP3   OH272015   1.914   4.626  16.400 -0.4689  0.3188 -0.9106
16867TIP3    H172016   1.960   4.703  16.369 -0.0626 -0.4275 -2.2426
16867TIP3    H272017   1.966   4.596  16.475 -0.0591  0.7699 -1.0105
16868TIP3   OH272018   4.234   6.499   5.375 -0.0086  0.5959 -0.2383
16868TIP3    H172019   4.222   6.418   5.324 -0.9645  0.0407  0.8239
16868TIP3    H272020   4.329   6.509   5.382  0.1221 -0.4637 -0.3391
16869TIP3   OH272021   4.257   5.016   4.257 -0.2863 -0.2940  0.4659
16869TIP3    H172022   4.296   4.956   4.321  0.5181 -0.6761 -0.3587
16869TIP3    H272023   4.306   5.000   4.177 -1.3438  0.1143 -0.2790
16870TIP3   OH272024   6.148   2.559   1.973  0.1116  0.2608  0.0911
16870TIP3    H172025   6.238   2.559   1.939  1.1847  0.2742  2.6683
16870TIP3    H272026   6.137   2.647   2.011 -0.3499 -0.2810  1.2631
16871TIP3   OH272027   4.928   4.542  13.309  0.2199 -0.6216  0.5175
16871TIP3    H172028   5.001   4.595  13.343  0.3366 -0.2811 -0.2484
16871TIP3    H272029   4.861   4.548  13.377  0.2825  0.4048  0.5090
16872TIP3   OH272030   1.672   1.852  14.928  0.0947 -0.0728  0.1375
16872TIP3    H172031   1.679   1.857  15.023  0.5523  1.0362  0.0634
16872TIP3    H272032   1.707   1.936  14.897  0.8460 -0.8004 -1.0480
16873TIP3   OH272033   3.222   0.485   0.354  0.5338  0.2857 -0.3351
16873TIP3    H172034   3.208   0.413   0.293  1.9702 -0.7773  0.5180
16873TIP3    H272035   3.317   0.498   0.356  0.3773  1.5814  0.2416
16874TIP3   OH272036   5.454   2.929  16.894  0.1581 -0.3239 -0.4518
16874TIP3    H172037   5.466   2.944  16.800 -0.9396 -1.5822 -0.8376
16874TIP3    H272038   5.427   3.014  16.929 -1.7798 -0.3522 -1.7409
16875TIP3   OH272039   4.916   6.398  11.595 -0.0120  0.8302  0.0280
16875TIP3    H172040   4.985   6.399  11.529  0.0745  0.3430  0.1033
16875TIP3    H272041   4.837   6.373  11.547  0.1169  0.1459  0.1640
16876TIP3   OH272042   2.087   5.880  12.350 -0.1230 -0.7038 -0.2447
16876TIP3    H172043   2.130   5.938  12.413 -1.0235 -1.9862  1.6539
16876TIP3    H272044   2.027   5.936  12.302 -0.8202  0.0130  1.3878
16877TIP3   OH272045   1.923   2.744   0.713 -0.4259  0.1152  0.3354
16877TIP3    H172046   1.952   2.807   0.779  0.5768  0.5206 -0.4572
16877TIP3    H272047   1.847   2.785   0.672  0.0022  0.6744  0.0744
16878TIP3   OH272048   6.705   0.966  13.683 -0.4879  0.1101 -0.8128
16878TIP3    H172049   6.773   1.006  13.629  0.8081  1.2614  1.5060
16878TIP3    H272050   6.650   0.918  13.621  0.3375  2.0674 -3.2212
16879TIP3   OH272051   0.488   2.726  15.957  0.1781  0.2584 -0.0291
16879TIP3    H172052   0.400   2.735  15.995  0.7519  1.1635  1.1416
16879TIP3    H272053   0.533   2.807  15.982  1.4160 -0.2858 -0.4396
16880TIP3   OH272054   2.410   5.777   3.834 -0.2630  0.1222 -0.2223
16880TIP3    H172055   2.361   5.742   3.760 -2.3851  1.2252  0.5674
16880TIP3    H272056   2.343   5.807   3.895  1.4216  0.4695  1.5721
16881TIP3   OH272057   2.527   2.858   0.610  0.2320  0.2994  0.8081
16881TIP3    H172058   2.585   2.789   0.579  0.7864  0.9193  0.4324
16881TIP3    H272059   2.572   2.939   0.586 -1.3940  0.8121 -0.7139
16882TIP3   OH272060   2.005   0.059  12.352 -0.5028  0.1038  0.0091
16882TIP3    H172061   1.918   0.099  12.353 -0.3357  0.5546 -1.3838
16882TIP3    H272062   2.010   0.010  12.434 -1.5830  1.0919  0.6920
16883TIP3   OH272063   1.745   5.479   1.408  0.0681  0.3399  0.4401
16883TIP3    H172064   1.709   5.444   1.490 -1.4591  1.4138  0.2578
16883TIP3    H272065   1.787   5.561   1.434 -0.3610  0.6482  0.1556
16884TIP3   OH272066   4.874   4.157  11.176 -0.1356 -0.0150 -0.6988
16884TIP3    H172067   4.855   4.244  11.140  1.8892  0.4813 -0.7123
16884TIP3    H272068   4.929   4.116  11.110 -0.1923 -0.8976 -0.2081
16885TIP3   OH272069   2.998   2.552   4.396  0.4316 -0.0373 -0.0330
16885TIP3    H172070   2.983   2.500   4.475 -0.5249 -0.1802 -0.2953
16885TIP3    H272071   3.092   2.543   4.379  1.0430  1.4695  2.1014
16886TIP3   OH272072   4.600   5.816   2.799  0.1467 -0.8157  0.1484
16886TIP3    H172073   4.672   5.871   2.831 -0.3903 -0.2571  0.4153
16886TIP3    H272074   4.602   5.827   2.704 -0.2710  0.0762  0.2302
16887TIP3   OH272075   5.135   1.619   2.784  0.5131  0.6255 -0.1766
16887TIP3    H172076   5.150   1.533   2.745  1.0798  1.0681 -0.9781
16887TIP3    H272077   5.060   1.655   2.736 -0.5077  0.1073  0.9828
16888TIP3   OH272078   2.649   2.480  14.004  0.3159 -0.2759 -0.2200
16888TIP3    H172079   2.719   2.505  13.943  0.7963 -1.0513 -0.0101
16888TIP3    H272080   2.569   2.483  13.952  0.8802 -2.2925 -1.3270
16889TIP3   OH272081   3.340   0.462  14.170 -0.8118 -0.3686 -0.1150
16889TIP3    H172082   3.282   0.537  14.181  0.6903  1.2346 -2.3185
16889TIP3    H272083   3.369   0.441  14.259 -0.3835  2.4175  0.4919
16890TIP3   OH272084   3.849   3.453  12.424  0.2762 -0.4103  0.0941
16890TIP3    H172085   3.885   3.393  12.359 -1.0286 -2.0416  0.8172
16890TIP3    H272086   3.823   3.397  12.497 -1.6372  0.9534  0.5257
16891TIP3   OH272087   3.429   1.915  17.000 -0.1487  0.0256 -0.1657
16891TIP3    H172088   3.512   1.957  17.024 -0.1121  0.6212 -1.2650
16891TIP3    H272089   3.363   1.983  17.014  0.0585  0.9901 -3.1794
16892TIP3   OH272090   1.160   0.119   2.180 -0.2048  0.1353 -0.3908
16892TIP3    H172091   1.116   0.054   2.234 -0.0228 -0.8824 -1.4293
16892TIP3    H272092   1.237   0.145   2.231 -0.5253 -0.1195  0.2257
16893TIP3   OH272093   2.624   5.302  11.018 -0.2453  0.1091 -0.3638
16893TIP3    H172094   2.701   5.357  11.003  0.5992 -0.6743  0.9014
16893TIP3    H272095   2.630   5.233  10.951  0.6248 -0.4250  0.2559
16894TIP3   OH272096   4.201   1.808  16.984 -0.1786  0.1547 -0.4750
16894TIP3    H172097   4.187   1.714  16.992  0.7093  0.0811  0.4704
16894TIP3    H272098   4.250   1.831  17.063  0.9197  1.1455 -1.4121
16895TIP3   OH272099   4.270   5.845   1.530 -0.4675 -0.1810 -0.2180
16895TIP3    H172100   4.294   5.927   1.486  1.0645  0.1867  1.2058
16895TIP3    H272101   4.197   5.869   1.588 -0.3003  0.0833 -0.1157
16896TIP3   OH272102   1.687   0.651  10.884 -0.0977  0.2600  0.5194
16896TIP3    H172103   1.639   0.614  10.809 -1.0621 -0.4474  1.4514
16896TIP3    H272104   1.678   0.746  10.874 -1.6344  0.1481  0.6002
16897TIP3   OH272105   0.546   6.528  15.081 -0.0461 -0.1171  0.1823
16897TIP3    H172106   0.478   6.549  15.144  0.1836 -1.3403  0.8812
16897TIP3    H272107   0.526   6.581  15.004 -2.3394 -1.1150  0.0131
16898TIP3   OH272108   5.303   3.914   4.922  0.2498 -0.8450  0.2004
16898TIP3    H172109   5.293   3.857   4.846  0.3617 -1.0213  0.3154
16898TIP3    H272110   5.240   3.880   4.986 -0.3279 -0.2806 -0.0533
16899TIP3   OH272111   1.807   6.316  15.825  0.1913 -0.6241 -0.6515
16899TIP3    H172112   1.761   6.255  15.766  0.2090 -1.0728 -0.2113
16899TIP3    H272113   1.854   6.259  15.885 -0.4054 -0.1785  0.2583
16900TIP3   OH272114   1.248   2.961   1.795  0.0085 -0.6009  0.0371
16900TIP3    H172115   1.165   2.946   1.841 -0.0532 -0.4931 -0.0383
16900TIP3    H272116   1.226   3.024   1.727 -0.0324 -1.2274 -0.5400
16901TIP3   OH272117   2.881   1.634   2.216  0.5842 -0.4895 -0.7207
16901TIP3    H172118   2.967   1.603   2.190  0.8868  1.0097 -1.6490
16901TIP3    H272119   2.893   1.728   2.233 -0.6330 -0.4728  0.2399
16902TIP3   OH272120   2.722   5.450  16.275 -0.6427 -0.1979 -0.2832
16902TIP3    H172121   2.660   5.523  16.265  1.3502  1.6417 -0.1123
16902TIP3    H272122   2.806   5.487  16.247  0.5499 -2.3284  0.2913
16903TIP3   OH272123   3.057   3.092   1.203 -0.3399 -0.3717  0.0067
16903TIP3    H172124   3.035   3.165   1.145  1.4323  0.2498  0.0571
16903TIP3    H272125   3.056   3.015   1.146  0.9802  0.1732 -0.7963
16904TIP3   OH272126   4.890   4.260  14.666  0.5642 -0.7543 -0.0503
16904TIP3    H172127   4.803   4.295  14.688  1.5651  1.2499  0.9804
16904TIP3    H272128   4.894   4.176  14.712 -0.3299 -0.2425  1.0183
16905TIP3   OH272129   0.404   6.097  16.568 -0.6142  0.1191 -0.0031
16905TIP3    H172130   0.401   6.002  16.561  1.0774 -0.0556  1.1197
16905TIP3    H272131   0.333   6.119  16.628 -0.5338 -0.5004  0.3252
16906TIP3   OH272132   2.921   3.584  11.973 -0.1094  0.1955  0.2302
16906TIP3    H172133   2.977   3.525  12.023 -0.3134  0.1862  0.4499
16906TIP3    H272134   2.884   3.529  11.904 -0.6062 -0.0354  0.6684
16907TIP3   OH272135   4.973   1.412  15.785  0.4549 -0.3112  0.2902
16907TIP3    H172136   4.980   1.394  15.691  1.3356 -1.2260  0.5122
16907TIP3    H272137   5.048   1.467  15.804 -0.0851  0.4144  0.3448
16908TIP3   OH272138   1.681   5.558  14.367  0.2859  0.0838 -0.2174
16908TIP3    H172139   1.602   5.612  14.361  0.1854 -0.0989 -0.6010
16908TIP3    H272140   1.663   5.497  14.439 -0.6420 -1.0939 -1.3850
16909TIP3   OH272141   5.422   0.092   4.835  0.2426 -0.4382 -1.2291
16909TIP3    H172142   5.509   0.060   4.858 -0.4530 -1.5342  0.0607
16909TIP3    H272143   5.378   0.103   4.920 -1.3081 -1.2636 -1.8840
16910TIP3   OH272144   5.917   2.802   6.152  0.7255 -0.6553 -0.0387
16910TIP3    H172145   5.917   2.854   6.072  2.0636 -0.8834 -0.2143
16910TIP3    H272146   5.885   2.862   6.220 -3.2017 -1.2424 -1.1334
16911TIP3   OH272147   1.162   2.967  12.613 -0.5092 -0.0731 -0.2300
16911TIP3    H172148   1.193   2.940  12.527  0.5058  0.1830  0.0458
16911TIP3    H272149   1.133   3.057  12.602 -0.0507  0.0770 -0.2331
16912TIP3   OH272150   3.639   4.130  11.048 -0.3885  0.4099 -0.0831
16912TIP3    H172151   3.640   4.226  11.044 -0.8402  0.4814  1.2320
16912TIP3    H272152   3.731   4.106  11.061  0.0004  0.5341 -2.1467
16913TIP3   OH272153   1.948   1.738  16.975 -0.1916  0.3558 -0.3430
16913TIP3    H172154   1.956   1.832  16.986  0.5697  0.3411 -0.7220
16913TIP3    H272155   1.970   1.722  16.883  1.8978 -0.4063  0.2396
16914TIP3   OH272156   2.252   2.624  10.774  0.1432  0.2814  0.4849
16914TIP3    H172157   2.296   2.690  10.828 -0.7745  1.4587 -0.1574
16914TIP3    H272158   2.179   2.671  10.734  0.7855 -0.5567 -1.7823
16915TIP3   OH272159   0.137   0.170  14.270 -0.6077  0.1862  0.3744
16915TIP3    H172160   0.125   0.151  14.177  1.7328 -0.3893  0.1299
16915TIP3    H272161   0.136   0.265  14.275  0.1966  0.2557 -0.4217
16916TIP3   OH272162   0.700   1.345   5.815 -0.4837  0.2003 -0.2190
16916TIP3    H172163   0.611   1.328   5.847 -0.8313  2.4966  0.1624
16916TIP3    H272164   0.721   1.267   5.762 -1.5942 -1.6819  1.9246
16917TIP3   OH272165   5.564   3.029   2.524  0.4406  0.8762 -0.2004
16917TIP3    H172166   5.480   3.002   2.486  1.7508 -4.8625  0.0599
16917TIP3    H272167   5.618   3.051   2.448 -0.4619  2.0531 -0.5455
16918TIP3   OH272168   3.366   5.460  12.981 -0.6358  0.3495  0.7680
16918TIP3    H172169   3.325   5.483  12.898  0.8796  2.2696  0.5012
16918TIP3    H272170   3.447   5.511  12.984 -0.2189 -0.3158  3.0453
16919TIP3   OH272171   6.439   1.127   5.390 -0.1001 -0.0130 -0.1070
16919TIP3    H172172   6.516   1.149   5.444 -0.8720 -1.0271  1.5009
16919TIP3    H272173   6.373   1.100   5.454 -2.4019  2.4087 -1.2983
16920TIP3   OH272174   2.657   1.748   1.191  0.3107 -0.2613  0.3220
16920TIP3    H172175   2.680   1.714   1.105 -1.3641 -0.8580  0.0786
16920TIP3    H272176   2.651   1.671   1.247 -0.0836 -0.0236  0.6088
16921TIP3   OH272177   1.650   1.620   5.837  0.4326  1.0759  0.5746
16921TIP3    H172178   1.685   1.660   5.917  0.3783 -1.6191  2.0498
16921TIP3    H272179   1.569   1.577   5.865  0.2340  0.3479 -1.0172
16922TIP3   OH272180   2.490   5.912  16.267  0.0779  0.3365 -0.1653
16922TIP3    H172181   2.503   5.928  16.361  0.6454  1.6531 -0.4472
16922TIP3    H272182   2.527   5.825  16.253  0.7950  0.4827  0.6794
16923TIP3   OH272183   2.292   6.627  13.764  0.2793 -0.4694 -0.0252
16923TIP3    H172184   2.235   6.551  13.780 -1.0397  0.5036  0.0803
16923TIP3    H272185   2.302   6.667  13.850  0.2802 -0.0472 -0.2228
16924TIP3   OH272186   0.801   5.470   1.213 -0.1815 -0.2798 -0.3342
16924TIP3    H172187   0.776   5.556   1.179  0.8132 -0.2205 -0.9396
16924TIP3    H272188   0.795   5.412   1.137 -0.9650 -0.7852  0.0985
16925TIP3   OH272189   2.174   1.876  15.444 -0.4578  0.0303 -0.8173
16925TIP3    H172190   2.089   1.851  15.407 -1.3869 -0.1080  1.2586
16925TIP3    H272191   2.237   1.858  15.375 -1.8597 -1.9893 -1.6431
16926TIP3   OH272192   0.684   5.416   0.478  0.2593  0.6360 -0.6921
16926TIP3    H172193   0.736   5.494   0.458 -0.4012  0.9886 -1.0433
16926TIP3    H272194   0.609   5.449   0.527  0.9483 -0.0094  0.9069
16927TIP3   OH272195   6.658   1.299  11.958  0.0700  0.4524 -0.0251
16927TIP3    H172196   6.656   1.393  11.975  0.6499  0.4930 -0.1896
16927TIP3    H272197   6.648   1.291  11.863 -0.5993  0.3196  0.0504
16928TIP3   OH272198   0.970   2.433  11.020 -0.6516  0.1242  0.3120
16928TIP3    H172199   0.965   2.528  11.018 -1.7464  0.1174  1.4866
16928TIP3    H272200   0.913   2.407  11.093  0.5508 -1.3601  0.7788
16929TIP3   OH272201   2.746   2.291   4.509 -0.1127  0.2020 -0.5601
16929TIP3    H172202   2.731   2.379   4.475  0.5594 -0.0141 -1.4626
16929TIP3    H272203   2.789   2.245   4.437  1.0696 -0.3699  0.4719
16930TIP3   OH272204   5.648   5.809  11.733  0.5818  0.3099  0.0697
16930TIP3    H172205   5.604   5.885  11.696 -1.2337 -1.0581 -0.7653
16930TIP3    H272206   5.737   5.813  11.700 -0.5770 -0.1185 -3.4837
16931TIP3   OH272207   6.491   1.327   1.252  0.1873 -0.3672 -0.2343
16931TIP3    H172208   6.416   1.283   1.290 -0.7573  1.1069 -0.3059
16931TIP3    H272209   6.499   1.290   1.164 -1.9819  1.1013 -1.1245
16932TIP3   OH272210   5.952   4.015  15.125 -0.2316  0.1349 -0.1978
16932TIP3    H172211   5.857   4.024  15.120 -0.0948  1.4652 -1.0670
16932TIP3    H272212   5.967   3.921  15.133 -1.6645 -0.0034  1.6154
16933TIP3   OH272213   0.245   3.576   1.189 -0.7177  0.0501  0.7840
16933TIP3    H172214   0.253   3.521   1.111  1.4242 -0.4613  1.2939
16933TIP3    H272215   0.335   3.599   1.212 -1.2134 -0.2797  3.4457
16934TIP3   OH272216   2.774   6.044   2.060  0.4624 -0.2565  0.0344
16934TIP3    H172217   2.795   5.975   1.997 -2.0160  1.3716 -2.7797
16934TIP3    H272218   2.854   6.096   2.066  1.0004 -0.9055 -1.1756
16935TIP3   OH272219   1.366   1.678   2.309  0.3509  0.3458 -0.1626
16935TIP3    H172220   1.462   1.674   2.302  0.2769 -2.2722 -0.6901
16935TIP3    H272221   1.347   1.771   2.322  3.0509  0.7831  1.4421
16936TIP3   OH272222   1.703   3.338   1.545  0.3291  0.4211 -0.2273
16936TIP3    H172223   1.769   3.277   1.578  1.8712  0.9233 -2.2265
16936TIP3    H272224   1.738   3.424   1.567 -1.0198  0.6907  1.0641
16937TIP3   OH272225   0.974   5.374  12.148 -0.2248  0.0464  0.2065
16937TIP3    H172226   0.912   5.306  12.175 -0.9621  0.7359  0.2593
16937TIP3    H272227   1.022   5.396  12.228  0.3503 -0.7355  0.0925
16938TIP3   OH272228   1.664   1.646  16.413 -0.7106 -0.0823  0.2558
16938TIP3    H172229   1.755   1.633  16.439 -0.3931  2.0218  0.3418
16938TIP3    H272230   1.628   1.557  16.409  1.4456 -1.0141 -0.2442
16939TIP3   OH272231   4.276   5.837  15.531 -0.4538  0.0792  0.7970
16939TIP3    H172232   4.223   5.894  15.586 -0.2949  1.3708 -0.3272
16939TIP3    H272233   4.367   5.861  15.552 -0.3860  0.2404  0.3380
16940TIP3   OH272234   2.533   3.279  14.679 -0.2448 -0.5534  0.2755
16940TIP3    H172235   2.531   3.224  14.601  1.1481  0.7222 -0.7146
16940TIP3    H272236   2.583   3.228  14.743 -3.9790 -3.0050  1.5986
16941TIP3   OH272237   4.498   3.494   1.764  0.1155 -0.4736  0.2508
16941TIP3    H172238   4.428   3.555   1.786 -0.6359 -1.3659  0.3878
16941TIP3    H272239   4.536   3.469   1.848  1.4925  0.9970  0.1141
16942TIP3   OH272240   1.347   5.672  13.239  0.5579  0.0769  0.6905
16942TIP3    H172241   1.351   5.639  13.329 -0.2542 -1.0612  0.3317
16942TIP3    H272242   1.360   5.595  13.184 -0.1503  0.5432 -0.1662
16943TIP3   OH272243   1.160   5.854  12.652 -0.6229 -0.0582 -0.6124
16943TIP3    H172244   1.067   5.869  12.634 -1.0653 -1.7903  0.0251
16943TIP3    H272245   1.200   5.842  12.566 -1.5482 -2.1398 -0.7889
16944TIP3   OH272246   1.379   3.208   5.940  0.3212  0.4523  0.3026
16944TIP3    H172247   1.328   3.140   5.984  0.4677  0.5468  0.6225
16944TIP3    H272248   1.314   3.271   5.910  0.2991  0.9653  1.3921
16945TIP3   OH272249   0.085   2.508   3.969 -0.0440 -0.5007  0.5630
16945TIP3    H172250   0.002   2.474   3.937 -0.2491 -0.2250  0.7923
16945TIP3    H272251   0.105   2.582   3.912  1.7179 -2.4894 -1.6510
16946TIP3   OH272252   5.085   0.721  13.701  0.5133 -0.1237  0.4707
16946TIP3    H172253   5.026   0.679  13.764  0.1260  0.0385  0.2193
16946TIP3    H272254   5.065   0.679  13.617  0.2795  0.4110  0.2565
16947TIP3   OH272255   6.755   2.167   5.197 -0.1845 -0.1021  0.1454
16947TIP3    H172256   6.662   2.152   5.215 -0.3402  0.4241 -0.1895
16947TIP3    H272257   6.762   2.159   5.101 -0.2262  1.5681 -0.0283
16948TIP3   OH272258   6.508   1.558  14.839  0.4255 -1.1388 -0.0502
16948TIP3    H172259   6.436   1.513  14.796 -0.8314  0.7736 -0.0731
16948TIP3    H272260   6.582   1.549  14.779 -0.4465 -1.1328 -1.1441
16949TIP3   OH272261   5.695   4.604   3.315 -0.2864  0.4230  0.1196
16949TIP3    H172262   5.642   4.659   3.374 -1.8441 -0.0906 -0.7413
16949TIP3    H272263   5.635   4.535   3.287  0.4035  0.6283 -2.0459
16950TIP3   OH272264   5.719   5.449  13.496  0.5816 -0.4109 -0.5680
16950TIP3    H172265   5.624   5.442  13.499  0.4737  0.8664 -0.3459
16950TIP3    H272266   5.743   5.415  13.410 -0.3840  1.9008 -1.8523
16951TIP3   OH272267   5.525   4.672  10.439 -0.0880 -0.5399 -0.6421
16951TIP3    H172268   5.566   4.610  10.379  0.9487  1.6228 -2.3555
16951TIP3    H272269   5.599   4.712  10.485 -0.8837 -2.5390  2.6423
16952TIP3   OH272270   5.577   4.384  16.798 -0.1575 -0.4441 -0.2136
16952TIP3    H172271   5.611   4.473  16.804 -1.3504  0.2674 -2.8361
16952TIP3    H272272   5.495   4.386  16.847 -0.1434 -0.1215 -0.2004
16953TIP3   OH272273   6.120   4.685  11.982 -0.4944 -0.3202 -0.2210
16953TIP3    H172274   6.198   4.633  11.965 -0.2061  0.0485 -0.0215
16953TIP3    H272275   6.072   4.684  11.899 -0.0881 -0.2217 -0.4597
16954TIP3   OH272276   3.866   4.928   1.243 -0.4414  0.1209 -0.0907
16954TIP3    H172277   3.837   4.852   1.192  0.8995 -1.3535  1.2383
16954TIP3    H272278   3.793   4.990   1.236 -0.9058 -0.5963 -2.5437
16955TIP3   OH272279   4.056   1.195   2.124  0.2080  0.2788 -0.2930
16955TIP3    H172280   4.040   1.265   2.061  0.4261 -1.5771 -2.5378
16955TIP3    H272281   4.132   1.148   2.089 -0.5570 -1.7037  0.5493
16956TIP3   OH272282   1.372   4.154   0.923 -0.1190  0.3728  0.0156
16956TIP3    H172283   1.447   4.122   0.873 -0.8063  0.6056 -1.2024
16956TIP3    H272284   1.298   4.100   0.893 -0.3943 -0.0865  1.4401
16957TIP3   OH272285   1.620   0.255   3.713 -0.4490 -0.1720 -0.1572
16957TIP3    H172286   1.575   0.207   3.783  0.7457  1.2972  1.7493
16957TIP3    H272287   1.550   0.306   3.672 -1.6946 -3.1554 -2.0699
16958TIP3   OH272288   6.284   1.064  17.007  0.3244  0.4294  0.0477
16958TIP3    H172289   6.242   1.052  16.922  1.6035  0.0850 -0.5580
16958TIP3    H272290   6.377   1.066  16.988  0.7007 -0.6672  1.5504
16959TIP3   OH272291   6.263   5.399  13.880  0.6408  0.0887 -0.4065
16959TIP3    H172292   6.207   5.397  13.958  1.1560 -1.9054 -0.0235
16959TIP3    H272293   6.203   5.413  13.807 -0.1905 -0.5477  0.1296
16960TIP3   OH272294   3.802   2.677   3.846 -0.5121 -0.2180  0.0845
16960TIP3    H172295   3.709   2.665   3.827 -0.2873 -1.6568 -0.2287
16960TIP3    H272296   3.834   2.589   3.865  1.0272  0.0758 -0.9428
16961TIP3   OH272297   3.508   1.606  16.092 -0.4022  0.6329 -0.6895
16961TIP3    H172298   3.531   1.689  16.050  1.7371  0.7304  0.5182
16961TIP3    H272299   3.580   1.547  16.071 -0.4998 -0.0533  0.7368
16962TIP3   OH272300   2.442   5.877  16.752  0.4730 -0.2514 -0.4867
16962TIP3    H172301   2.400   5.883  16.838 -1.2719  0.4806 -1.3470
16962TIP3    H272302   2.386   5.819  16.701  0.2687  1.0166 -1.7727
16963TIP3   OH272303   3.209   0.811  13.411  0.3593  0.1926  0.2933
16963TIP3    H172304   3.216   0.724  13.373  1.2091  0.1020  0.6433
16963TIP3    H272305   3.226   0.799  13.504 -0.7462  0.5602  0.5642
16964TIP3   OH272306   0.580   0.705   1.902  0.4223  0.9498 -0.7906
16964TIP3    H172307   0.634   0.775   1.865 -1.1952  3.8230  1.8010
16964TIP3    H272308   0.630   0.673   1.977 -0.3656  1.9662  0.2031
16965TIP3   OH272309   6.656   1.726  14.197  0.4159 -0.1029 -0.1079
16965TIP3    H172310   6.624   1.766  14.278 -1.8291 -0.8758 -0.5232
16965TIP3    H272311   6.710   1.652  14.226  1.1880  0.7329  0.6467
16966TIP3   OH272312   4.893   1.268  13.517  0.2024  0.4761  0.6847
16966TIP3    H172313   4.865   1.208  13.586 -0.5137  0.9445  0.8115
16966TIP3    H272314   4.813   1.312  13.490  0.4638  0.2472 -0.5038
16967TIP3   OH272315   3.615   0.841  10.531 -0.7851 -0.0346  0.6323
16967TIP3    H172316   3.658   0.827  10.616 -1.1197  0.9153  0.9711
16967TIP3    H272317   3.672   0.902  10.485 -0.9269 -0.0586  0.4251
16968TIP3   OH272318   2.715   1.597  12.312 -0.2693  0.3363  0.0997
16968TIP3    H172319   2.698   1.683  12.351  1.5873  0.9475 -0.3262
16968TIP3    H272320   2.669   1.600  12.227  0.1290  1.0852 -0.0975
16969TIP3   OH272321   1.203   6.600   5.299 -0.1823 -0.6692 -0.4443
16969TIP3    H172322   1.230   6.508   5.298  1.4887 -0.2668  1.2799
16969TIP3    H272323   1.251   6.639   5.225 -0.1533 -1.0017 -0.6033
16970TIP3   OH272324   1.479   6.567   0.786  0.2091 -0.1810 -0.1518
16970TIP3    H172325   1.524   6.606   0.861  2.3156 -0.6671 -1.0911
16970TIP3    H272326   1.427   6.639   0.749 -1.1432 -0.0315  1.9143
16971TIP3   OH272327   4.721   4.196  15.660  0.3624 -0.6663  0.1189
16971TIP3    H172328   4.682   4.282  15.675  0.8535 -0.4403  0.1152
16971TIP3    H272329   4.706   4.148  15.742  2.2402  0.2604  1.0650
16972TIP3   OH272330   2.518   6.371   1.196  0.2474  0.5456  0.1513
16972TIP3    H172331   2.605   6.405   1.213  1.6933 -2.0867 -1.3742
16972TIP3    H272332   2.482   6.352   1.283  1.5648  0.8099  0.7820
16973TIP3   OH272333   6.307   4.108   4.549 -0.4285  0.9648 -0.4067
16973TIP3    H172334   6.390   4.100   4.596 -0.5288 -2.2886 -0.5774
16973TIP3    H272335   6.331   4.137   4.461  0.5494  0.1017 -0.4422
16974TIP3   OH272336   4.992   1.399   2.313  0.0568  0.2539 -0.0339
16974TIP3    H172337   5.052   1.325   2.308 -1.1784 -0.8751  1.0742
16974TIP3    H272338   5.048   1.475   2.332  1.0795 -0.8433  1.4970
16975TIP3   OH272339   4.910   1.444   1.644  0.5513 -0.9416  0.1428
16975TIP3    H172340   4.989   1.482   1.682  0.0650  0.6131 -0.3031
16975TIP3    H272341   4.921   1.456   1.550  0.2488 -1.6739  0.0118
16976TIP3   OH272342   1.112   5.151  14.646 -0.1864 -0.2037 -1.0230
16976TIP3    H172343   1.188   5.125  14.697  0.4604  1.8270 -0.8742
16976TIP3    H272344   1.046   5.174  14.711 -0.5975 -0.9863 -1.1503
16977TIP3   OH272345   4.273   4.501   0.218  0.0303 -0.0367  0.5571
16977TIP3    H172346   4.303   4.436   0.281  2.4959 -1.0997 -1.5461
16977TIP3    H272347   4.189   4.466   0.186  1.3243 -2.3269 -0.5670
16978TIP3   OH272348   5.677   5.839  11.444 -0.5839 -0.0415  0.4325
16978TIP3    H172349   5.597   5.789  11.430 -0.3506 -0.7737  1.5603
16978TIP3    H272350   5.704   5.868  11.357 -1.0034 -1.4723 -0.1883
16979TIP3   OH272351   3.165   3.954  15.027 -0.7141 -0.4820 -0.3583
16979TIP3    H172352   3.213   3.988  14.952  0.4761 -1.2159  0.0369
16979TIP3    H272353   3.216   3.984  15.103 -0.5926 -1.6719  0.0517
16980TIP3   OH272354   1.659   2.451   4.899  0.0056  0.4237  0.4390
16980TIP3    H172355   1.727   2.385   4.912  0.4658  0.7853 -0.0772
16980TIP3    H272356   1.637   2.446   4.806  0.2026  1.1355  0.3431
16981TIP3   OH272357   6.598   4.746  14.856 -0.1914  0.6854  0.1419
16981TIP3    H172358   6.536   4.793  14.911 -0.5952  0.2323  0.0835
16981TIP3    H272359   6.684   4.780  14.882 -0.3549  0.3246  1.2137
16982TIP3   OH272360   0.871   1.615  15.506 -0.0421  0.6394 -0.7295
16982TIP3    H172361   0.802   1.682  15.513  0.3205  1.1328 -1.7466
16982TIP3    H272362   0.929   1.647  15.438  0.0409 -0.8121 -1.3751
16983TIP3   OH272363   2.722   3.925   2.466  0.2462  0.3235 -0.1441
16983TIP3    H172364   2.667   3.941   2.389 -1.7475  0.7123  1.2712
16983TIP3    H272365   2.730   4.011   2.508 -0.8583 -0.2791  1.3964
16984TIP3   OH272366   0.189   0.182   2.955  0.1565  0.6095 -0.2310
16984TIP3    H172367   0.107   0.150   2.918  0.6964  0.3939 -1.2769
16984TIP3    H272368   0.190   0.275   2.934  0.6090  0.4250 -1.0613
16985TIP3   OH272369   1.267   6.611  17.085  0.4534  0.0495  0.1458
16985TIP3    H172370   1.220   6.608  17.169 -3.6522  2.6097 -1.7167
16985TIP3    H272371   1.331   6.681  17.096  0.7305 -0.3581  1.3845
16986TIP3   OH272372   5.881   3.759   3.513  0.0372  0.2566 -0.0162
16986TIP3    H172373   5.890   3.693   3.582 -2.2714  0.7670  0.8634
16986TIP3    H272374   5.957   3.817   3.524 -0.6998  0.8287  2.6965
16987TIP3   OH272375   0.688   2.839   3.879  0.1154  0.2574 -0.0386
16987TIP3    H172376   0.733   2.921   3.864 -0.1313  0.2524 -0.8793
16987TIP3    H272377   0.664   2.840   3.972  0.8837  0.7309  0.1578
16988TIP3   OH272378   4.322   2.618   4.698 -0.1250  0.3829 -0.4660
16988TIP3    H172379   4.366   2.569   4.768  1.3435  3.1457  0.7331
16988TIP3    H272380   4.355   2.578   4.617  0.0258 -1.3483  0.3966
16989TIP3   OH272381   5.035   0.644   1.032 -0.0489 -0.0533  1.1236
16989TIP3    H172382   5.019   0.723   0.979 -0.0915 -0.8030 -0.0291
16989TIP3    H272383   4.971   0.650   1.103 -1.8835 -0.3347 -0.4137
16990TIP3   OH272384   5.922   2.424   1.918  0.0417  0.0806  0.3717
16990TIP3    H172385   5.985   2.495   1.931 -1.2561  1.3325  0.0635
16990TIP3    H272386   5.923   2.408   1.823  1.0265 -1.0186  0.5375
16991TIP3   OH272387   0.118   2.592   0.561  0.1138  0.1983  0.1309
16991TIP3    H172388   0.197   2.603   0.508  1.1363  1.9988  1.8868
16991TIP3    H272389   0.113   2.672   0.614 -1.2919 -1.1091  2.1331
16992TIP3   OH272390   4.268   1.792   1.929 -0.2622 -0.0709  0.6523
16992TIP3    H172391   4.226   1.708   1.913 -0.6008 -0.1894  1.9881
16992TIP3    H272392   4.277   1.832   1.842 -0.5951 -1.2407  0.0630
16993TIP3   OH272393   3.354   2.956  13.253 -0.1714 -0.0317  0.1080
16993TIP3    H172394   3.415   2.941  13.325 -0.6841 -0.2830  0.4965
16993TIP3    H272395   3.327   3.047  13.264  0.1681  0.0986 -0.0997
16994TIP3   OH272396   6.031   3.731   0.586 -0.3806  0.3504 -0.0096
16994TIP3    H172397   6.029   3.824   0.565  0.9202  0.6849  1.1962
16994TIP3    H272398   6.033   3.727   0.682  2.2305 -0.7593 -0.0075
16995TIP3   OH272399   5.898   1.103  13.200 -0.4414  0.2274 -0.1304
16995TIP3    H172400   5.924   1.158  13.274 -0.9390  2.0567 -1.2757
16995TIP3    H272401   5.815   1.063  13.229 -0.7019  1.0310  0.2609
16996TIP3   OH272402   2.817   2.182  13.279  0.0962 -0.0907 -0.5371
16996TIP3    H172403   2.807   2.116  13.210  0.0922  0.3426 -0.9549
16996TIP3    H272404   2.729   2.190  13.317  0.0181 -0.0708 -0.7207
16997TIP3   OH272405   1.752   5.641   1.988 -0.1746 -0.1894  0.1568
16997TIP3    H172406   1.702   5.722   1.999 -1.5464 -0.6436 -2.0668
16997TIP3    H272407   1.742   5.595   2.071 -0.2383  1.4443  1.0855
16998TIP3   OH272408   5.519   3.278  11.092 -0.5069 -0.5468 -0.0076
16998TIP3    H172409   5.486   3.359  11.132  0.7389  0.2662 -0.5440
16998TIP3    H272410   5.455   3.256  11.025 -1.2578 -0.4369  0.6658
16999TIP3   OH272411   4.672   5.562   5.243  0.5705 -0.0736  0.8099
16999TIP3    H172412   4.735   5.625   5.210  0.1865 -1.0959 -2.2021
16999TIP3    H272413   4.717   5.477   5.236 -0.4527 -0.6027  0.3967
17000TIP3   OH272414   5.960   3.289   4.137  0.2507 -0.2577  0.3503
17000TIP3    H172415   6.049   3.280   4.102  0.2966 -0.6756  0.5650
17000TIP3    H272416   5.909   3.224   4.089  0.3919 -1.0896  1.2928
17001TIP3   OH272417   6.488   1.918  11.547  0.1059 -0.0587  0.1574
17001TIP3    H172418   6.455   1.829  11.556 -1.2246  0.5126  1.3032
17001TIP3    H272419   6.541   1.916  11.467 -0.8071 -1.5904 -0.4512
17002TIP3   OH272420   6.757   3.198  13.001 -0.7913  0.1425 -0.3145
17002TIP3    H172421   6.663   3.194  12.987 -0.9927  2.3706 -0.0436
17002TIP3    H272422   6.793   3.230  12.918 -0.3766  0.0359 -0.1779
17003TIP3   OH272423   3.181   6.148  13.176  0.6066 -0.4792  0.0834
17003TIP3    H172424   3.136   6.176  13.255 -0.0950 -1.0263 -0.1149
17003TIP3    H272425   3.141   6.200  13.106  0.5202 -0.7177 -0.0457
17004TIP3   OH272426   3.377   2.002  15.768  0.6581  0.2990 -0.3986
17004TIP3    H172427   3.326   2.040  15.696 -0.2370 -0.1611 -0.0336
17004TIP3    H272428   3.465   2.038  15.757  0.6127  0.0292 -1.8754
17005TIP3   OH272429   0.244   6.699   5.761  0.5359  0.0773 -0.2031
17005TIP3    H172430   0.170   6.677   5.818  1.2289 -1.2945  0.2225
17005TIP3    H272431   0.224   6.786   5.726  0.0041  0.8902  1.9925
17006TIP3   OH272432   2.313   1.604  16.060  0.1654 -0.2785  0.0757
17006TIP3    H172433   2.395   1.647  16.085  0.3377 -0.5655  0.0196
17006TIP3    H272434   2.330   1.570  15.972 -0.7596  1.5585 -0.8733
17007TIP3   OH272435   6.732   2.738  12.576  0.0845 -0.0582 -0.7069
17007TIP3    H172436   6.779   2.812  12.536 -1.3345  0.5527 -1.2946
17007TIP3    H272437   6.696   2.689  12.502 -0.4238 -0.3721 -0.2592
17008TIP3   OH272438   6.222   3.907   5.394 -0.0743  0.6192 -0.8054
17008TIP3    H172439   6.272   3.853   5.455 -2.3880 -0.6035  0.1478
17008TIP3    H272440   6.283   3.927   5.323  2.4606  1.3466  1.4315
17009TIP3   OH272441   5.394   2.444  15.412 -0.1298 -0.2940  0.2680
17009TIP3    H172442   5.466   2.508  15.418 -0.2242 -0.2233  0.6887
17009TIP3    H272443   5.315   2.498  15.408 -0.2094 -0.3802  0.6227
17010TIP3   OH272444   3.663   2.532  15.539  0.1774  0.2383 -0.1249
17010TIP3    H172445   3.675   2.516  15.632  0.2311  1.4079  0.0895
17010TIP3    H272446   3.631   2.622  15.534  3.1031  1.3388 -1.3831
17011TIP3   OH272447   0.175   1.669   0.240  0.7339  0.0157 -0.1335
17011TIP3    H172448   0.124   1.658   0.320  2.6897 -1.2533  1.0111
17011TIP3    H272449   0.150   1.755   0.207 -2.8499 -0.8744 -0.2433
17012TIP3   OH272450   2.388   4.851  11.058 -0.2114 -0.1674  0.1877
17012TIP3    H172451   2.302   4.867  11.096  0.6201  0.8074  1.7918
17012TIP3    H272452   2.388   4.901  10.976 -1.4397 -0.8600 -0.2602
17013TIP3   OH272453   2.134   5.377   3.026  0.5556 -0.8112 -0.0755
17013TIP3    H172454   2.155   5.297   2.978  0.1279 -0.1845 -1.3440
17013TIP3    H272455   2.134   5.446   2.960  1.3273  0.3220  1.0601
17014TIP3   OH272456   0.885   2.366   2.656 -0.3969  0.3755 -0.4758
17014TIP3    H172457   0.925   2.429   2.596 -2.4365  2.2094 -0.0219
17014TIP3    H272458   0.832   2.309   2.600 -1.6254  1.5501 -0.5510
17015TIP3   OH272459   0.613   4.076  15.052  0.5176  0.2031 -0.4397
17015TIP3    H172460   0.661   4.118  14.980 -0.7656  1.2555 -0.7232
17015TIP3    H272461   0.681   4.030  15.102  1.7785  1.4105 -0.9624
17016TIP3   OH272462   5.515   5.346   5.374 -0.1585  0.5545  0.6874
17016TIP3    H172463   5.474   5.363   5.289 -1.1456  1.6840  1.3602
17016TIP3    H272464   5.601   5.386   5.368  0.4984 -0.9310 -0.3808
17017TIP3   OH272465   6.080   0.545   1.468 -0.6050  0.3531 -0.2712
17017TIP3    H172466   6.154   0.530   1.408 -0.5331 -0.2065 -0.0473
17017TIP3    H272467   6.111   0.511   1.552 -0.2914  2.1145  0.3642
17018TIP3   OH272468   3.116   4.156   4.454  0.2513 -0.0541 -0.7124
17018TIP3    H172469   3.021   4.143   4.457  0.3055 -0.2589  0.2704
17018TIP3    H272470   3.148   4.083   4.400 -0.0142 -0.8452  0.1627
17019TIP3   OH272471   1.916   5.607   4.670  0.2702 -0.3272  0.1054
17019TIP3    H172472   1.842   5.597   4.729  0.1012  2.2581  0.4736
17019TIP3    H272473   1.992   5.619   4.728  0.4148  0.2826 -0.1944
17020TIP3   OH272474   0.674   1.875  15.145  0.2330  0.1679  0.5638
17020TIP3    H172475   0.638   1.962  15.130  0.7062 -0.0165 -2.1664
17020TIP3    H272476   0.769   1.887  15.142  0.3127 -0.3778  0.7145
17021TIP3   OH272477   1.005   4.792  12.881 -0.0902  0.1689  0.4380
17021TIP3    H172478   1.089   4.754  12.909 -0.3631  0.4350  1.6582
17021TIP3    H272479   1.022   4.886  12.875 -0.5597  0.3524  1.7233
17022TIP3   OH272480   4.897   4.559  10.690  0.2027 -0.0922 -0.9204
17022TIP3    H172481   4.982   4.528  10.658 -0.4755 -0.8830 -2.0463
17022TIP3    H272482   4.845   4.571  10.611 -0.4789  1.2053 -0.3041
17023TIP3   OH272483   4.392   4.386   5.351 -0.3385 -0.5776 -0.1513
17023TIP3    H172484   4.316   4.339   5.316  0.9431 -1.5742 -1.7513
17023TIP3    H272485   4.458   4.318   5.366 -0.0728  0.1146  2.2375
17024TIP3   OH272486   1.451   1.515  14.878  0.2191 -0.0866 -0.7486
17024TIP3    H172487   1.441   1.581  14.810  1.5470 -0.5334 -1.4266
17024TIP3    H272488   1.528   1.464  14.850 -0.7140 -1.8634 -0.2162
17025TIP3   OH272489   4.604   1.138   3.147 -0.0907 -0.1628 -0.1439
17025TIP3    H172490   4.630   1.110   3.059  0.6828 -0.3565  0.1388
17025TIP3    H272491   4.622   1.063   3.203 -0.7207 -0.0929  0.1620
17026TIP3   OH272492   5.183   2.529   4.837 -0.6938 -0.4494  0.1258
17026TIP3    H172493   5.107   2.580   4.864  0.2458  0.2372  1.5975
17026TIP3    H272494   5.168   2.442   4.876 -0.4403 -0.1300  0.9543
17027TIP3   OH272495   2.076   2.581  16.429 -0.2814 -0.0027 -0.6826
17027TIP3    H172496   2.129   2.659  16.415  0.2975 -0.2130  0.2802
17027TIP3    H272497   2.047   2.587  16.520  0.5838 -1.3756 -0.2876
17028TIP3   OH272498   3.014   4.544  15.254 -0.1949 -0.3019 -0.4784
17028TIP3    H172499   3.059   4.504  15.179 -0.7281 -0.8588 -0.5075
17028TIP3    H272500   2.958   4.474  15.288 -0.0689 -0.0052  0.3490
17029TIP3   OH272501   4.244   5.425  12.806 -0.3545 -0.4612 -0.4949
17029TIP3    H172502   4.152   5.423  12.829  0.0789 -2.3423  1.3360
17029TIP3    H272503   4.245   5.436  12.711 -2.3639  1.8498 -0.3422
17030TIP3   OH272504   4.405   5.136   3.347 -0.3768  0.1357 -0.1232
17030TIP3    H172505   4.492   5.169   3.372 -0.6775  0.0775  1.0732
17030TIP3    H272506   4.355   5.137   3.429 -1.3453 -0.3390 -0.6948
17031TIP3   OH272507   0.866   1.142  11.780  0.1102  0.2397  0.0885
17031TIP3    H172508   0.962   1.145  11.778  0.0797  1.4613 -1.0840
17031TIP3    H272509   0.841   1.207  11.845  0.0708 -1.2239  1.6007
17032TIP3   OH272510   0.483   3.656  11.342  0.0432  0.0862  0.1376
17032TIP3    H172511   0.417   3.592  11.368 -1.0743  1.1272 -0.0583
17032TIP3    H272512   0.441   3.741  11.353  0.6750  0.7090 -1.8259
17033TIP3   OH272513   4.516   1.304   5.590 -0.0047  0.1481 -0.5198
17033TIP3    H172514   4.547   1.389   5.622 -1.1796 -0.1059  1.4111
17033TIP3    H272515   4.595   1.261   5.557  0.7925  1.5328 -0.5010
17034TIP3   OH272516   5.042   4.952   2.753  0.4830 -0.2393 -0.1805
17034TIP3    H172517   5.117   4.922   2.805 -0.8594 -0.9086  1.4589
17034TIP3    H272518   4.967   4.904   2.789 -0.6799 -0.0057 -2.1281
17035TIP3   OH272519   1.979   4.866   2.995 -0.2233  0.0511  0.1011
17035TIP3    H172520   1.971   4.853   2.900  0.7113  1.3744 -0.1811
17035TIP3    H272521   2.015   4.783   3.028  1.4968  0.3094 -1.0105
17036TIP3   OH272522   2.651   5.343   3.855  0.2113  0.2002  0.0780
17036TIP3    H172523   2.599   5.405   3.906 -1.3272 -0.3094 -0.8135
17036TIP3    H272524   2.628   5.361   3.764  0.0298 -1.3961 -0.2241
17037TIP3   OH272525   5.917   5.030   1.795  0.1231 -0.5821  0.3111
17037TIP3    H172526   5.964   5.042   1.712 -2.5581 -0.4186 -1.2832
17037TIP3    H272527   5.859   5.105   1.800 -0.4725 -1.1221  1.8671
17038TIP3   OH272528   3.171   6.447  11.735  0.3887  0.0167 -0.1079
17038TIP3    H172529   3.146   6.367  11.782 -2.4291  0.5962 -0.4905
17038TIP3    H272530   3.267   6.444  11.733  0.4548 -2.0379  2.1203
17039TIP3   OH272531   2.167   1.553   3.273  0.1331 -0.1950 -0.0316
17039TIP3    H172532   2.223   1.481   3.245  1.0620  0.3827  0.2811
17039TIP3    H272533   2.223   1.631   3.269 -0.7091  0.4387  0.0830
17040TIP3   OH272534   4.033   2.471   5.802  0.5830 -0.4003 -0.8391
17040TIP3    H172535   4.001   2.494   5.890  0.2511 -0.0907 -1.0375
17040TIP3    H272536   3.986   2.530   5.743  0.8411 -0.5735 -1.2229
17041TIP3   OH272537   3.102   2.762   2.097 -0.1631 -0.0523 -0.0761
17041TIP3    H172538   3.010   2.736   2.099 -0.1085 -0.2384  0.0053
17041TIP3    H272539   3.145   2.694   2.045 -0.1611  0.3178 -0.5629
17042TIP3   OH272540   6.418   6.292   2.254  0.3308  0.4203 -0.1952
17042TIP3    H172541   6.457   6.206   2.274  0.3820  0.0756 -1.6611
17042TIP3    H272542   6.332   6.289   2.295  0.7646  0.1162  0.7357
17043TIP3   OH272543   3.222   0.962   5.311  0.9252 -0.1421  0.2588
17043TIP3    H172544   3.246   0.912   5.232  0.3070  1.7296 -1.1814
17043TIP3    H272545   3.296   1.020   5.326  0.6917  0.0679  0.5904
17044TIP3   OH272546   5.581   1.152  11.638  0.2036  0.5475 -0.3649
17044TIP3    H172547   5.608   1.212  11.568 -0.7522  0.4058 -0.8803
17044TIP3    H272548   5.497   1.188  11.668 -0.9124 -1.1031 -1.4022
17045TIP3   OH272549   0.774   0.574  12.068  0.3976  0.4365 -0.1446
17045TIP3    H172550   0.844   0.520  12.103  0.6757  1.0355  0.2454
17045TIP3    H272551   0.744   0.626  12.143 -3.3144 -2.6718  0.8709
17046TIP3   OH272552   3.414   3.122   3.996  0.7668  0.2151  0.0733
17046TIP3    H172553   3.380   3.207   4.021 -0.3482 -0.0433 -0.4903
17046TIP3    H272554   3.509   3.134   3.990  0.7166  1.1340  1.0059
17047TIP3   OH272555   4.250   3.718   1.353  0.2965 -0.3736 -0.0278
17047TIP3    H172556   4.317   3.733   1.420 -1.3484  1.1536  1.3701
17047TIP3    H272557   4.176   3.681   1.401 -1.1937  1.4220 -0.8156
17048TIP3   OH272558   1.708   3.044  16.238  0.9583 -0.4859  0.4433
17048TIP3    H172559   1.730   3.032  16.331  0.4105 -2.3875  0.3546
17048TIP3    H272560   1.792   3.035  16.193  0.9985 -1.0783  0.6346
17049TIP3   OH272561   2.448   6.353   2.137 -0.3725  0.4151 -0.7052
17049TIP3    H172562   2.474   6.261   2.146  0.1200  0.6736  0.6751
17049TIP3    H272563   2.449   6.369   2.042  1.8406 -0.3389 -0.8474
17050TIP3   OH272564   1.173   0.716   3.936 -0.3098  0.7030 -0.1126
17050TIP3    H172565   1.267   0.701   3.943 -0.4175  0.6879  1.5943
17050TIP3    H272566   1.151   0.772   4.010 -1.5116  1.4717 -0.9982
17051TIP3   OH272567   2.299   3.668  17.069  0.3071  0.4491 -0.0901
17051TIP3    H172568   2.331   3.627  17.150 -0.6317 -0.5044 -0.1787
17051TIP3    H272569   2.372   3.659  17.007  0.8345  0.7009  0.4752
17052TIP3   OH272570   2.424   0.844  13.962 -0.0428  0.0913 -0.0278
17052TIP3    H172571   2.474   0.799  14.030  0.4540  0.1780 -0.3232
17052TIP3    H272572   2.480   0.918  13.937  0.1993 -0.4447 -1.1420
17053TIP3   OH272573   2.108   1.814  16.023  0.1524  0.5296 -0.1390
17053TIP3    H172574   2.065   1.791  15.940 -3.2118 -0.7281  1.7803
17053TIP3    H272575   2.177   1.749  16.033  0.3697  0.4603 -1.7189
17054TIP3   OH272576   0.298   3.504   1.899 -0.2077  0.0551 -0.0610
17054TIP3    H172577   0.209   3.522   1.930  0.4403  0.3410  1.8116
17054TIP3    H272578   0.326   3.428   1.951  1.6044  1.6724  1.4876
17055TIP3   OH272579   5.554   1.742  11.476 -0.1077  0.4536  0.8362
17055TIP3    H172580   5.542   1.783  11.390  0.1120 -0.7657  0.1894
17055TIP3    H272581   5.628   1.788  11.515 -0.6292  1.4685  0.6684
17056TIP3   OH272582   4.693   2.088  12.973  0.1480 -0.1066  0.3112
17056TIP3    H172583   4.696   2.105  12.879  1.8539 -1.0075  0.1748
17056TIP3    H272584   4.672   1.995  12.981 -0.8995  0.1525  0.8708
17057TIP3   OH272585   4.807   1.625  14.678  0.1208 -0.3584  0.4731
17057TIP3    H172586   4.791   1.574  14.757  2.0283  0.3413  1.3619
17057TIP3    H272587   4.736   1.689  14.676 -0.6790 -1.2041  0.8843
17058TIP3   OH272588   5.866   3.856   2.413  0.1784 -0.7355  0.0160
17058TIP3    H172589   5.947   3.809   2.428 -0.5523 -2.3909 -0.9206
17058TIP3    H272590   5.888   3.922   2.347  0.9230 -0.6303  0.3600
17059TIP3   OH272591   1.092   5.448   6.127 -0.4369 -0.0263  0.0688
17059TIP3    H172592   1.182   5.481   6.127 -0.1651 -0.3630 -3.7971
17059TIP3    H272593   1.038   5.527   6.127 -0.0431  0.2493 -0.6811
17060TIP3   OH272594   1.104   5.399   1.664 -0.5393  0.1449  0.1528
17060TIP3    H172595   1.058   5.439   1.590  1.1176  0.3102 -0.8452
17060TIP3    H272596   1.036   5.357   1.715 -2.1250  2.5476  0.1626
17061TIP3   OH272597   6.178   5.163  12.722  0.2956  0.2853  0.3977
17061TIP3    H172598   6.212   5.248  12.751  0.6946 -0.2796  1.6400
17061TIP3    H272599   6.195   5.104  12.796  0.7176 -1.0545 -0.7313
17062TIP3   OH272600   2.241   1.552   2.929  0.4717 -0.3843 -0.6822
17062TIP3    H172601   2.247   1.641   2.964 -1.2430 -0.2026 -0.7604
17062TIP3    H272602   2.289   1.556   2.846 -1.3111  1.0542 -1.7025
17063TIP3   OH272603   0.793   3.526   4.689 -0.6708  0.2175 -0.3806
17063TIP3    H172604   0.766   3.504   4.600 -1.3157 -0.7009  0.0199
17063TIP3    H272605   0.773   3.619   4.698 -1.0614  0.2012 -1.0340
17064TIP3   OH272606   2.778   3.432   2.490  0.6734 -0.0574  0.4076
17064TIP3    H172607   2.811   3.521   2.504  0.6423 -0.1108  0.8359
17064TIP3    H272608   2.789   3.389   2.575 -3.1809  0.7576  1.4988
17065TIP3   OH272609   4.730   1.133  13.223 -0.7588  0.1679  0.4438
17065TIP3    H172610   4.741   1.107  13.315 -1.7485 -1.3201  0.1637
17065TIP3    H272611   4.645   1.177  13.221 -0.4569  0.7546  0.3402
17066TIP3   OH272612   4.006   2.984   5.475  0.3908  0.3925  0.2387
17066TIP3    H172613   4.037   3.028   5.397  0.8641 -0.7295 -0.2326
17066TIP3    H272614   3.911   2.981   5.465  0.3679  1.1729  0.2153
17067TIP3   OH272615   0.738   3.485   4.429  0.4652 -0.0211 -0.3965
17067TIP3    H172616   0.826   3.494   4.392  0.6059  0.8075  0.1131
17067TIP3    H272617   0.709   3.398   4.403  0.2422  0.7619 -3.1819
17068TIP3   OH272618   1.052   2.229   6.158  0.2845  0.4735 -0.0142
17068TIP3    H172619   1.026   2.196   6.244 -0.3596  3.1044  0.8781
17068TIP3    H272620   1.084   2.317   6.175  1.1150  0.6897 -2.3752
17069TIP3   OH272621   0.455   1.210  14.956 -0.7919  0.0003 -0.7823
17069TIP3    H172622   0.443   1.234  15.047 -1.6662 -0.4486 -0.7704
17069TIP3    H272623   0.544   1.175  14.952 -0.2608  1.2690 -0.3862
17070TIP3   OH272624   3.209   5.481  13.508 -0.2300  0.0520 -0.0077
17070TIP3    H172625   3.189   5.468  13.601  0.3944 -1.5521 -0.0582
17070TIP3    H272626   3.207   5.576  13.496  0.1861  0.3262  1.7602
17071TIP3   OH272627   5.554   0.053  12.826  0.4210 -0.2193  0.3213
17071TIP3    H172628   5.466   0.015  12.820  0.7610 -0.8876 -0.8238
17071TIP3    H272629   5.540   0.144  12.852 -0.5929 -0.3873  0.3965
17072TIP3   OH272630   0.601   0.387  11.816  0.8528  0.5180 -0.2040
17072TIP3    H172631   0.535   0.385  11.885 -1.0906 -2.2275 -1.9357
17072TIP3    H272632   0.680   0.354  11.857  0.2687  0.7403  1.1468
17073TIP3   OH272633   0.548   3.058   5.893 -0.1336  0.1506  0.0525
17073TIP3    H172634   0.600   3.125   5.848  0.5043 -1.3066 -1.4735
17073TIP3    H272635   0.457   3.089   5.885  0.0909  0.5467 -1.1709
17074TIP3   OH272636   6.088   0.771   2.156 -0.4910  0.7803  0.0272
17074TIP3    H172637   6.007   0.793   2.109 -0.5615  0.1463 -0.1578
17074TIP3    H272638   6.098   0.841   2.220 -1.9667  0.1079  1.0400
17075TIP3   OH272639   5.905   4.737   1.806 -0.5503  0.0111 -0.0185
17075TIP3    H172640   5.902   4.831   1.819 -0.8588 -0.1514  1.3003
17075TIP3    H272641   5.821   4.705   1.841 -0.6228 -0.7131 -0.8101
17076TIP3   OH272642   6.428   3.730  12.553  0.2907  0.2310 -0.0608
17076TIP3    H172643   6.390   3.660  12.607 -0.4070 -0.0406 -0.8738
17076TIP3    H272644   6.378   3.808  12.577  0.9009  0.4108  0.6647
17077TIP3   OH272645   2.460   0.128  12.928  0.0489  1.1236 -0.0410
17077TIP3    H172646   2.501   0.162  12.848  2.9194  1.2514  1.3417
17077TIP3    H272647   2.486   0.036  12.931  2.2550  1.7204  1.9403
17078TIP3   OH272648   6.312   2.398   5.165  0.2944  0.2671 -0.7137
17078TIP3    H172649   6.312   2.490   5.138  1.3308  1.7160  3.4168
17078TIP3    H272650   6.237   2.391   5.224  0.7611 -1.2957 -0.2590
17079TIP3   OH272651   4.944   2.612   6.060  0.1233 -0.1861 -0.7510
17079TIP3    H172652   4.908   2.563   6.134  0.0650 -1.3233 -1.5055
17079TIP3    H272653   4.950   2.702   6.091  0.5641 -0.7291  0.8021
17080TIP3   OH272654   0.272   3.632  12.386  0.1583 -0.0339  0.2172
17080TIP3    H172655   0.256   3.583  12.305  1.0057  1.6164 -1.0059
17080TIP3    H272656   0.184   3.656  12.416 -0.1488  0.5116 -1.0137
17081TIP3   OH272657   4.568   3.574   5.389  0.7265 -0.5797  0.1241
17081TIP3    H172658   4.513   3.582   5.311  0.5269 -1.9264  0.1050
17081TIP3    H272659   4.558   3.483   5.417  1.2275 -0.2738  1.4079
17082TIP3   OH272660   3.758   1.613   0.262  0.4213 -0.5156 -0.4696
17082TIP3    H172661   3.682   1.662   0.291  1.4941  1.0717 -0.2393
17082TIP3    H272662   3.828   1.638   0.322  1.6245 -0.3893 -1.8497
17083TIP3   OH272663   5.569   0.189  15.081  1.0244  0.4391  0.1972
17083TIP3    H172664   5.526   0.246  15.145  2.5962  0.4658  1.3084
17083TIP3    H272665   5.650   0.161  15.125  1.8968  0.0045 -1.5842
17084TIP3   OH272666   0.361   2.556  10.325 -0.3435  0.5965  0.5630
17084TIP3    H172667   0.394   2.466  10.325 -0.2419  0.6332  0.3807
17084TIP3    H272668   0.429   2.606  10.370  0.9474  1.0637 -1.7568
17085TIP3   OH272669   3.416   0.268  14.793 -0.6864 -0.3479  0.4149
17085TIP3    H172670   3.489   0.252  14.852  0.2362  0.2832 -0.5084
17085TIP3    H272671   3.338   0.240  14.841 -0.0082  0.4867  2.0525
17086TIP3   OH272672   1.119   0.821   1.082 -0.0278  0.0460  0.5264
17086TIP3    H172673   1.182   0.784   1.143 -0.8237 -0.1083  1.2806
17086TIP3    H272674   1.090   0.746   1.030  0.6295  0.1723 -0.0309
17087TIP3   OH272675   6.750   5.146   2.887 -0.3489 -0.4544  0.3711
17087TIP3    H172676   6.759   5.095   2.968 -0.7708 -0.6030  0.3262
17087TIP3    H272677   6.746   5.237   2.916 -1.4098 -0.5628  0.5884
17088TIP3   OH272678   1.912   3.465   4.115  0.2899 -0.0119  0.1681
17088TIP3    H172679   1.983   3.515   4.076  1.8874 -1.9094  0.5280
17088TIP3    H272680   1.910   3.383   4.067 -1.3121 -0.2384  0.5478
17089TIP3   OH272681   0.365   3.505   2.414 -0.5186 -0.5625  0.7740
17089TIP3    H172682   0.323   3.476   2.334 -0.6205 -0.1180  0.6649
17089TIP3    H272683   0.295   3.547   2.465  0.0761  1.6716 -0.1230
17090TIP3   OH272684   6.007   1.548   2.638  0.2374  0.4302  0.2880
17090TIP3    H172685   5.920   1.579   2.613 -0.2328 -0.4889  0.7331
17090TIP3    H272686   6.014   1.462   2.596 -1.4324 -2.2060  4.7197
17091TIP3   OH272687   3.479   3.273  12.173  0.0150  0.1669  0.4065
17091TIP3    H172688   3.472   3.368  12.179 -0.6952  0.1627 -0.1852
17091TIP3    H272689   3.402   3.247  12.123  1.4320 -0.4734 -1.5658
17092TIP3   OH272690   0.984   3.160   1.061  0.2674  0.7584 -0.1440
17092TIP3    H172691   0.938   3.079   1.038 -0.4675  0.0749  3.2036
17092TIP3    H272692   1.072   3.148   1.025 -0.2656 -0.8285 -1.0492
17093TIP3   OH272693   5.677   0.104  12.584 -0.1669 -0.4658 -0.1944
17093TIP3    H172694   5.675   0.198  12.600 -0.7831 -0.4204 -0.5022
17093TIP3    H272695   5.619   0.067  12.650 -1.5518 -0.4185 -1.3378
17094TIP3   OH272696   6.537   1.475   1.604  0.3098 -0.2519  0.3494
17094TIP3    H172697   6.571   1.531   1.534 -0.9110  0.6990  0.4961
17094TIP3    H272698   6.572   1.388   1.583  2.7749  0.6327  0.4689
17095TIP3   OH272699   6.694   4.333   3.260 -0.1965  0.1318 -0.2697
17095TIP3    H172700   6.702   4.425   3.287  1.2957  0.3023 -1.1746
17095TIP3    H272701   6.784   4.307   3.237 -0.7330 -1.2935 -0.8759
17096TIP3   OH272702   2.073   6.620   0.800 -0.1805  0.1784 -0.2376
17096TIP3    H172703   1.989   6.633   0.845 -0.2420 -0.7047 -0.0731
17096TIP3    H272704   2.048   6.597   0.710 -0.1351 -0.5085 -0.0793
17097TIP3   OH272705   5.738   2.720   0.402 -0.0583 -0.5166 -0.0545
17097TIP3    H172706   5.650   2.708   0.367  0.0460  0.8775 -0.8689
17097TIP3    H272707   5.740   2.665   0.480 -1.7278 -0.4230  0.1019
17098TIP3   OH272708   0.308   2.770  16.377 -0.0929 -0.3031 -0.5251
17098TIP3    H172709   0.301   2.725  16.461  0.9502  0.4136 -0.0315
17098TIP3    H272710   0.400   2.798  16.372 -0.0899 -0.4806 -1.9860
17099TIP3   OH272711   5.813   5.989  10.940  0.1441  0.3786  0.1783
17099TIP3    H172712   5.856   5.904  10.934 -1.1246 -0.2052 -1.4146
17099TIP3    H272713   5.870   6.049  10.894 -0.4494 -0.2925 -1.5071
17100TIP3   OH272714   4.792   0.102  13.281  0.2889  0.0134 -0.4591
17100TIP3    H172715   4.739   0.119  13.204 -1.8361  1.0766  1.1448
17100TIP3    H272716   4.871   0.059  13.247 -0.0563  1.4213 -3.2960
17101TIP3   OH272717   1.794   2.218   6.854  0.0226 -0.1552  0.2045
17101TIP3    H172718   1.864   2.158   6.828 -0.8420 -0.7891 -0.7507
17101TIP3    H272719   1.825   2.304   6.825  0.5580 -0.3743  0.1095
17102TIP3   OH272720   5.271   2.985  12.377 -0.1179 -0.2889 -0.1706
17102TIP3    H172721   5.230   2.901  12.397 -1.2481  0.4431  0.6824
17102TIP3    H272722   5.279   3.030  12.461  0.4181  0.4987 -0.6183
17103TIP3   OH272723   3.390   6.519  10.923 -0.2238 -0.5160 -0.1082
17103TIP3    H172724   3.440   6.579  10.869 -0.6181  0.2491  0.3612
17103TIP3    H272725   3.412   6.432  10.889  1.5213 -0.2243  0.1756
17104TIP3   OH272726   0.482   4.331   1.334  0.1813  0.3689  0.5858
17104TIP3    H172727   0.547   4.398   1.353  0.0233  0.5742  0.4056
17104TIP3    H272728   0.497   4.263   1.400 -0.3238  1.0469  1.4168
17105TIP3   OH272729   2.513   4.565  16.683 -0.5185  0.0270  0.3225
17105TIP3    H172730   2.428   4.609  16.674  0.3951  1.6629 -0.9083
17105TIP3    H272731   2.526   4.520  16.600  0.3612  0.8256  0.0175
17106TIP3   OH272732   1.471   3.843  12.494  0.2566 -1.0450 -0.0780
17106TIP3    H172733   1.468   3.937  12.476  1.5283 -0.8848  0.4886
17106TIP3    H272734   1.390   3.826  12.544  1.6757  0.4867  3.0297
17107TIP3   OH272735   0.600   2.833  14.678  0.7365  0.3248 -0.4349
17107TIP3    H172736   0.679   2.779  14.682 -0.9240 -2.2493  3.0175
17107TIP3    H272737   0.540   2.784  14.621  1.0119  1.4875 -1.7907
17108TIP3   OH272738   2.516   3.874   2.964 -0.0463  0.2014 -0.2384
17108TIP3    H172739   2.583   3.808   2.983 -1.4634 -2.2692 -3.0006
17108TIP3    H272740   2.524   3.890   2.870 -1.9597  1.4230 -0.2452
17109TIP3   OH272741   1.931   1.321  12.010  0.6513 -0.3427 -0.5344
17109TIP3    H172742   1.865   1.285  11.950  1.0359 -1.7004 -0.1800
17109TIP3    H272743   1.891   1.314  12.096  0.0533  1.7179 -0.6002
17110TIP3   OH272744   1.396   3.862   5.109  0.4897 -0.7969  0.3344
17110TIP3    H172745   1.395   3.935   5.171  0.8631 -0.5590  0.0709
17110TIP3    H272746   1.488   3.834   5.106  0.0538 -2.5270  1.8458
17111TIP3   OH272747   0.246   5.992   0.257  0.0939 -0.3407  0.3900
17111TIP3    H172748   0.272   5.900   0.266  0.0338 -0.2575  1.5166
17111TIP3    H272749   0.318   6.041   0.296  0.2878  0.1135 -0.5311
17112TIP3   OH272750   0.011   4.414   1.401  0.5477  0.0505 -0.0491
17112TIP3    H172751  -0.047   4.410   1.477  0.4389 -0.7697 -0.1614
17112TIP3    H272752   0.007   4.505   1.371 -1.8169 -0.2770 -0.9346
17113TIP3   OH272753   5.729   5.195   2.810 -0.4732 -0.0110  0.2155
17113TIP3    H172754   5.794   5.129   2.833  0.6112  0.7885 -0.4470
17113TIP3    H272755   5.658   5.146   2.767 -0.5459 -0.9453  1.3790
17114TIP3   OH272756   0.268   3.288   3.763 -0.0338 -0.6851  0.1317
17114TIP3    H172757   0.283   3.196   3.787  0.7404 -0.7008 -0.3842
17114TIP3    H272758   0.343   3.335   3.798 -0.3884 -0.2526  0.3251
17115TIP3   OH272759   1.034   2.544  11.355  0.0121  0.1211  0.8086
17115TIP3    H172760   1.037   2.629  11.398 -0.7129  0.1109  0.8874
17115TIP3    H272761   0.953   2.504  11.386  0.2558 -0.5234  0.6285
17116TIP3   OH272762   3.211   0.647  14.329 -0.3509 -0.0078 -0.0493
17116TIP3    H172763   3.182   0.733  14.363  0.2546 -0.1502  0.8722
17116TIP3    H272764   3.182   0.585  14.396 -0.0635 -0.4290 -0.3160
17117TIP3   OH272765   5.931   3.016  10.949 -0.2388 -0.5118 -0.3034
17117TIP3    H172766   5.882   2.974  10.879 -0.1238  1.5250 -1.7132
17117TIP3    H272767   5.869   3.078  10.987  0.8091  1.2724 -1.3514
17118TIP3   OH272768   4.600   2.145   2.763 -0.0481  0.1002  0.1753
17118TIP3    H172769   4.518   2.099   2.781  0.3919 -0.1201  1.7785
17118TIP3    H272770   4.601   2.218   2.824  1.0069  0.0277  0.2738
17119TIP3   OH272771   1.028   0.532   2.599  0.2305  0.3354  0.0271
17119TIP3    H172772   1.081   0.503   2.674 -0.2933 -0.6963  0.0124
17119TIP3    H272773   0.949   0.478   2.603 -0.3869  1.1744 -0.5257
17120TIP3   OH272774   0.129   2.244  11.395  0.8032  0.1047  0.3534
17120TIP3    H172775   0.064   2.311  11.372 -0.1592 -0.3251  1.6678
17120TIP3    H272776   0.123   2.180  11.325 -1.8073 -1.0208  1.4622
17121TIP3   OH272777   5.071   1.409  12.816  0.0198  0.1506 -0.3721
17121TIP3    H172778   5.142   1.471  12.832 -0.0009  0.2680 -0.7334
17121TIP3    H272779   5.023   1.445  12.742 -1.0679  0.6210  0.5480
17122TIP3   OH272780   5.099   2.984  13.617  0.8599 -0.2680  0.3054
17122TIP3    H172781   5.175   3.041  13.613  0.1180  0.8281  1.1554
17122TIP3    H272782   5.098   2.951  13.707  0.7558 -0.8946  0.0832
17123TIP3   OH272783   1.950   3.619   2.844  0.1144 -0.0972 -0.0214
17123TIP3    H172784   1.928   3.599   2.935  0.6128  1.1696  0.3972
17123TIP3    H272785   1.980   3.709   2.846  1.6452 -0.5365 -1.1888
17124TIP3   OH272786   3.082   2.332   3.671 -0.6908 -0.5962  0.1399
17124TIP3    H172787   3.103   2.254   3.723 -0.5643 -2.1074 -2.0071
17124TIP3    H272788   3.141   2.400   3.703 -0.3665 -1.5471  1.6606
17125TIP3   OH272789   1.160   5.005   1.192 -0.4744 -0.5192  0.2324
17125TIP3    H172790   1.252   5.005   1.167 -0.9322  0.5620 -1.6806
17125TIP3    H272791   1.134   4.913   1.188  0.4680 -0.8099  0.5744
17126TIP3   OH272792   5.056   4.521  13.922 -0.2148  0.2664 -0.1907
17126TIP3    H172793   5.134   4.571  13.900  0.1956 -0.2149  0.1656
17126TIP3    H272794   5.082   4.430  13.911 -0.7303  0.1036 -0.0850
17127TIP3   OH272795   2.876   4.893  15.935  0.2569  0.2780  0.2615
17127TIP3    H172796   2.826   4.927  16.009  1.0763  1.6684  0.2215
17127TIP3    H272797   2.918   4.814  15.968 -0.7330 -0.0687  0.7417
17128TIP3   OH272798   2.939   0.529  13.695 -0.5569 -0.1143 -0.0162
17128TIP3    H172799   2.969   0.619  13.711  1.4967 -0.9513  1.1833
17128TIP3    H272800   2.921   0.494  13.782 -3.8471 -0.1742 -0.5658
17129TIP3   OH272801   2.066   2.220   6.426 -0.2606 -0.1002 -0.6357
17129TIP3    H172802   2.046   2.299   6.376  0.3329  0.0656 -0.6190
17129TIP3    H272803   2.155   2.233   6.457 -0.6894 -0.0922  0.6688
17130TIP3   OH272804   4.927   6.250  14.474  0.4849 -0.0894 -0.2868
17130TIP3    H172805   4.981   6.170  14.468  0.8009  0.1247 -0.3558
17130TIP3    H272806   4.990   6.319  14.494  0.2009  0.1318 -0.1581
17131TIP3   OH272807   6.537   3.707   1.838  0.2061 -0.4655  0.3328
17131TIP3    H172808   6.484   3.628   1.829 -2.9287  1.5251  0.0517
17131TIP3    H272809   6.483   3.768   1.887  1.7588  2.1480 -0.9550
17132TIP3   OH272810   1.445   6.541  16.661  0.0319 -0.3311 -0.0858
17132TIP3    H172811   1.519   6.540  16.600 -1.0713 -2.8240 -1.5570
17132TIP3    H272812   1.457   6.464  16.716 -1.9571 -1.4757 -1.1134
17133TIP3   OH272813   5.559   4.544   5.179 -0.0852  0.2028 -0.1414
17133TIP3    H172814   5.540   4.541   5.273 -0.0258  1.6075 -0.0686
17133TIP3    H272815   5.517   4.624   5.149  1.8027  0.9752 -0.8635
17134TIP3   OH272816   2.260   2.099   4.154  0.0323  0.2387 -0.4624
17134TIP3    H172817   2.297   2.110   4.242  2.0869 -0.4568 -1.1803
17134TIP3    H272818   2.336   2.094   4.096 -1.2843  1.6460 -2.4357
17135TIP3   OH272819   6.521   2.899   4.632 -1.1777  0.4243  0.0722
17135TIP3    H172820   6.457   2.924   4.699 -0.5860  0.3071  0.6929
17135TIP3    H272821   6.595   2.864   4.682  0.4743  2.9054 -0.4310
17136TIP3   OH272822   4.892   1.675   5.725  1.0262  0.1003 -0.0487
17136TIP3    H172823   4.969   1.648   5.774  0.4795 -0.2383  0.6574
17136TIP3    H272824   4.907   1.768   5.705  1.2805  0.2387  0.7490
17137TIP3   OH272825   0.310   0.270   5.952 -0.4314 -0.0814  0.1871
17137TIP3    H172826   0.259   0.221   5.888  0.4717  0.3081 -0.8703
17137TIP3    H272827   0.322   0.356   5.912 -1.2261  0.7388  1.6040
17138TIP3   OH272828   3.057   3.252  12.532 -0.7998  0.0608 -0.0211
17138TIP3    H172829   3.037   3.226  12.622 -1.9721 -1.2687 -0.6278
17138TIP3    H272830   3.146   3.222  12.517 -0.5218  0.4683  0.7462
17139TIP3   OH272831   2.807   3.379   1.245  0.2084 -0.7863  0.5857
17139TIP3    H172832   2.772   3.418   1.165 -1.4418 -0.2122  1.5507
17139TIP3    H272833   2.866   3.446   1.280 -0.5544 -0.2366  0.8411
17140TIP3   OH272834   0.233   4.819   5.488 -0.1865 -0.2165 -0.0810
17140TIP3    H172835   0.202   4.816   5.398 -1.0004  1.2202  0.1168
17140TIP3    H272836   0.304   4.883   5.487  0.5649 -1.0222  0.1087
17141TIP3   OH272837   5.049   2.948  16.169 -0.3187 -0.3384  0.2952
17141TIP3    H172838   5.044   3.014  16.238 -1.5542  0.7023 -0.7304
17141TIP3    H272839   4.994   2.983  16.098  1.4985 -0.9978 -1.5291
17142TIP3   OH272840   0.458   5.124  12.704  0.8405 -0.4929 -0.6255
17142TIP3    H172841   0.449   5.064  12.629  1.0652  0.3801 -1.3737
17142TIP3    H272842   0.371   5.164  12.712  0.6548 -1.0040 -0.0468
17143TIP3   OH272843   4.577   4.657  12.829 -0.3206 -0.2356 -0.1093
17143TIP3    H172844   4.497   4.675  12.779  0.6112  0.4992 -1.4063
17143TIP3    H272845   4.576   4.562  12.842 -1.4870 -0.2148  0.0468
17144TIP3   OH272846   3.533   4.859  15.517  0.2602 -0.2621  0.0878
17144TIP3    H172847   3.461   4.920  15.531 -0.1353 -0.5111 -0.8386
17144TIP3    H272848   3.605   4.914  15.487 -0.1568 -0.2625 -0.9399
17145TIP3   OH272849   1.536   6.119   3.647  0.3471  0.3141  0.5296
17145TIP3    H172850   1.594   6.165   3.708 -0.0588 -0.3457  1.4532
17145TIP3    H272851   1.543   6.027   3.673  0.6289 -0.0682 -0.8415
17146TIP3   OH272852   3.918   3.270  11.884  0.4177 -0.1089 -0.8258
17146TIP3    H172853   4.001   3.243  11.924 -0.0010  1.0377  0.9128
17146TIP3    H272854   3.907   3.210  11.810  0.8283 -2.9679  1.2304
17147TIP3   OH272855   5.901   5.835  11.597  0.0979 -0.0599 -0.5611
17147TIP3    H172856   5.986   5.854  11.556  1.2720 -0.2411  1.6108
17147TIP3    H272857   5.839   5.835  11.525  1.5843  2.2217 -1.9754
17148TIP3   OH272858   4.412   1.074  16.331  0.4495  0.7931  0.1550
17148TIP3    H172859   4.318   1.055  16.335  0.4025  0.9960  0.0238
17148TIP3    H272860   4.417   1.164  16.299  0.7203  0.4200 -0.8696
17149TIP3   OH272861   0.420   2.842  15.686  0.4871  0.0698  0.4747
17149TIP3    H172862   0.398   2.809  15.598  0.5259  0.4902  0.3050
17149TIP3    H272863   0.514   2.859  15.683  1.1636 -2.8572  1.5671
17150TIP3   OH272864   5.691   6.406   2.713 -0.1819 -0.4902  0.5578
17150TIP3    H172865   5.635   6.433   2.786  0.2708  0.0180  0.7270
17150TIP3    H272866   5.673   6.470   2.644  1.7981  1.0832  1.3881
17151TIP3   OH272867   3.182   3.952   3.566  0.9035  0.0802  0.4111
17151TIP3    H172868   3.234   4.033   3.560 -0.6456  1.0783 -0.0941
17151TIP3    H272869   3.180   3.919   3.476  0.2587  0.3087  0.3427
17152TIP3   OH272870   3.160   3.933   4.278 -0.4199 -0.3641  0.0306
17152TIP3    H172871   3.200   3.886   4.205  0.4892 -0.7845  0.7769
17152TIP3    H272872   3.181   3.880   4.355 -1.1541  0.1968  0.6288
17153TIP3   OH272873   6.669   3.503  11.561 -0.0693  0.1886 -0.0958
17153TIP3    H172874   6.746   3.464  11.602  0.3858  3.3705  2.3973
17153TIP3    H272875   6.698   3.588  11.529 -2.1919  0.8768 -0.3981
17154TIP3   OH272876   4.351   0.741   0.348 -0.5913  0.3087  0.1153
17154TIP3    H172877   4.322   0.690   0.424 -2.2334 -1.2038 -1.4335
17154TIP3    H272878   4.312   0.827   0.361  0.3137  0.5234  1.6505
17155TIP3   OH272879   4.383   1.094   0.722 -0.1580 -0.3234  0.1247
17155TIP3    H172880   4.317   1.094   0.791 -1.0350  0.5780 -0.6784
17155TIP3    H272881   4.333   1.091   0.640  0.8317 -0.7503 -0.4934
17156TIP3   OH272882   6.546   4.533  16.873 -0.1022 -0.0930  0.1381
17156TIP3    H172883   6.478   4.528  16.939  0.6868  1.4623  1.1235
17156TIP3    H272884   6.534   4.618  16.832  1.5746  0.4867  0.7512
17157TIP3   OH272885   0.806   4.310   1.193  0.3652 -0.9458 -0.3389
17157TIP3    H172886   0.731   4.361   1.224 -0.2060 -1.2476 -1.1904
17157TIP3    H272887   0.882   4.349   1.236 -0.1414  0.1564 -0.4345
17158TIP3   OH272888   6.308   0.526   0.612  0.0649  0.0513 -0.0453
17158TIP3    H172889   6.257   0.586   0.557 -1.4123 -1.0284  0.0765
17158TIP3    H272890   6.358   0.473   0.550 -2.5021 -1.9814 -0.5596
17159TIP3   OH272891   1.326   0.392   1.334  0.3574  0.0649  0.2266
17159TIP3    H172892   1.246   0.377   1.284 -0.1665  2.2810  0.2803
17159TIP3    H272893   1.396   0.373   1.272 -0.2031 -1.0121 -0.1030
17160TIP3   OH272894   5.630   6.757   3.162 -0.6177 -0.1288 -0.0929
17160TIP3    H172895   5.570   6.779   3.233 -0.1985  1.5450 -0.2238
17160TIP3    H272896   5.583   6.781   3.082 -1.0549 -1.9230 -0.4398
17161TIP3   OH272897   3.099   6.152   3.819 -0.0888 -0.2715 -0.0329
17161TIP3    H172898   3.137   6.228   3.863  1.1049 -0.7106 -0.2915
17161TIP3    H272899   3.087   6.088   3.889 -0.4818 -0.0952  0.0672
17162TIP3   OH272900   4.189   6.412  10.513  0.1750 -0.1729  0.4280
17162TIP3    H172901   4.179   6.500  10.475 -1.4299  0.7454  2.7459
17162TIP3    H272902   4.122   6.360  10.470  0.4139  0.0204 -0.1860
17163TIP3   OH272903   0.450   3.257   1.893 -0.2300  0.4510 -0.1879
17163TIP3    H172904   0.509   3.185   1.872 -0.0439  0.9405 -1.4197
17163TIP3    H272905   0.492   3.302   1.967 -0.5944 -0.9598  0.9169
17164TIP3   OH272906   5.063   4.850  13.790  0.4938  0.0789  0.0281
17164TIP3    H172907   5.015   4.858  13.708  0.8048 -0.8171 -0.2538
17164TIP3    H272908   5.155   4.863  13.766  0.4744  1.1814  0.4684
17165TIP3   OH272909   2.402   6.768   1.969 -0.3514  0.0689  0.5357
17165TIP3    H172910   2.442   6.832   1.911  0.4995 -2.8949 -2.4715
17165TIP3    H272911   2.313   6.757   1.934 -0.2364 -0.8810  0.5117
17166TIP3   OH272912   3.555   6.283   5.413 -0.2014 -0.4577 -0.1753
17166TIP3    H172913   3.624   6.254   5.472 -0.9171 -1.1024  0.3603
17166TIP3    H272914   3.588   6.263   5.325  0.5028 -0.2744  0.0419
17167TIP3   OH272915   5.881   5.843  16.582  0.0037 -0.6842  0.4340
17167TIP3    H172916   5.905   5.831  16.490  0.6736 -1.0490  0.6483
17167TIP3    H272917   5.825   5.921  16.582  0.5920 -0.2451 -0.1924
17168TIP3   OH272918   5.316   2.107  17.020  0.0466 -0.5100  0.3479
17168TIP3    H172919   5.238   2.058  17.047 -0.0042  0.2224  1.6381
17168TIP3    H272920   5.292   2.145  16.936 -0.9137 -0.4943  0.6170
17169TIP3   OH272921   3.151   6.693  13.438  0.2309 -0.3713 -0.5489
17169TIP3    H172922   3.060   6.708  13.414 -0.7242 -2.3724  1.4613
17169TIP3    H272923   3.180   6.624  13.379  0.2105 -0.2446 -0.7076
17170TIP3   OH272924   6.236   2.502  17.220 -0.2033  0.3865 -0.4777
17170TIP3    H172925   6.174   2.558  17.267 -0.0747 -0.5524  0.8863
17170TIP3    H272926   6.298   2.562  17.180 -0.9123  1.2672 -0.2856
17171TIP3   OH272927   6.357   6.383   1.865  0.5170  0.2097  0.0205
17171TIP3    H172928   6.294   6.313   1.850  0.1323  0.6847 -0.6059
17171TIP3    H272929   6.343   6.444   1.793  0.2664  1.3506  0.9991
17172TIP3   OH272930   4.937   4.324  16.033  0.6640  0.4069 -0.8806
17172TIP3    H172931   4.914   4.416  16.022  1.1628  0.8306  1.2176
17172TIP3    H272932   5.006   4.308  15.968 -1.2227  0.7122 -3.1314
17173TIP3   OH272933   0.653   2.187   3.992  0.0077  0.6646  0.5598
17173TIP3    H172934   0.745   2.184   4.021  0.6775  0.6056 -1.4039
17173TIP3    H272935   0.646   2.269   3.943 -0.8711  0.4535  0.3214
17174TIP3   OH272936   2.619   4.994  11.685 -0.0532 -0.0056  0.1403
17174TIP3    H172937   2.583   5.049  11.615 -0.3296 -0.3578  0.0032
17174TIP3    H272938   2.669   4.927  11.639  0.4664  0.2542  0.3160
17175TIP3   OH272939   3.317   3.562  12.099 -0.6773  0.9684 -0.1845
17175TIP3    H172940   3.342   3.531  12.012 -0.1093 -0.3718  0.4227
17175TIP3    H272941   3.256   3.497  12.132 -0.6468  1.2917  0.5450
17176TIP3   OH272942   3.423   5.317  11.789 -0.0505 -0.4598  0.3311
17176TIP3    H172943   3.492   5.363  11.836 -0.5634  0.1645  0.4866
17176TIP3    H272944   3.400   5.243  11.846 -1.1473  0.6749  1.4349
17177TIP3   OH272945   1.659   0.841  15.194 -0.0470 -0.6509  0.0624
17177TIP3    H172946   1.677   0.935  15.190 -0.2544 -0.5845  0.5505
17177TIP3    H272947   1.723   0.807  15.256  1.0151 -1.0971 -1.2249
17178TIP3   OH272948   1.291   5.508  13.021  0.1433  0.3888  0.4516
17178TIP3    H172949   1.361   5.502  12.955  0.8564  2.3687  0.9737
17178TIP3    H272950   1.213   5.532  12.971 -0.4051 -2.4825 -0.2310
17179TIP3   OH272951   1.542   0.999  11.974 -0.3111  0.5935  0.1154
17179TIP3    H172952   1.629   1.013  11.936 -0.7135  0.5969 -0.8500
17179TIP3    H272953   1.485   1.057  11.923 -1.1267 -0.5333 -0.2973
17180TIP3   OH272954   2.614   0.125  13.331  0.4274  0.1060 -0.6512
17180TIP3    H172955   2.614   0.207  13.282  0.7262  0.1729 -0.5369
17180TIP3    H272956   2.656   0.062  13.273 -0.1456 -0.0589 -0.8937
17181TIP3   OH272957   6.679   6.679  16.080 -0.0505 -0.1710 -0.5509
17181TIP3    H172958   6.622   6.705  16.007 -1.5748 -2.5878 -0.3323
17181TIP3    H272959   6.759   6.648  16.037 -0.8095 -1.2716 -1.2359
17182TIP3   OH272960   5.782   3.155   0.248  0.5716 -0.2058 -0.2403
17182TIP3    H172961   5.816   3.081   0.298 -0.9933 -0.7422  0.1118
17182TIP3    H272962   5.851   3.176   0.186  2.0418 -0.3794  1.2614
17183TIP3   OH272963   5.419   2.972   1.706 -0.1813  0.0082  0.0561
17183TIP3    H172964   5.338   2.981   1.757 -0.8495 -2.8300 -0.3253
17183TIP3    H272965   5.480   2.928   1.764  1.2328  2.1773  0.3577
17184TIP3   OH272966   0.645   4.733   2.293  0.3263  0.2475 -0.0024
17184TIP3    H172967   0.616   4.824   2.302 -1.2491 -0.2141 -0.1302
17184TIP3    H272968   0.629   4.711   2.202 -0.2070 -0.4515  0.2543
17185TIP3   OH272969   3.549   4.520  11.569 -0.2960  0.1871 -0.2298
17185TIP3    H172970   3.551   4.543  11.662 -1.1800 -2.1445  0.4272
17185TIP3    H272971   3.639   4.532  11.539  0.4241 -0.7652  1.4167
17186TIP3   OH272972   6.615   5.091  14.212 -0.2658  0.4490  0.5579
17186TIP3    H172973   6.606   5.023  14.145 -1.6450 -0.7324  1.8545
17186TIP3    H272974   6.703   5.079  14.247 -1.1046 -2.1298  2.1244
17187TIP3   OH272975   0.921   2.811   4.821  0.8578 -0.1880 -0.0299
17187TIP3    H172976   0.867   2.889   4.830  0.4835 -0.4413 -0.0671
17187TIP3    H272977   1.006   2.836   4.857  0.5493  0.0369  0.5465
17188TIP3   OH272978   3.946   3.204   0.014 -0.0512  0.1044  0.8836
17188TIP3    H172979   3.944   3.214   0.109  2.2350 -0.2527  1.0190
17188TIP3    H272980   4.031   3.238  -0.012 -0.3185 -0.5270 -0.9534
17189TIP3   OH272981   0.318   4.666  14.808  0.1911 -0.1580  0.1550
17189TIP3    H172982   0.311   4.582  14.853  1.0976 -0.7326 -0.7122
17189TIP3    H272983   0.231   4.682  14.772  0.1460 -1.0215 -0.1454
17190TIP3   OH272984   4.122   3.026  15.749  0.2457  0.0133  0.0609
17190TIP3    H172985   4.049   3.085  15.770  0.6748  0.4121  0.4486
17190TIP3    H272986   4.161   3.004  15.834  1.0163  0.3745 -0.1909
17191TIP3   OH272987   6.416   5.018   4.286  0.4424 -0.3622 -0.2882
17191TIP3    H172988   6.410   5.113   4.291 -0.6273 -0.4761  0.8777
17191TIP3    H272989   6.454   5.001   4.200 -0.7926  1.0630 -1.1484
17192TIP3   OH272990   5.207   1.794   0.995 -0.9415 -0.1181  0.3905
17192TIP3    H172991   5.161   1.737   0.933 -1.0588  1.0980 -0.6908
17192TIP3    H272992   5.146   1.804   1.068 -0.6679 -1.8401  0.8784
17193TIP3   OH272993   0.705   5.004  11.015 -0.3110 -0.4086  0.3778
17193TIP3    H172994   0.791   4.974  11.045 -0.3160 -0.1126  0.6936
17193TIP3    H272995   0.724   5.052  10.934 -0.3507 -1.6150 -0.3750
17194TIP3   OH272996   1.108   0.119  15.704 -0.1662 -0.1902  0.7613
17194TIP3    H172997   1.037   0.158  15.652  0.5760  1.5420  0.9571
17194TIP3    H272998   1.143   0.193  15.754  0.5408 -1.3924  2.1135
17195TIP3   OH272999   3.384   3.338  17.004 -0.5619  0.2493  0.3791
17195TIP3    H173000   3.347   3.425  17.022 -0.1802  0.2995  0.9252
17195TIP3    H273001   3.378   3.291  17.087  0.4365  0.1989  0.4280
17196TIP3   OH273002   4.255   3.030  11.397  0.4096  0.2574  0.3730
17196TIP3    H173003   4.170   3.073  11.401 -0.0546 -0.4618 -1.0784
17196TIP3    H273004   4.236   2.938  11.417  0.2766 -0.5347 -2.8420
17197TIP3   OH273005   5.184   4.184   3.305  0.1268  0.4453 -0.1849
17197TIP3    H173006   5.162   4.194   3.398  1.5967  2.0472  0.0459
17197TIP3    H273007   5.239   4.105   3.302 -0.3687  0.0809  0.2183
17198TIP3   OH273008   0.111   0.758  11.120  0.1288  0.2413  0.1167
17198TIP3    H173009   0.122   0.663  11.118  0.8507  0.3329 -1.8849
17198TIP3    H273010   0.026   0.774  11.079 -0.2351  0.4661  0.9182
17199TIP3   OH273011   0.059   6.266  16.988 -0.3510  0.0244 -0.0327
17199TIP3    H173012   0.089   6.183  17.023  1.4646  0.4631 -0.4495
17199TIP3    H273013  -0.025   6.282  17.031 -0.9428 -2.1924 -0.2677
17200TIP3   OH273014   0.352   0.856  15.459  0.1889  0.2766  0.2290
17200TIP3    H173015   0.388   0.904  15.534 -0.8478  0.4938  0.6002
17200TIP3    H273016   0.283   0.913  15.425 -1.2319 -1.0252  0.8237
17201TIP3   OH273017   4.379   1.088  16.946 -0.1471  0.6083  0.1264
17201TIP3    H173018   4.375   1.170  16.996 -1.4021  0.5313  0.1902
17201TIP3    H273019   4.449   1.102  16.883 -0.1552  1.6349  0.3280
17202TIP3   OH273020   4.211   3.900  15.435 -0.2833 -0.3455 -0.8074
17202TIP3    H173021   4.219   3.808  15.411 -0.2585 -0.1509 -1.5597
17202TIP3    H273022   4.301   3.928  15.452  0.0105  0.1457 -2.9118
17203TIP3   OH273023   6.714   0.947  16.743  0.0297 -0.1046  0.1296
17203TIP3    H173024   6.669   0.998  16.675  0.8232  0.7387  0.1994
17203TIP3    H273025   6.807   0.967  16.729  0.2197 -0.0797  1.3363
17204TIP3   OH273026   4.800   4.797  15.567  0.2737 -0.1900  0.4493
17204TIP3    H173027   4.705   4.791  15.558  0.3173  1.6774 -2.3385
17204TIP3    H273028   4.813   4.821  15.659 -2.0878  1.1709  0.5168
17205TIP3   OH273029   2.235   5.081   4.040 -0.0981 -0.2290  0.1082
17205TIP3    H173030   2.279   5.124   3.967  1.1053 -2.0470 -0.2971
17205TIP3    H273031   2.225   4.990   4.012 -1.7954 -0.4442  1.2587
17206TIP3   OH273032   5.172   4.504  11.805 -0.4539 -0.3105  0.1461
17206TIP3    H173033   5.243   4.446  11.832  0.6644  0.2647 -1.4537
17206TIP3    H273034   5.099   4.479  11.862  0.7868 -1.4152  1.3425
17207TIP3   OH273035   2.497   6.378  14.471  0.3594  0.5618 -0.4816
17207TIP3    H173036   2.475   6.286  14.458 -0.3871  0.4362  1.3455
17207TIP3    H273037   2.473   6.420  14.388 -0.6566 -0.6619 -0.8396
17208TIP3   OH273038   0.753   4.612   5.082  0.1097  0.2039 -0.4112
17208TIP3    H173039   0.683   4.580   5.025 -0.2909  0.7516 -0.2332
17208TIP3    H273040   0.833   4.581   5.040 -0.2700 -2.5398  0.6465
17209TIP3   OH273041   0.191   6.201   4.738  0.2302 -0.0302 -0.4232
17209TIP3    H173042   0.241   6.120   4.745  2.1712  0.9762 -1.6285
17209TIP3    H273043   0.232   6.260   4.801 -2.2538 -0.4067  1.6981
17210TIP3   OH273044   2.761   5.128  14.151  0.3404  0.2988 -0.1271
17210TIP3    H173045   2.716   5.205  14.117 -0.6165  0.8676  2.2476
17210TIP3    H273046   2.741   5.127  14.245  2.3402 -1.4734  0.3739
17211TIP3   OH273047   6.690   3.292  14.209  0.3452  0.1113  0.3904
17211TIP3    H173048   6.762   3.356  14.214  1.4049 -1.1032  1.2099
17211TIP3    H273049   6.664   3.278  14.300 -0.5010  0.0566  0.1426
17212TIP3   OH273050   4.792   5.622  15.944 -1.0395 -0.0828 -0.1354
17212TIP3    H173051   4.760   5.597  16.031 -0.2706 -1.6938 -0.2777
17212TIP3    H273052   4.888   5.624  15.954 -0.9287 -0.6003 -1.0244
17213TIP3   OH273053   3.669   0.184   4.055  0.0473  0.1844  0.4116
17213TIP3    H173054   3.638   0.180   4.145 -0.7732  1.2783  0.1936
17213TIP3    H273055   3.590   0.176   4.002  0.5082 -0.2803 -0.2155
17214TIP3   OH273056   5.050   5.179  10.839  0.5147 -0.9461 -0.0087
17214TIP3    H173057   5.135   5.198  10.800 -0.1288  0.6676 -0.7376
17214TIP3    H273058   5.004   5.127  10.773 -0.4260  1.4473 -1.3994
17215TIP3   OH273059   2.503   6.306   1.672 -0.3429  0.1774  0.3562
17215TIP3    H173060   2.575   6.274   1.725 -1.0966 -0.1968  1.1695
17215TIP3    H273061   2.447   6.354   1.733 -0.8300  0.3824 -0.2401
17216TIP3   OH273062   3.663   4.961   0.143 -0.4929 -0.2616  0.2639
17216TIP3    H173063   3.727   4.895   0.116 -0.4384 -0.3083  0.5035
17216TIP3    H273064   3.645   5.011   0.064 -2.0486 -1.8167 -0.4253
17217TIP3   OH273065   6.612   1.028  15.945  0.1177 -0.1615 -0.3037
17217TIP3    H173066   6.609   1.057  15.854  1.7661  0.1622 -0.2963
17217TIP3    H273067   6.539   1.073  15.988  0.0525  0.6204 -1.2189
17218TIP3   OH273068   6.403   3.391   6.563  0.0089  0.4136  0.1619
17218TIP3    H173069   6.416   3.466   6.620 -0.4494 -0.3005  1.2300
17218TIP3    H273070   6.489   3.348   6.560  0.2984  1.0146 -0.5345
17219TIP3   OH273071   4.477   0.045  11.117  0.3297 -0.3836 -0.7891
17219TIP3    H173072   4.565   0.056  11.082  1.7776  0.7144  2.7794
17219TIP3    H273073   4.489   0.034  11.211 -3.3613 -0.0401 -0.1167
17220TIP3   OH273074   2.268   1.798  15.702 -0.6224  0.6094  0.3728
17220TIP3    H173075   2.307   1.867  15.756 -1.2795  0.0793  1.5534
17220TIP3    H273076   2.245   1.842  15.620  2.6225  0.9253 -0.5307
17221TIP3   OH273077   5.644   1.462   3.304  0.6531 -0.1938  0.3792
17221TIP3    H173078   5.695   1.521   3.359  1.7043 -0.4361 -0.3100
17221TIP3    H273079   5.620   1.514   3.228 -1.6600  0.4505  1.4455
17222TIP3   OH273080   6.269   3.069  14.086 -0.5906  0.2820  0.1130
17222TIP3    H173081   6.175   3.061  14.071 -1.0069  1.6074  1.6682
17222TIP3    H273082   6.300   2.979  14.095 -1.4625 -0.2155 -1.6547
17223TIP3   OH273083   3.474   6.598   0.220  0.3216 -0.0293 -0.6939
17223TIP3    H173084   3.418   6.600   0.297  1.3150  1.0204  0.0248
17223TIP3    H273085   3.563   6.598   0.254  0.7838  0.0108 -1.8413
17224TIP3   OH273086   3.498   1.616   1.730 -0.0928  0.1027 -0.1130
17224TIP3    H173087   3.433   1.647   1.794  0.7203  0.5580  0.5198
17224TIP3    H273088   3.461   1.640   1.645 -1.6556 -1.3682  0.1000
17225TIP3   OH273089   4.296   2.454  13.724 -0.0359  0.1932  0.3592
17225TIP3    H173090   4.375   2.399  13.726 -0.4735 -0.4493  0.3040
17225TIP3    H273091   4.232   2.402  13.674 -0.3885  0.8508  0.1097
17226TIP3   OH273092   3.325   6.213  14.242 -0.0995  0.2387  0.0008
17226TIP3    H173093   3.231   6.197  14.228 -0.1206  0.7091 -0.4210
17226TIP3    H273094   3.328   6.300  14.282  0.1643  0.2611 -0.0714
17227TIP3   OH273095   3.171   0.325  15.400  0.3910  0.6679 -0.2604
17227TIP3    H173096   3.150   0.341  15.308 -0.0501 -1.7707 -0.6568
17227TIP3    H273097   3.089   0.293  15.438  1.1572 -0.6168  0.3742
17228TIP3   OH273098   0.422   0.270   5.620  0.3950  0.4681 -0.1285
17228TIP3    H173099   0.350   0.322   5.586 -0.4837 -0.1798  0.7054
17228TIP3    H273100   0.427   0.194   5.562  0.0154  0.2216  0.1562
17229TIP3   OH273101   3.945   0.044  13.091 -0.2657  0.0032 -0.3681
17229TIP3    H173102   3.988   0.088  13.164  0.3315 -0.5697 -0.3611
17229TIP3    H273103   3.874   0.103  13.065  1.1317  1.4415 -1.0259
17230TIP3   OH273104   0.550   0.471   4.016 -0.4342 -0.7918 -0.0127
17230TIP3    H173105   0.473   0.439   3.969  0.6914 -0.2945 -2.3588
17230TIP3    H273106   0.594   0.392   4.047 -0.8957 -1.1876 -0.3563
17231TIP3   OH273107   6.036   6.439  13.331 -0.1097 -0.4787  0.4154
17231TIP3    H173108   5.940   6.443  13.334 -0.1724 -1.2072 -0.1339
17231TIP3    H273109   6.055   6.389  13.252  0.7231 -0.5119  0.6268
17232TIP3   OH273110   0.066   6.683  13.944 -0.5517 -0.4491 -0.2797
17232TIP3    H173111  -0.022   6.698  13.979 -0.4745 -0.3076 -0.1469
17232TIP3    H273112   0.053   6.618  13.875 -0.5314 -1.7375  0.8761
17233TIP3   OH273113   4.363   4.289  15.368  0.1074 -0.4956  0.2385
17233TIP3    H173114   4.446   4.328  15.340  0.3967  0.8727  2.7243
17233TIP3    H273115   4.363   4.201  15.330  1.9415  0.0401 -1.1106
17234TIP3   OH273116   2.445   2.692  16.549 -0.4786 -0.0886  0.6184
17234TIP3    H173117   2.509   2.754  16.583  0.0303 -0.4584  0.3482
17234TIP3    H273118   2.407   2.651  16.627  1.6514 -1.9218  0.8038
17235TIP3   OH273119   3.830   0.082  13.631 -0.0219  0.0263 -0.2817
17235TIP3    H173120   3.738   0.096  13.608 -0.8730 -0.5234  2.3714
17235TIP3    H273121   3.842  -0.013  13.627  0.1642  0.0257  0.1796
17236TIP3   OH273122   5.391   2.232  12.609  0.0901  0.4677  0.0572
17236TIP3    H173123   5.436   2.285  12.674  1.0350 -0.3592  0.1088
17236TIP3    H273124   5.305   2.272  12.599 -0.9464 -0.6136  3.4323
17237TIP3   OH273125   2.400   1.368   4.397 -0.0883 -0.5254  0.3719
17237TIP3    H173126   2.456   1.296   4.368 -1.0605 -1.3555  0.4995
17237TIP3    H273127   2.311   1.339   4.377 -0.4346  1.2694 -0.9415
17238TIP3   OH273128   4.617   0.005   0.908  0.0195  0.5485 -0.0765
17238TIP3    H173129   4.649   0.079   0.857  0.2607  0.4651 -0.0480
17238TIP3    H273130   4.628   0.033   0.999  1.3962 -0.0466 -0.0358
17239TIP3   OH273131   0.003   0.670  15.450  0.2886 -0.1453 -0.7965
17239TIP3    H173132   0.094   0.672  15.481  0.8713 -1.3529 -2.2657
17239TIP3    H273133  -0.049   0.695  15.526  1.7508 -0.9511  0.5322
17240TIP3   OH273134   1.572   5.091   4.743 -0.3891 -0.3372  0.6099
17240TIP3    H173135   1.550   5.036   4.818 -1.6369  1.1867  1.4275
17240TIP3    H273136   1.576   5.180   4.779 -1.7115  0.5292 -1.2148
17241TIP3   OH273137   6.313   1.758   0.638  0.3909  0.0869 -0.1001
17241TIP3    H173138   6.221   1.739   0.656  0.3020 -0.7848 -1.3156
17241TIP3    H273139   6.353   1.768   0.724 -0.2298 -2.5626  0.5999
17242TIP3   OH273140   2.313   0.987  12.945 -0.1406  0.3423 -0.4661
17242TIP3    H173141   2.335   0.926  13.014 -0.4077  1.7715  0.9469
17242TIP3    H273142   2.384   0.978  12.881 -0.3496 -1.6288 -0.4702
17243TIP3   OH273143   3.245   1.991  11.570  0.6609 -0.4222 -0.5528
17243TIP3    H173144   3.311   1.976  11.637  0.5252  0.7241 -0.1360
17243TIP3    H273145   3.294   2.022  11.494  0.6197  0.4422 -0.2390
17244TIP3   OH273146   3.827   3.412   3.463  0.0093  0.4605  0.1682
17244TIP3    H173147   3.913   3.401   3.504 -0.0102  1.4386  0.5064
17244TIP3    H273148   3.788   3.487   3.509  0.4698  2.4310 -2.4110
17245TIP3   OH273149   2.363   6.369  13.552 -0.9473 -0.7962 -0.3973
17245TIP3    H173150   2.334   6.456  13.578  0.7321 -1.0342  2.8815
17245TIP3    H273151   2.355   6.317  13.632  2.1669 -2.4758 -1.0061
17246TIP3   OH273152   5.274   1.247   4.187 -0.0721  0.3116 -0.5846
17246TIP3    H173153   5.259   1.233   4.094  0.7481 -1.2041 -0.5183
17246TIP3    H273154   5.358   1.293   4.192  0.2334 -0.2370 -0.5812
17247TIP3   OH273155   0.298   2.112   4.487 -0.4142  0.9959 -0.7050
17247TIP3    H173156   0.294   2.205   4.508 -2.2710  0.7420  0.1797
17247TIP3    H273157   0.259   2.068   4.562  0.4442 -0.5269 -1.1048
17248TIP3   OH273158   3.572   4.010  15.142  0.2559  0.2298  0.2972
17248TIP3    H173159   3.599   3.947  15.208 -0.7688 -0.6320 -0.0668
17248TIP3    H273160   3.513   4.069  15.188 -0.1511 -0.1376  0.2610
17249TIP3   OH273161   0.766   6.111  12.796 -1.0394  0.3699  0.2385
17249TIP3    H173162   0.728   6.109  12.708 -2.6231 -0.3529  0.8883
17249TIP3    H273163   0.849   6.064  12.788 -0.0284  2.3242 -1.3148
17250TIP3   OH273164   0.046   1.781  14.935 -0.1745  0.7304  0.2533
17250TIP3    H173165   0.085   1.717  14.875 -0.5706 -0.3120  1.0794
17250TIP3    H273166   0.039   1.735  15.019 -1.8996  1.3212  0.4868
17251TIP3   OH273167   2.526   5.254   4.521 -0.2134  0.3373  0.2266
17251TIP3    H173168   2.435   5.274   4.497  0.3184  1.0961 -1.3130
17251TIP3    H273169   2.543   5.308   4.597 -1.1766 -0.1517  0.8193
17252TIP3   OH273170   1.445   3.868   3.917 -0.3686  0.2976  0.3141
17252TIP3    H173171   1.518   3.826   3.872  0.2009  1.1091  0.4513
17252TIP3    H273172   1.434   3.952   3.872 -1.8746 -0.2139 -0.3447
17253TIP3   OH273173   1.060   6.341   3.089 -0.0567  0.5258  0.1776
17253TIP3    H173174   1.131   6.295   3.133  0.0344  0.1039 -0.3941
17253TIP3    H273175   0.980   6.302   3.123 -0.0054  0.8243  0.6351
17254TIP3   OH273176   1.728   6.122  11.423 -0.5473  0.1366 -0.1883
17254TIP3    H173177   1.655   6.081  11.377 -0.3703  0.8678 -1.1696
17254TIP3    H273178   1.729   6.212  11.389  2.4083 -0.5204 -2.2346
17255TIP3   OH273179   2.004   4.111   1.271  0.1528  0.0100  0.5109
17255TIP3    H173180   2.011   4.030   1.220  2.3742  0.9440 -0.7978
17255TIP3    H273181   1.997   4.082   1.362 -0.5555 -1.6473 -0.0386
17256TIP3   OH273182   0.255   5.224   3.663  0.2674  0.4760 -0.1647
17256TIP3    H173183   0.236   5.305   3.712  3.0885  0.7421  0.6451
17256TIP3    H273184   0.347   5.231   3.639 -0.2669 -1.0317 -3.0434
17257TIP3   OH273185   0.214   0.689  11.697  0.3029 -0.0914  0.6191
17257TIP3    H173186   0.190   0.777  11.724  1.2307  0.5528 -0.5379
17257TIP3    H273187   0.300   0.674  11.738 -0.0643 -0.6532  1.1975
17258TIP3   OH273188   2.052   3.613   0.543  0.3728 -0.4049 -0.1364
17258TIP3    H173189   2.137   3.586   0.578  0.8506  1.1932  0.0126
17258TIP3    H273190   2.040   3.703   0.574 -0.8017 -0.1683 -1.1740
17259TIP3   OH273191   6.343   2.170   4.247  0.2324 -0.3007  0.2951
17259TIP3    H173192   6.281   2.158   4.175 -0.1915 -1.3802  0.8184
17259TIP3    H273193   6.351   2.083   4.287  1.1195  0.0954  1.0238
17260TIP3   OH273194   2.410   2.315  12.616  0.1697 -0.4172  0.2070
17260TIP3    H173195   2.408   2.377  12.544 -0.8639  0.4621  0.9519
17260TIP3    H273196   2.427   2.368  12.694  4.3255 -1.6510  0.3940
17261TIP3   OH273197   6.422   1.952   5.080 -0.7149  0.1193 -0.0290
17261TIP3    H173198   6.372   1.977   5.002 -0.6218  0.9713  0.1724
17261TIP3    H273199   6.449   2.035   5.119 -0.1538 -0.3097  0.5246
17262TIP3   OH273200   1.908   6.479  14.773  0.3126 -0.4299 -0.4898
17262TIP3    H173201   1.961   6.530  14.834  1.8637 -1.0293 -1.2716
17262TIP3    H273202   1.940   6.505  14.686 -0.8352 -0.6574 -0.9966
17263TIP3   OH273203   1.594   3.304   4.492 -0.2824  0.3830 -0.4678
17263TIP3    H173204   1.546   3.374   4.536 -0.7452 -0.3242  0.1703
17263TIP3    H273205   1.592   3.328   4.399 -0.1637  1.3698 -0.2235
17264TIP3   OH273206   1.440   1.964   3.849  0.2078 -0.4053 -0.1261
17264TIP3    H173207   1.478   2.049   3.831  2.6661 -1.1885  0.8533
17264TIP3    H273208   1.469   1.908   3.776  0.0242 -0.7883  0.0875
17265TIP3   OH273209   5.013   4.210   5.397 -0.0509  0.4960 -0.0286
17265TIP3    H173210   5.077   4.178   5.460  0.8450  2.2475  0.0175
17265TIP3    H273211   5.039   4.171   5.314 -0.2610 -0.5347  0.3818
17266TIP3   OH273212   0.941   2.148   5.395  0.0559 -1.1463 -0.1307
17266TIP3    H173213   0.910   2.193   5.474 -1.1287 -0.0214 -1.1951
17266TIP3    H273214   0.936   2.055   5.417 -1.3062 -0.8964  0.7641
17267TIP3   OH273215   4.951   1.218   2.756  0.7409  0.1975  0.5474
17267TIP3    H173216   5.031   1.224   2.704 -0.3438 -0.6697 -1.3507
17267TIP3    H273217   4.919   1.129   2.738 -1.0306  0.7879  0.6143
17268TIP3   OH273218   0.739   2.039   3.222 -0.3147  0.1892  0.2039
17268TIP3    H173219   0.730   2.006   3.132 -0.3254  0.2959  0.1659
17268TIP3    H273220   0.751   2.134   3.212  0.2023  0.1343  0.2882
17269TIP3   OH273221   5.743   3.475  15.032  0.1337 -0.0753  0.0763
17269TIP3    H173222   5.731   3.559  14.989  1.7810 -0.6082 -1.5003
17269TIP3    H273223   5.657   3.433  15.025 -0.1359  0.6168 -1.0233
17270TIP3   OH273224   0.744   2.897   4.165 -0.0991  0.1623 -0.4333
17270TIP3    H173225   0.817   2.954   4.189 -0.0490  0.5252 -1.3898
17270TIP3    H273226   0.751   2.821   4.223  0.5136  0.6055  0.0719
17271TIP3   OH273227   1.037   6.429   2.599  0.4631  0.0708 -0.0321
17271TIP3    H173228   1.116   6.483   2.600  0.3353  0.2627  0.4767
17271TIP3    H273229   1.066   6.343   2.630  0.3607  0.3194  0.7819
17272TIP3   OH273230   1.231   5.034   4.153 -0.1505  0.0472  0.7197
17272TIP3    H173231   1.278   4.966   4.200  0.2109  1.0157  1.8119
17272TIP3    H273232   1.209   5.099   4.220  0.4674  1.5271 -0.4363
17273TIP3   OH273233   1.286   5.323  12.775  0.1458  0.1350 -0.2025
17273TIP3    H173234   1.279   5.259  12.846  0.5305 -0.7311 -0.9244
17273TIP3    H273235   1.195   5.347  12.756  0.0428  0.4404  0.6287
17274TIP3   OH273236   2.528   5.055  12.331  0.0392 -0.3708  0.3282
17274TIP3    H173237   2.580   5.131  12.304  0.5831 -0.9470 -0.2737
17274TIP3    H273238   2.441   5.091  12.348  0.0619  0.2456 -0.7892
17275TIP3   OH273239   4.560   5.981  11.310 -0.1680 -0.5386 -0.0458
17275TIP3    H173240   4.465   5.993  11.301 -0.1570 -0.0761  0.4105
17275TIP3    H273241   4.598   6.040  11.244 -0.1976 -0.7408 -0.2437
17276TIP3   OH273242   4.901   2.939  12.028 -0.1385  0.1679 -0.1082
17276TIP3    H173243   4.823   2.944  11.973  0.9635  1.7397 -1.6301
17276TIP3    H273244   4.887   3.004  12.096 -0.7904 -0.6138  0.5148
17277TIP3   OH273245   6.702   0.336  14.009 -0.1993 -0.1953  0.5125
17277TIP3    H173246   6.768   0.266  14.013 -0.2255 -0.2438  0.1415
17277TIP3    H273247   6.741   0.402  13.952 -0.1413  0.1324  0.9251
17278TIP3   OH273248   6.475   1.622   2.758 -0.3791  0.2697  0.5818
17278TIP3    H173249   6.551   1.648   2.707 -0.5973  0.5794  0.4093
17278TIP3    H273250   6.401   1.630   2.697 -0.1895 -3.2460 -0.3302
17279TIP3   OH273251   6.470   0.951   1.760 -0.4628  0.5761  0.1132
17279TIP3    H173252   6.528   0.875   1.766  0.1533  1.0507  0.3232
17279TIP3    H273253   6.401   0.934   1.824  0.0499  0.5038  0.6613
17280TIP3   OH273254   2.319   5.482  15.397  0.6005  0.5597 -0.1830
17280TIP3    H173255   2.403   5.438  15.384  1.2925  2.0009 -0.8245
17280TIP3    H273256   2.339   5.575  15.386 -1.4153  0.8287 -2.0900
17281TIP3   OH273257   1.681   3.896  12.226  0.1977 -0.2685 -0.1956
17281TIP3    H173258   1.776   3.905  12.235  0.4171 -1.7247 -0.7223
17281TIP3    H273259   1.644   3.956  12.291  1.4128  2.2091 -1.6697
17282TIP3   OH273260   6.562   2.279   0.536 -0.0682  0.0686 -0.0033
17282TIP3    H173261   6.566   2.249   0.627 -1.0793 -2.6397 -0.7679
17282TIP3    H273262   6.474   2.314   0.526  0.0332  0.3385  0.0360
17283TIP3   OH273263   1.244   6.269  11.954  0.1630 -0.4140  0.5008
17283TIP3    H173264   1.261   6.191  12.007  0.0522 -0.3761  0.5929
17283TIP3    H273265   1.255   6.240  11.863 -0.1604 -0.6075  0.5220
17284TIP3   OH273266   3.833   3.928  12.263 -0.1259 -0.2022  0.0969
17284TIP3    H173267   3.746   3.911  12.299 -1.0837 -2.8690 -3.0112
17284TIP3    H273268   3.885   3.852  12.289  1.3932  1.3395  1.8870
17285TIP3   OH273269   4.045   1.389   1.555 -0.2227 -0.2299 -0.0146
17285TIP3    H173270   3.962   1.434   1.540  0.6128  1.2670 -0.3005
17285TIP3    H273271   4.110   1.440   1.507  1.1215 -0.4744  1.4511
17286TIP3   OH273272   2.067   1.650  13.230 -0.4259 -0.8871 -0.0774
17286TIP3    H173273   2.022   1.609  13.157  1.2727  0.1567 -1.8074
17286TIP3    H273274   2.039   1.742  13.227 -1.5216 -1.1168  1.5970
17287TIP3   OH273275   0.752   1.827   2.445  0.3298 -0.5989  0.1450
17287TIP3    H173276   0.766   1.769   2.519 -0.2456  1.7185  2.2267
17287TIP3    H273277   0.781   1.913   2.476 -0.5674  0.6024 -2.0915
17288TIP3   OH273278   3.699   5.954   3.501 -0.1966  0.1816 -0.2280
17288TIP3    H173279   3.604   5.957   3.485 -0.1468 -0.4823 -0.7112
17288TIP3    H273280   3.735   6.015   3.436 -0.3088  0.6302  0.1272
17289TIP3   OH273281   2.838   1.766  13.104  0.0640 -0.3303  0.0606
17289TIP3    H173282   2.815   1.674  13.088 -0.4427 -0.0689 -0.7114
17289TIP3    H273283   2.825   1.777  13.199 -1.5676 -0.5971 -0.1051
17290TIP3   OH273284   0.050   5.417  13.128 -0.1369  0.2555 -0.0036
17290TIP3    H173285   0.069   5.492  13.184 -2.3831 -0.2523  1.5938
17290TIP3    H273286   0.072   5.341  13.181 -1.5868 -0.2202 -0.0256
17291TIP3   OH273287   3.870   0.712   6.163  0.4789  0.0866 -0.1214
17291TIP3    H173288   3.916   0.631   6.186 -0.1293  0.1412  1.4067
17291TIP3    H273289   3.821   0.734   6.242 -1.8040  0.2925 -1.5301
17292TIP3   OH273290   5.109   0.980   1.728 -0.1902  0.2075  0.1416
17292TIP3    H173291   5.097   1.062   1.681 -1.0908 -0.2550 -0.4650
17292TIP3    H273292   5.103   0.912   1.660  0.5278 -0.3679  0.6300
17293TIP3   OH273293   4.395   5.978  12.008  0.1498  0.2036  0.8653
17293TIP3    H173294   4.377   5.972  12.102  0.5640  0.0945  0.9432
17293TIP3    H273295   4.378   6.069  11.986 -1.3007 -0.0808  0.7506
17294TIP3   OH273296   5.373   2.813   0.514 -0.0973  0.1344  0.1350
17294TIP3    H173297   5.380   2.907   0.498  0.0449  0.1651  0.3705
17294TIP3    H273298   5.401   2.772   0.433 -2.4945  0.3067 -0.8829
17295TIP3   OH273299   5.454   6.325   6.204  0.2040 -0.8725  0.3868
17295TIP3    H173300   5.517   6.274   6.255  0.5689  0.8680  1.7273
17295TIP3    H273301   5.501   6.405   6.181 -0.7222 -0.6321 -0.7717
17296TIP3   OH273302   2.789   6.377  17.002  0.1785 -0.3353 -0.3382
17296TIP3    H173303   2.698   6.404  16.984 -0.1188 -1.1352 -0.0737
17296TIP3    H273304   2.784   6.282  17.012  1.0099 -0.3553 -0.0677
17297TIP3   OH273305   3.020   3.220   1.823 -0.5667  0.1396  0.7330
17297TIP3    H173306   2.988   3.218   1.733 -0.3977 -1.0475  0.6884
17297TIP3    H273307   2.993   3.306   1.856  0.3427  1.0617 -0.7918
17298TIP3   OH273308   2.739   4.976  11.335 -0.3172  0.0310  0.2984
17298TIP3    H173309   2.677   4.906  11.355 -1.1499  1.0973  1.6168
17298TIP3    H273310   2.810   4.963  11.398 -0.9428  0.9105  1.2238
17299TIP3   OH273311   5.807   6.785   2.537 -0.3672  0.3237  0.3103
17299TIP3    H173312   5.894   6.812   2.508 -1.2254  0.1927 -2.7186
17299TIP3    H273313   5.767   6.866   2.570  0.4646  0.6116  0.6611
17300TIP3   OH273314   6.453   5.168   1.265  0.0307  0.0677 -0.4155
17300TIP3    H173315   6.523   5.105   1.248 -1.1353 -2.3020  2.8262
17300TIP3    H273316   6.479   5.212   1.346 -0.7268  1.5009 -0.9162
17301TIP3   OH273317   5.385   6.094  15.713  0.2119  0.3989 -0.3772
17301TIP3    H173318   5.344   6.015  15.750  0.9584 -0.5295 -1.4957
17301TIP3    H273319   5.430   6.134  15.788 -2.0464  1.0689  0.7435
17302TIP3   OH273320   5.282   3.134  16.119 -0.0420 -0.1796 -0.2515
17302TIP3    H173321   5.338   3.059  16.099 -1.1130 -0.6789 -1.5633
17302TIP3    H273322   5.198   3.095  16.144  0.0458  0.5598  1.2625
17303TIP3   OH273323   5.290   6.217  16.717 -0.7915  0.3216  0.1568
17303TIP3    H173324   5.226   6.279  16.682  0.4130  1.3888 -0.2477
17303TIP3    H273325   5.271   6.214  16.810 -1.1287  0.9943  0.1206
17304TIP3   OH273326   6.627   1.243  15.688 -0.1445 -0.4273  0.1543
17304TIP3    H173327   6.637   1.202  15.603  1.4708  0.2890 -0.0281
17304TIP3    H273328   6.575   1.322  15.671  0.5204 -0.0734 -0.2313
17305TIP3   OH273329   5.739   4.679   1.003 -0.2361 -0.2212  0.4293
17305TIP3    H173330   5.827   4.654   1.029 -0.4369 -1.2128  0.2017
17305TIP3    H273331   5.722   4.630   0.923 -1.8488 -1.9200  1.7174
17306TIP3   OH273332   1.799   2.051   2.295 -0.0033 -0.0861 -0.2919
17306TIP3    H173333   1.814   2.141   2.266  0.5339 -0.5083 -1.3935
17306TIP3    H273334   1.735   2.017   2.233  2.0754 -1.3952 -1.8502
17307TIP3   OH273335   1.978   3.835   2.994  0.8480  0.1683  0.0015
17307TIP3    H173336   1.929   3.917   3.001  1.1052  0.5211 -1.8726
17307TIP3    H273337   2.061   3.853   3.039  0.7407  0.8093 -0.0499
17308TIP3   OH273338   2.533   2.312   2.956 -0.1185 -0.1970  0.2713
17308TIP3    H173339   2.520   2.388   2.899  0.6229 -0.1515  0.1509
17308TIP3    H273340   2.606   2.337   3.013 -0.5775 -0.4048  0.9626
17309TIP3   OH273341   5.912   0.599   3.670 -0.6129 -0.2754 -0.0248
17309TIP3    H173342   5.959   0.584   3.588 -1.9295  0.1968 -0.9027
17309TIP3    H273343   5.981   0.617   3.734  0.3828  1.5085 -1.4974
17310TIP3   OH273344   1.796   2.448   1.163 -0.3199 -0.5048 -0.1768
17310TIP3    H173345   1.817   2.486   1.248  1.1086 -2.9432  0.6397
17310TIP3    H273346   1.873   2.465   1.109  1.0359 -3.3435  0.6684
17311TIP3   OH273347   0.394   2.089  12.303  0.4986 -0.2621  0.8040
17311TIP3    H173348   0.446   2.126  12.373  0.5708  0.8751  0.1698
17311TIP3    H273349   0.435   2.121  12.222 -1.0658  0.5640  0.2829
17312TIP3   OH273350   0.300   6.245  13.676  0.1378  0.5224  0.2328
17312TIP3    H173351   0.236   6.244  13.604  1.0979 -2.6283 -0.7374
17312TIP3    H273352   0.325   6.153  13.687  2.7173  1.3475  2.1946
17313TIP3   OH273353   4.708   5.534  12.354 -0.6245  1.1636 -0.1298
17313TIP3    H173354   4.715   5.581  12.271  0.0554  2.2914  0.5484
17313TIP3    H273355   4.718   5.602  12.421 -0.5556  0.1820  0.8760
17314TIP3   OH273356   1.179   0.430  12.582  0.6250  0.1351 -0.7793
17314TIP3    H173357   1.137   0.476  12.655  1.5270 -0.1461 -0.0791
17314TIP3    H273358   1.243   0.372  12.622 -0.8560 -2.2271 -1.6008
17315TIP3   OH273359   2.208   4.293   4.017  0.6003 -0.1941  0.5751
17315TIP3    H173360   2.128   4.324   3.975  0.6934 -1.7187 -0.7992
17315TIP3    H273361   2.276   4.352   3.983  0.2237  0.5553  1.0749
17316TIP3   OH273362   3.191   5.252  12.808  0.2632  0.7375 -0.5138
17316TIP3    H173363   3.107   5.234  12.765  0.0423 -0.4560  0.3375
17316TIP3    H273364   3.220   5.335  12.771 -1.9696  1.9005  0.1356
17317TIP3   OH273365   5.989   1.926   2.695  0.3350 -0.0767 -0.5011
17317TIP3    H173366   5.923   1.879   2.646 -1.0211  1.7349 -0.5163
17317TIP3    H273367   5.949   2.011   2.714  1.9296  0.3680  1.1717
17318TIP3   OH273368   5.441   6.643  12.514 -0.3743  0.1772  0.1713
17318TIP3    H173369   5.351   6.631  12.483 -0.4943  0.4310  0.4199
17318TIP3    H273370   5.456   6.737  12.507  0.9096 -0.1409 -2.7537
17319TIP3   OH273371   6.631   1.785   2.079  0.0167 -0.3559 -0.6185
17319TIP3    H173372   6.564   1.841   2.039 -0.6837 -0.7755 -0.0420
17319TIP3    H273373   6.584   1.707   2.106  0.1779  0.4423  2.2604
17320TIP3   OH273374   5.501   2.229   0.021 -0.0500  0.6822 -0.2539
17320TIP3    H173375   5.464   2.209  -0.065 -0.2108 -0.9517  0.1560
17320TIP3    H273376   5.438   2.194   0.083  0.3994  1.2250  0.5278
17321TIP3   OH273377   5.723   4.519   1.388 -0.0548 -0.0854  0.2511
17321TIP3    H173378   5.804   4.499   1.340 -0.5356 -1.2415 -0.0993
17321TIP3    H273379   5.710   4.613   1.375 -0.2443 -0.3814 -2.0256
17322TIP3   OH273380   6.600   4.653   0.936 -0.5518 -0.0577  0.1311
17322TIP3    H173381   6.684   4.645   0.889 -0.2766  0.7751  0.4615
17322TIP3    H273382   6.539   4.600   0.884  0.5566 -2.1719  0.8567
17323TIP3   OH273383   3.295   6.498   0.859 -0.1846 -0.7660 -0.4171
17323TIP3    H173384   3.230   6.549   0.810 -0.7810 -0.9755  0.1446
17323TIP3    H273385   3.269   6.509   0.951  0.8809 -0.4265 -0.1395
17324TIP3   OH273386   0.244   2.637  16.637 -0.1341  0.1075  0.2433
17324TIP3    H173387   0.293   2.556  16.622 -0.9354  0.0327 -2.6471
17324TIP3    H273388   0.152   2.610  16.628 -0.4237  1.2322 -0.2634
17325TIP3   OH273389   4.196   3.147   4.973 -0.4195  0.6034  0.1544
17325TIP3    H173390   4.223   3.081   5.038 -0.9602  3.1890  3.2962
17325TIP3    H273391   4.276   3.166   4.924 -0.1438 -1.9353 -0.4995
17326TIP3   OH273392   0.630   5.561   1.900 -0.5286 -0.1997  0.4215
17326TIP3    H173393   0.556   5.503   1.884 -0.5302  0.2275 -1.3590
17326TIP3    H273394   0.642   5.560   1.994 -2.0199 -1.2425  0.6266
17327TIP3   OH273395   1.836   2.094   5.528  0.2437 -0.3257 -0.2006
17327TIP3    H173396   1.930   2.084   5.544  0.5513  1.3232 -0.7714
17327TIP3    H273397   1.795   2.031   5.586  1.5994  0.7997  2.1062
17328TIP3   OH273398   3.900   0.578  16.807 -0.2030  0.2370  0.3180
17328TIP3    H173399   3.858   0.534  16.882  0.7888  0.3993  0.9978
17328TIP3    H273400   3.992   0.587  16.834  0.1445  0.4226 -0.8748
17329TIP3   OH273401   4.410   4.874   2.841 -0.4907  0.2627  0.4634
17329TIP3    H173402   4.474   4.828   2.786  0.2260  1.2463  0.4570
17329TIP3    H273403   4.344   4.807   2.862 -0.6192 -0.2299 -1.3256
17330TIP3   OH273404   0.480   1.793  16.225  0.8782 -0.0363 -0.6404
17330TIP3    H173405   0.427   1.842  16.287  1.7757 -0.1621  0.2506
17330TIP3    H273406   0.538   1.858  16.186 -0.2626  0.2028 -2.0169
17331TIP3   OH273407   4.787   5.927   3.080 -0.1478  0.4213  0.0106
17331TIP3    H173408   4.802   5.949   2.988 -2.8090 -1.2556 -0.9096
17331TIP3    H273409   4.811   5.835   3.087 -2.5597 -0.2478  0.2466
17332TIP3   OH273410   0.675   5.245   0.261 -0.2268  0.0830  0.3356
17332TIP3    H173411   0.660   5.156   0.294  1.3001 -0.5864 -0.6738
17332TIP3    H273412   0.678   5.299   0.340 -0.8239 -0.7990  0.9925
17333TIP3   OH273413   1.279   3.254   1.315  0.4671  0.6446  0.6741
17333TIP3    H173414   1.332   3.189   1.269 -0.5374  0.0898  0.2687
17333TIP3    H273415   1.340   3.293   1.378  0.4038 -3.0730  3.4227
17334TIP3   OH273416   0.055   2.679  10.929 -0.4144  0.3011  0.6026
17334TIP3    H173417   0.065   2.635  10.844 -0.9468 -0.2464  0.8169
17334TIP3    H273418  -0.024   2.732  10.919  0.4063  1.4838  0.2368
17335TIP3   OH273419   5.570   6.290  10.621  0.0327 -0.2193  0.1741
17335TIP3    H173420   5.497   6.331  10.575 -0.9314 -0.8599  1.0957
17335TIP3    H273421   5.559   6.196  10.605  1.0140 -0.2900 -0.1769
17336TIP3   OH273422   1.392   1.900  11.575  0.0977  0.4276 -0.6372
17336TIP3    H173423   1.483   1.891  11.546  0.4788  1.5795  0.1334
17336TIP3    H273424   1.371   1.815  11.613  0.2653 -0.4207 -2.3542
17337TIP3   OH273425   6.368   0.813   2.997  0.1156 -0.6384  0.0146
17337TIP3    H173426   6.286   0.847   2.960  0.3934  1.1943  0.9420
17337TIP3    H273427   6.379   0.727   2.957 -1.7184 -0.4848 -0.9278
17338TIP3   OH273428   1.656   1.054  12.860 -0.3884 -0.2643  0.5206
17338TIP3    H173429   1.640   0.996  12.935 -2.3493  0.5985  0.8303
17338TIP3    H273430   1.574   1.103  12.850 -0.1703 -0.3371 -2.2059
17339TIP3   OH273431   0.665   6.070  16.410 -0.2049  0.4741 -0.3374
17339TIP3    H173432   0.663   6.056  16.315  0.1094  1.8146 -0.5547
17339TIP3    H273433   0.581   6.034  16.440 -0.2509 -0.0903 -1.0963
17340TIP3   OH273434   0.523   3.381  11.631 -0.4955 -0.0298  0.4303
17340TIP3    H173435   0.581   3.368  11.555  0.1505 -0.7724  1.0248
17340TIP3    H273436   0.512   3.293  11.667  1.0832  0.5406  2.5229
17341TIP3   OH273437   4.498   4.760  10.875 -0.5845 -0.4604  0.5580
17341TIP3    H173438   4.527   4.850  10.886 -0.5389 -0.5294  1.0612
17341TIP3    H273439   4.529   4.734  10.789  2.0876 -0.9827  1.5917
17342TIP3   OH273440   6.067   5.613   0.271 -0.1573 -0.5822 -0.6119
17342TIP3    H173441   6.070   5.638   0.178 -2.6426  0.4057 -0.5073
17342TIP3    H273442   5.981   5.644   0.301  0.4588 -1.1637  1.9552
17343TIP3   OH273443   5.589   6.453   4.127 -0.1146 -0.1976 -0.1979
17343TIP3    H173444   5.643   6.523   4.091 -1.3245  0.8017 -0.1470
17343TIP3    H273445   5.650   6.399   4.178  1.4366 -1.0474 -2.7852
17344TIP3   OH273446   3.220   1.687  12.734  0.0112  0.3684  0.0955
17344TIP3    H173447   3.160   1.630  12.781  1.5599 -0.7701  0.7991
17344TIP3    H273448   3.202   1.671  12.641 -1.7718  1.1999  0.2628
17345TIP3   OH273449   5.334   5.526   4.034 -0.0144 -0.0364 -0.2868
17345TIP3    H173450   5.422   5.536   3.996  0.2645 -1.5607 -0.0927
17345TIP3    H273451   5.275   5.541   3.960  0.3801  1.0708 -0.4071
17346TIP3   OH273452   6.089   0.200   4.627  0.1321 -0.0676  0.1957
17346TIP3    H173453   6.147   0.242   4.691  0.2489 -1.4217  1.0224
17346TIP3    H273454   6.101   0.250   4.547  1.5020  0.4526  0.6998
17347TIP3   OH273455   5.061   1.870   1.214 -0.8620 -0.3637 -0.3209
17347TIP3    H173456   5.082   1.834   1.300 -0.9317 -0.7669 -0.4706
17347TIP3    H273457   4.973   1.907   1.224 -1.2601 -1.2587 -0.4724
17348TIP3   OH273458   4.385   5.977  14.893 -0.1856 -0.4109  0.1649
17348TIP3    H173459   4.462   6.032  14.883 -0.8063  0.4983  0.2240
17348TIP3    H273460   4.415   5.902  14.943  0.7439 -0.2564 -0.1444
17349TIP3   OH273461   3.830   2.929   0.638 -0.0868 -0.0955 -0.3031
17349TIP3    H173462   3.897   2.872   0.676 -0.1910 -0.8140 -1.1648
17349TIP3    H273463   3.808   2.990   0.708  1.8203  0.4774 -0.1656
17350TIP3   OH273464   6.084   3.462  16.407 -0.2255  0.7491  0.2011
17350TIP3    H173465   6.121   3.416  16.332 -1.2898 -0.2419  0.2662
17350TIP3    H273466   6.080   3.554  16.378 -2.3728  0.1346 -1.7237
17351TIP3   OH273467   5.210   6.157  14.309  0.0991  0.3251  0.1250
17351TIP3    H173468   5.296   6.137  14.272 -0.8742 -0.0239 -2.0509
17351TIP3    H273469   5.194   6.248  14.285 -0.8648 -0.1289 -1.0310
17352TIP3   OH273470   4.075   0.356   1.122  0.1108 -0.6442 -0.4600
17352TIP3    H173471   3.981   0.339   1.114 -0.4460  2.5109 -2.4568
17352TIP3    H273472   4.117   0.277   1.088 -1.9624 -0.6836 -3.2914
17353TIP3   OH273473   5.692   6.139   2.752 -0.1435  0.1329 -0.1788
17353TIP3    H173474   5.614   6.134   2.697  0.6533 -1.6940 -1.2321
17353TIP3    H273475   5.712   6.233   2.758 -2.0903  0.5945 -0.3003
17354TIP3   OH273476   6.507   3.737  13.827  1.0816  0.1584 -0.2424
17354TIP3    H173477   6.589   3.719  13.782  0.6921 -0.3806 -0.7528
17354TIP3    H273478   6.515   3.691  13.910  0.0758 -2.6373 -1.5403
17355TIP3   OH273479   2.424   1.841  12.017  0.0322 -0.1016  0.0854
17355TIP3    H173480   2.437   1.935  12.006 -0.2756  0.1253  1.4415
17355TIP3    H273481   2.343   1.823  11.969 -1.2866  0.8281  1.8417
17356TIP3   OH273482   6.329   0.934  10.819  0.2066  0.3194 -0.1501
17356TIP3    H173483   6.371   0.964  10.900 -0.9698  2.4210 -0.2703
17356TIP3    H273484   6.399   0.936  10.754  1.2049 -1.5328  0.7882
17357TIP3   OH273485   6.124   5.213   5.519  0.4255 -0.5707 -0.1463
17357TIP3    H173486   6.190   5.151   5.550 -0.7008 -0.8653  1.8710
17357TIP3    H273487   6.047   5.195   5.574 -0.4833  1.5083 -0.6310
17358TIP3   OH273488   2.804   0.515   1.079  0.4664 -0.5645 -0.5793
17358TIP3    H173489   2.821   0.533   0.987  0.8223 -0.5275 -0.5110
17358TIP3    H273490   2.734   0.451   1.079  0.9450 -1.0983 -0.8975
17359TIP3   OH273491   2.891   6.732  13.392  0.1462  0.1875 -0.5427
17359TIP3    H173492   2.871   6.757  13.482  1.0222  0.7491 -0.4846
17359TIP3    H273493   2.845   6.649  13.378 -0.8576  0.6330  0.0648
17360TIP3   OH273494   2.939   2.795   2.562 -0.5655 -0.0667  0.2254
17360TIP3    H173495   2.958   2.888   2.574  0.5468 -0.2692  0.1184
17360TIP3    H273496   2.923   2.786   2.468  1.5475 -0.3406 -0.1538
17361TIP3   OH273497   1.006   0.447   3.953  0.0630 -0.4461  0.5424
17361TIP3    H173498   0.994   0.481   4.042  1.3326 -0.3856  0.7058
17361TIP3    H273499   0.940   0.493   3.901 -1.0029 -0.8265  1.5261
17362TIP3   OH273500   5.370   3.344  15.495  0.3022 -0.3964  0.0239
17362TIP3    H173501   5.311   3.301  15.558  0.5218  0.3678  0.7734
17362TIP3    H273502   5.457   3.309  15.517  0.2439 -0.9209 -0.5569
17363TIP3   OH273503   1.453   3.781  12.103 -0.5190 -0.9654 -0.1909
17363TIP3    H173504   1.535   3.797  12.149 -0.6858 -0.6099 -0.0073
17363TIP3    H273505   1.385   3.798  12.169 -0.7886  0.2962 -0.7461
17364TIP3   OH273506   4.351   0.013  14.725  0.1040 -0.0129 -0.5418
17364TIP3    H173507   4.272   0.052  14.687  0.7408  1.2993 -0.5841
17364TIP3    H273508   4.421   0.039  14.665  0.9772  1.2510  0.9710
17365TIP3   OH273509   2.185   4.800  11.727  0.7196 -0.0673  0.2011
17365TIP3    H173510   2.106   4.754  11.756 -0.5042  2.7519  1.8289
17365TIP3    H273511   2.257   4.742  11.750 -0.7798 -2.2138 -0.2339
17366TIP3   OH273512   0.414   0.490   2.447  0.1139  0.1219  0.4275
17366TIP3    H173513   0.412   0.578   2.486  0.3509  0.0605  0.5825
17366TIP3    H273514   0.335   0.447   2.480 -0.4073  0.5264 -0.2489
17367TIP3   OH273515   4.730   5.141   6.504 -0.1171 -0.4154  0.5248
17367TIP3    H173516   4.786   5.145   6.582 -0.1211  1.1882  0.4775
17367TIP3    H273517   4.791   5.149   6.431 -0.2966  0.3579  0.4479
17368TIP3   OH273518   1.582   5.914   5.284  0.4960  0.4159  0.6429
17368TIP3    H173519   1.547   5.997   5.317  0.0889 -0.2179  1.8717
17368TIP3    H273520   1.506   5.857   5.277  0.8678 -0.0601  0.4350
17369TIP3   OH273521   2.426   2.981  14.267  0.1390  0.1643 -0.2391
17369TIP3    H173522   2.447   2.970  14.174  0.9261  0.5478 -0.1199
17369TIP3    H273523   2.429   2.892  14.303 -1.6753 -0.1819 -0.8618
17370TIP3   OH273524   0.830   1.744  12.071  0.0758 -0.0519  0.5713
17370TIP3    H173525   0.738   1.759  12.093 -0.1159  1.2802 -0.9596
17370TIP3    H273526   0.850   1.659  12.110 -1.8712 -0.4873  0.7497
17371TIP3   OH273527   0.187   0.154  11.137  0.1139  0.8245  0.2091
17371TIP3    H173528   0.097   0.180  11.120 -0.8255  0.7834  4.1384
17371TIP3    H273529   0.229   0.233  11.171  0.6662  0.1168  1.2112
17372TIP3   OH273530   4.946   4.910   3.884  1.1247 -0.5981 -0.2327
17372TIP3    H173531   4.922   4.867   3.802 -0.1708 -0.3440 -0.0090
17372TIP3    H273532   4.876   4.887   3.945  1.1773  0.6094  0.3158
17373TIP3   OH273533   6.753   2.673  11.384  0.1057 -0.2401 -0.4108
17373TIP3    H173534   6.794   2.742  11.437 -1.9069  0.8870 -0.2316
17373TIP3    H273535   6.675   2.714  11.347 -0.7293 -2.2103 -0.9671
17374TIP3   OH273536   3.511   5.826   4.328  0.1560 -0.6986  0.1227
17374TIP3    H173537   3.545   5.904   4.373  0.7755 -0.0737 -1.3708
17374TIP3    H273538   3.545   5.752   4.379  0.6289 -0.0115  0.8190
17375TIP3   OH273539   0.683   5.606  13.615  0.3253  0.1773  0.0408
17375TIP3    H173540   0.644   5.635  13.532 -0.2443  1.7737  0.8306
17375TIP3    H273541   0.613   5.557  13.658  0.0793  0.6964  0.2479
17376TIP3   OH273542   1.822   2.502   4.272  0.3134  0.2846 -0.1641
17376TIP3    H173543   1.784   2.416   4.252  0.6564 -0.2101  1.1805
17376TIP3    H273544   1.902   2.482   4.321  0.8704  1.3684 -0.6018
17377TIP3   OH273545   5.309   0.062  15.915 -0.4763 -0.7547  0.3316
17377TIP3    H173546   5.291   0.145  15.870 -0.2871 -0.1365  1.3704
17377TIP3    H273547   5.321  -0.001  15.844  0.7491  0.3828 -0.5391
17378TIP3   OH273548   4.714   6.083  13.588  0.2232 -0.2635  0.0355
17378TIP3    H173549   4.800   6.100  13.626  0.7026 -2.0027 -0.1518
17378TIP3    H273550   4.686   6.001  13.629 -0.7537 -0.4072 -0.8646
17379TIP3   OH273551   1.918   6.741  13.733  0.2229 -0.2524 -0.0457
17379TIP3    H173552   1.940   6.832  13.715 -2.3953  0.3579 -0.5786
17379TIP3    H273553   1.911   6.736  13.828  0.7139  0.0015  0.0075
17380TIP3   OH273554   2.345   4.691  11.373  0.2089  0.6866  0.4560
17380TIP3    H173555   2.258   4.653  11.370  0.3757  0.3358 -0.6680
17380TIP3    H273556   2.396   4.639  11.310  1.6812 -0.1913  2.2607
17381TIP3   OH273557   0.240   1.815  11.430  0.4864 -0.3016  0.1713
17381TIP3    H173558   0.235   1.856  11.344  0.6648  0.0510  0.3278
17381TIP3    H273559   0.205   1.880  11.490 -0.1133 -0.7400  0.3065
17382TIP3   OH273560   1.311   6.216  15.184 -0.4270 -0.5840 -0.6572
17382TIP3    H173561   1.377   6.157  15.221  0.3109 -0.7620 -2.1598
17382TIP3    H273562   1.239   6.158  15.159 -0.4116 -0.6260 -0.6052
17383TIP3   OH273563   0.418   5.816  11.224  0.0739 -0.8279 -0.4625
17383TIP3    H173564   0.374   5.894  11.190  0.0447 -0.4457  0.4356
17383TIP3    H273565   0.474   5.848  11.295 -0.7801 -1.7547  0.6763
17384TIP3   OH273566   1.901   4.976  13.606 -0.3483 -0.3349 -0.5735
17384TIP3    H173567   1.983   5.024  13.612 -0.9925  1.0766 -2.2493
17384TIP3    H273568   1.847   5.010  13.677  0.4326 -1.2231  0.4953
17385TIP3   OH273569   2.489   5.479  13.063 -0.1944 -0.0571 -0.1852
17385TIP3    H173570   2.548   5.407  13.039 -0.3167  0.0286 -0.7530
17385TIP3    H273571   2.415   5.470  13.003 -0.1355  0.6408 -0.3654
17386TIP3   OH273572   2.306   4.129   3.466 -0.1213  0.2884 -0.8121
17386TIP3    H173573   2.281   4.167   3.549  0.3271 -0.1356 -0.4768
17386TIP3    H273574   2.400   4.145   3.459  0.5162 -2.4063  0.2599
17387TIP3   OH273575   4.935   5.061   3.548 -0.2172  0.5661  0.5918
17387TIP3    H173576   5.016   5.103   3.519 -0.3937  0.3766 -0.1951
17387TIP3    H273577   4.962   4.973   3.573 -0.2406  0.3770 -0.0404
17388TIP3   OH273578   2.763   0.101  11.998 -0.2302 -0.4406  0.1704
17388TIP3    H173579   2.677   0.110  12.039 -0.0839  2.1609  0.0655
17388TIP3    H273580   2.744   0.087  11.905 -0.5841  0.8169  0.0317
17389TIP3   OH273581   2.860   4.537  16.923  0.3508 -0.1809  0.0209
17389TIP3    H173582   2.905   4.453  16.936  2.2738  1.0541  2.1161
17389TIP3    H273583   2.890   4.592  16.995  1.3168  3.1951 -2.6587
17390TIP3   OH273584   3.259   1.578  15.912  0.0662  0.2671 -0.0391
17390TIP3    H173585   3.266   1.651  15.851  0.4400  0.8374  0.6753
17390TIP3    H273586   3.294   1.503  15.864  2.2804  1.1212  0.1562
17391TIP3   OH273587   2.656   6.543  14.596 -0.2274 -0.7410 -0.0598
17391TIP3    H173588   2.674   6.564  14.688  0.2586 -0.7058 -0.1599
17391TIP3    H273589   2.621   6.454  14.599  0.4766 -1.0194  0.0950
17392TIP3   OH273590   4.029   4.786   6.818 -0.1097  0.4845  0.3222
17392TIP3    H173591   4.063   4.845   6.750 -0.6405 -0.3089 -0.6546
17392TIP3    H273592   3.934   4.798   6.814 -0.2591 -0.7555 -0.2043
17393TIP3   OH273593   3.501   5.095   4.351 -0.0745 -0.1858  0.3321
17393TIP3    H173594   3.579   5.039   4.353  0.7597  0.9730  0.9183
17393TIP3    H273595   3.532   5.179   4.319 -1.3052 -0.0012 -0.4428
17394TIP3   OH273596   4.152   5.056  12.761  0.1758 -0.7329  0.2202
17394TIP3    H173597   4.245   5.070  12.744  0.3569 -0.0071  1.6615
17394TIP3    H273598   4.108   5.081  12.680  1.1682 -0.0588 -0.1195
17395TIP3   OH273599   5.229   0.005  10.906  0.0342 -0.1951 -0.2078
17395TIP3    H173600   5.306   0.054  10.932 -0.0595 -0.8921  1.5938
17395TIP3    H273601   5.156   0.065  10.921  0.0796 -0.2040  0.0617
17396TIP3   OH273602   4.499   6.317   2.664 -0.6023 -0.6800  0.4184
17396TIP3    H173603   4.467   6.398   2.625 -0.5928 -0.3020  1.1868
17396TIP3    H273604   4.470   6.320   2.755 -0.4509 -1.4555  0.5041
17397TIP3   OH273605   6.477   1.912  15.794  0.0786  0.0530  0.1305
17397TIP3    H173606   6.542   1.847  15.822 -0.1111  0.4333  1.4817
17397TIP3    H273607   6.400   1.859  15.772  0.1516 -0.2388  0.5554
17398TIP3   OH273608   5.000   1.734   2.088  0.6715  0.1836  0.0301
17398TIP3    H173609   5.025   1.663   2.147  0.5120  0.1437  0.0525
17398TIP3    H273610   4.959   1.799   2.145 -1.0405 -0.6017 -0.2429
17399TIP3   OH273611   1.978   0.741   4.021 -0.4529 -0.1610 -0.1353
17399TIP3    H173612   2.030   0.821   4.026 -0.2772 -0.3435  1.4898
17399TIP3    H273613   1.998   0.705   3.934  1.3226  0.3172  0.0396
17400TIP3   OH273614   5.362   2.397  13.991 -0.5418  0.3190 -0.6267
17400TIP3    H173615   5.316   2.428  13.912 -3.6191 -0.7871  0.5702
17400TIP3    H273616   5.391   2.477  14.034 -0.6448  1.0547 -1.8585
17401TIP3   OH273617   2.281   2.265  11.774  0.1307 -0.0262 -0.0573
17401TIP3    H173618   2.232   2.279  11.856  0.9167  1.7242  0.1712
17401TIP3    H273619   2.221   2.216  11.718 -0.9928  0.0442  1.0355
17402TIP3   OH273620   6.597   3.434   5.051  0.3928 -0.4962 -0.2295
17402TIP3    H173621   6.654   3.508   5.029  1.4859 -1.9010 -2.4418
17402TIP3    H273622   6.577   3.393   4.967 -1.7314 -1.6409  0.7604
17403TIP3   OH273623   5.094   6.272  13.196 -0.1194 -0.2957 -0.2648
17403TIP3    H173624   5.006   6.265  13.158  0.0550  1.1917 -1.0101
17403TIP3    H273625   5.142   6.199  13.158 -0.6741 -0.3427 -0.8941
17404TIP3   OH273626   6.753   4.284  12.816  0.4563 -0.0822 -0.1416
17404TIP3    H173627   6.707   4.228  12.879  1.8147 -0.1598  0.8167
17404TIP3    H273628   6.706   4.270  12.733 -2.0911  0.8835  1.0237
17405TIP3   OH273629   5.337   4.994  12.587 -0.0503 -0.5885 -0.3601
17405TIP3    H173630   5.339   4.921  12.650  2.3218 -1.0927 -0.8963
17405TIP3    H273631   5.258   5.043  12.609 -1.1424 -2.7001  0.7365
17406TIP3   OH273632   4.164   0.427   2.813  0.5203 -0.0010  0.3663
17406TIP3    H173633   4.118   0.464   2.737  1.5512  0.8992  0.1578
17406TIP3    H273634   4.243   0.387   2.776  1.0752  0.5202  0.9550
17407TIP3   OH273635   5.315   3.388  11.843 -0.0184  0.6935 -0.3694
17407TIP3    H173636   5.260   3.368  11.767  0.2362 -0.6376 -0.2294
17407TIP3    H273637   5.369   3.461  11.815 -1.6749  1.8803 -0.5936
17408TIP3   OH273638   3.367   2.588  16.497  0.7165  0.3735 -0.0857
17408TIP3    H173639   3.378   2.600  16.591  1.6420  0.0063 -0.1388
17408TIP3    H273640   3.290   2.531  16.489  0.8021  0.1725  0.4581
17409TIP3   OH273641   2.140   4.379  13.907 -0.3076  0.4099  1.1215
17409TIP3    H173642   2.111   4.456  13.955 -2.0942 -0.4466  1.4786
17409TIP3    H273643   2.171   4.318  13.975 -0.1339  0.2925  0.9414
17410TIP3   OH273644   6.783   1.206   0.355  0.1915  0.3985 -0.5395
17410TIP3    H173645   6.694   1.240   0.343  0.0495  1.0714  1.9178
17410TIP3    H273646   6.780   1.159   0.439  2.3470  1.2086  0.0704
17411TIP3   OH273647   3.352   0.219   3.004 -0.1297  0.4800  0.4462
17411TIP3    H173648   3.409   0.278   3.053  1.4678 -1.3687  0.9296
17411TIP3    H273649   3.365   0.133   3.044 -2.5379 -0.2116 -0.0889
17412TIP3   OH273650   0.885   3.675   5.257 -0.0136 -0.1915  0.0120
17412TIP3    H173651   0.789   3.679   5.266  0.1369 -0.5282  2.9219
17412TIP3    H273652   0.904   3.727   5.179 -2.5722 -0.3606 -0.8387
17413TIP3   OH273653   5.833   5.170  16.966 -0.2496 -0.2822  0.0616
17413TIP3    H173654   5.790   5.089  16.994 -0.5926  0.2921  1.3089
17413TIP3    H273655   5.909   5.178  17.024  0.4657 -0.3072 -0.8502
17414TIP3   OH273656   4.889   5.146   2.639  0.0301  0.2460 -0.2079
17414TIP3    H173657   4.954   5.077   2.656 -0.8215 -0.6370 -0.4165
17414TIP3    H273658   4.900   5.166   2.546  0.4221  0.5421 -0.0982
17415TIP3   OH273659   4.698   5.443  15.181 -0.2142  0.3289 -0.5847
17415TIP3    H173660   4.604   5.427  15.168  0.2292 -0.6855 -3.1090
17415TIP3    H273661   4.717   5.516  15.121  0.5445  0.7840  0.2066
17416TIP3   OH273662   5.297   4.427   3.664 -0.0794  0.0018 -0.4894
17416TIP3    H173663   5.359   4.384   3.606  0.6574 -0.1192  0.3665
17416TIP3    H273664   5.298   4.519   3.637  1.4834  0.2692  0.3377
17417TIP3   OH273665   1.423   5.082  12.615 -0.5671 -0.2640  0.0208
17417TIP3    H173666   1.344   5.137  12.612 -0.3930  0.1292  1.5325
17417TIP3    H273667   1.495   5.142  12.597 -0.4049 -0.0203  1.3525
17418TIP3   OH273668   1.702   3.005   2.401 -0.2719  0.1126 -0.2153
17418TIP3    H173669   1.680   2.970   2.488  0.3519 -0.6498 -0.3520
17418TIP3    H273670   1.621   2.997   2.351 -0.6687  0.6563  0.3158
17419TIP3   OH273671   1.578   4.553  11.586  0.0258  0.3630  0.7762
17419TIP3    H173672   1.525   4.597  11.653  0.0856  2.3186 -0.3735
17419TIP3    H273673   1.664   4.594  11.595 -0.1472  1.1717 -0.9086
17420TIP3   OH273674   1.284   3.441   3.396 -0.4051 -0.3522  0.4425
17420TIP3    H173675   1.224   3.513   3.415  0.1453  0.5781 -1.1415
17420TIP3    H273676   1.294   3.442   3.300  3.2371  0.5252  0.6581
17421TIP3   OH273677   4.553   5.305   5.389  0.0518 -0.2190  0.3650
17421TIP3    H173678   4.491   5.317   5.317  1.3671  0.1158 -0.7308
17421TIP3    H273679   4.570   5.394   5.420  1.7042 -0.0713 -0.8451
17422TIP3   OH273680   3.839   4.066   1.389 -0.1745 -0.0920 -0.0711
17422TIP3    H173681   3.769   4.113   1.434 -1.2264 -0.1154 -1.5989
17422TIP3    H273682   3.912   4.128   1.387 -0.8324  0.7041 -0.2066
17423TIP3   OH273683   6.400   5.040   5.658 -0.3646  0.7487 -0.1002
17423TIP3    H173684   6.333   5.062   5.722 -2.2642 -1.4197 -1.1706
17423TIP3    H273685   6.458   4.980   5.704 -0.0294  1.4441  0.3980
17424TIP3   OH273686   0.030   6.755   4.060  0.0998 -0.1966 -0.6558
17424TIP3    H173687  -0.066   6.757   4.053 -0.0972 -2.5265  0.6099
17424TIP3    H273688   0.048   6.791   4.147  0.3610 -0.2219 -0.7008
17425TIP3   OH273689   1.063   2.063  12.434  0.3202  0.0826  0.2259
17425TIP3    H173690   1.152   2.080  12.404 -0.2619  1.7690 -0.6995
17425TIP3    H273691   1.054   2.114  12.515 -0.0238  0.5670 -0.1077
17426TIP3   OH273692   3.062   1.243  13.649 -1.1042  1.0066 -0.4679
17426TIP3    H173693   3.097   1.303  13.585 -0.7486  1.3650  0.0564
17426TIP3    H273694   3.116   1.165  13.642 -2.0845  0.3958 -1.7320
17427TIP3   OH273695   4.872   6.293   0.934  0.0648 -0.1136  0.0310
17427TIP3    H173696   4.899   6.369   0.882 -1.3958 -0.1552 -0.8236
17427TIP3    H273697   4.955   6.256   0.965  0.8724  1.0804 -0.5944
17428TIP3   OH273698   0.731   1.600   4.183  0.3873 -0.0416 -0.3151
17428TIP3    H173699   0.800   1.633   4.242  1.2633 -0.7574 -0.9113
17428TIP3    H273700   0.664   1.565   4.242  0.0218  1.5956  0.2986
17429TIP3   OH273701   3.836   2.905  14.438  0.1415 -0.0568  0.4395
17429TIP3    H173702   3.914   2.892  14.384 -0.7043  0.1456 -0.8788
17429TIP3    H273703   3.847   2.843  14.510  0.7732 -1.1545 -0.5660
17430TIP3   OH273704   1.021   5.441  12.737 -0.3128 -0.1056 -0.1236
17430TIP3    H173705   0.932   5.407  12.749  0.8966 -3.1948  1.2333
17430TIP3    H273706   1.031   5.450  12.642 -1.3662 -2.0389 -0.4800
17431TIP3   OH273707   0.632   6.110  16.941  0.0470  0.0357  0.2430
17431TIP3    H173708   0.565   6.045  16.922 -1.1971  1.4835 -0.4842
17431TIP3    H273709   0.705   6.059  16.976 -0.9918 -1.7043 -0.0107
17432TIP3   OH273710   1.043   1.658  14.436  0.0932  0.0001 -0.7366
17432TIP3    H173711   1.115   1.721  14.444 -0.7151  0.8209  0.6238
17432TIP3    H273712   1.004   1.656  14.523 -0.8165 -1.3063 -1.1463
17433TIP3   OH273713   2.348   5.138  13.216  0.4070 -0.1128  0.1444
17433TIP3    H173714   2.252   5.140  13.217  0.4107  0.4845 -0.1237
17433TIP3    H273715   2.371   5.168  13.128  0.8366 -0.7755  0.0236
17434TIP3   OH273716   5.472   1.708  14.066  0.5423 -0.1663  0.5719
17434TIP3    H173717   5.554   1.756  14.073  0.3545  0.3519 -0.5552
17434TIP3    H273718   5.439   1.703  14.156  1.4167  0.2959  0.9297
17435TIP3   OH273719   4.008   5.073  16.676  0.2093 -0.0343 -0.1849
17435TIP3    H173720   4.081   5.088  16.736  0.5884  0.2996 -0.7174
17435TIP3    H273721   4.046   5.024  16.604  0.0538  0.6606 -0.7570
17436TIP3   OH273722   2.712   5.615  16.711  0.2956 -0.1593 -0.3003
17436TIP3    H173723   2.724   5.520  16.706  3.5520  0.0538  1.0329
17436TIP3    H273724   2.644   5.627  16.777  0.4062 -1.5507  0.1088
17437TIP3   OH273725   2.538   0.636  12.162 -0.0082  0.2228 -0.5444
17437TIP3    H173726   2.618   0.668  12.204  0.3123 -0.5199 -0.5753
17437TIP3    H273727   2.570   0.579  12.091 -0.5582 -1.1557  0.2809
17438TIP3   OH273728   5.963   0.565  14.051  0.7750 -0.1280 -0.1875
17438TIP3    H173729   5.958   0.660  14.044 -1.1047 -0.0710  1.1067
17438TIP3    H273730   6.055   0.545  14.039  0.9929  1.6700 -2.2988
17439TIP3   OH273731   2.150   0.691  12.406 -0.0886  0.1600 -0.2864
17439TIP3    H173732   2.178   0.617  12.353 -0.1468 -1.5958  1.9831
17439TIP3    H273733   2.217   0.758  12.392  1.3026 -1.2313 -0.5858
17440TIP3   OH273734   5.915   3.189   0.804  0.1562 -0.4802  0.2987
17440TIP3    H173735   6.005   3.218   0.788  0.1962 -0.6601  0.1946
17440TIP3    H273736   5.901   3.207   0.897 -0.5471  1.8385 -0.2009
17441TIP3   OH273737   5.024   6.201  16.176 -0.3375 -0.1924  0.1286
17441TIP3    H173738   5.077   6.248  16.112  3.4201 -1.2148  2.1747
17441TIP3    H273739   4.984   6.269  16.230 -1.3186  0.6127 -1.5475
17442TIP3   OH273740   6.126   0.402   0.790  0.2704  0.5582 -0.1867
17442TIP3    H173741   6.054   0.443   0.742  0.8043  1.2132 -0.4311
17442TIP3    H273742   6.204   0.421   0.738  0.5283 -0.7963 -0.3205
17443TIP3   OH273743   5.549   5.916  13.744 -0.1880 -0.4310  0.0246
17443TIP3    H173744   5.511   5.989  13.695 -0.9467 -0.2294  0.8776
17443TIP3    H273745   5.643   5.932  13.742 -0.3893  1.1171  1.0059
17444TIP3   OH273746   4.208   6.229   4.046 -0.3561 -0.0351 -0.6739
17444TIP3    H173747   4.163   6.300   4.091  3.2072  2.1686 -0.1586
17444TIP3    H273748   4.290   6.217   4.094 -0.2043 -3.7062 -1.5285
17445TIP3   OH273749   1.946   1.457   5.344  0.2281 -0.1002  0.1036
17445TIP3    H173750   1.956   1.370   5.384 -0.6459  0.6064  1.9655
17445TIP3    H273751   2.030   1.500   5.360  1.3987 -1.2005 -2.5509
17446TIP3   OH273752   3.825   4.803   3.623 -0.0768  0.2511 -1.1383
17446TIP3    H173753   3.747   4.794   3.568 -0.3909  0.7519 -0.7937
17446TIP3    H273754   3.879   4.727   3.603 -1.9940 -1.7736  0.7738
17447TIP3   OH273755   0.755   2.503   3.928  0.2360 -0.4052  0.4596
17447TIP3    H173756   0.787   2.591   3.943 -0.4558 -0.1894  0.6883
17447TIP3    H273757   0.697   2.511   3.852  0.7465 -0.8046  0.0094
17448TIP3   OH273758   5.987   0.854   5.219  0.8027 -0.2556 -0.3262
17448TIP3    H173759   5.947   0.921   5.164  0.5525  0.1395  0.3182
17448TIP3    H273760   6.050   0.902   5.273  1.8234 -0.7972 -0.9900
17449TIP3   OH273761   3.717   5.581  15.336  0.8698  0.6442  0.0308
17449TIP3    H173762   3.626   5.610  15.332  0.2543 -1.1743  0.1791
17449TIP3    H273763   3.766   5.652  15.294 -0.5298  1.9242  0.4745
17450TIP3   OH273764   2.500   0.937   4.014  0.2620  0.1961 -0.0351
17450TIP3    H173765   2.423   0.956   4.066  1.8019  0.8673  2.1418
17450TIP3    H273766   2.466   0.898   3.934 -2.3079  0.5469  0.8027
17451TIP3   OH273767   4.014   1.208  10.436 -0.6342 -0.3446  0.5323
17451TIP3    H173768   4.045   1.164  10.515  0.0260 -0.5770  0.1493
17451TIP3    H273769   4.092   1.249  10.399 -1.1342  0.6782  0.5767
17452TIP3   OH273770   6.180   0.547  13.075 -0.4769 -0.3425 -0.1908
17452TIP3    H173771   6.194   0.642  13.084  1.6401 -0.7310  1.4191
17452TIP3    H273772   6.085   0.537  13.084 -0.7239  1.6013 -0.0484
17453TIP3   OH273773   5.753   4.309   3.559  0.2102  0.5802  0.2175
17453TIP3    H173774   5.774   4.303   3.652  0.4409 -1.1068  0.0909
17453TIP3    H273775   5.825   4.264   3.515 -0.9232 -0.4729 -0.6249
17454TIP3   OH273776   2.479   5.963   2.909  0.3818  0.2363  0.2022
17454TIP3    H173777   2.524   5.980   2.992  0.0325 -0.4043  0.5300
17454TIP3    H273778   2.526   6.017   2.845  0.6612  0.7282  0.8129
17455TIP3   OH273779   1.946   3.760   4.070 -0.0880  0.1917  0.0867
17455TIP3    H173780   2.008   3.752   3.998 -1.2127  1.6123 -1.0945
17455TIP3    H273781   2.000   3.779   4.146  1.0093  0.3540 -0.6999
17456TIP3   OH273782   1.858   2.894   2.799  0.3566  0.1450 -0.0840
17456TIP3    H173783   1.785   2.835   2.776 -0.6803  1.6197 -0.6859
17456TIP3    H273784   1.917   2.890   2.724 -0.6148  1.2290 -0.9338
17457TIP3   OH273785   5.099   4.240  13.901  0.3020 -0.0882 -0.4799
17457TIP3    H173786   5.170   4.177  13.903  0.4923  0.1474  0.9602
17457TIP3    H273787   5.019   4.187  13.900  0.4370 -0.3958  1.6211
17458TIP3   OH273788   1.308   6.601  13.401 -0.5552  0.3895  0.0145
17458TIP3    H173789   1.286   6.545  13.327 -0.2526 -3.9428  2.8604
17458TIP3    H273790   1.402   6.615  13.394 -0.5780  0.2526 -0.5871
17459TIP3   OH273791   6.491   6.063  12.427 -0.2273  0.2595 -0.8611
17459TIP3    H173792   6.460   6.013  12.352 -2.3516 -0.2319  0.2752
17459TIP3    H273793   6.496   5.999  12.498 -3.0046  1.5101  0.6288
17460TIP3   OH273794   1.671   3.328  10.949  0.8024 -0.4840 -0.2018
17460TIP3    H173795   1.659   3.360  10.859 -0.8186  3.2842  1.1290
17460TIP3    H273796   1.621   3.247  10.952 -0.0642 -0.1171 -2.4060
17461TIP3   OH273797   4.962   0.926   0.543 -0.0811 -0.7391 -0.0286
17461TIP3    H173798   4.990   0.850   0.492 -1.4973 -0.4599 -1.2848
17461TIP3    H273799   4.896   0.892   0.603 -2.1805 -0.2603 -1.9281
17462TIP3   OH273800   3.548   3.465  11.091  0.4602 -0.3879  0.4980
17462TIP3    H173801   3.525   3.374  11.110  1.5042 -1.0568 -1.1613
17462TIP3    H273802   3.502   3.485  11.010  0.7988  0.3192  0.4767
17463TIP3   OH273803   3.036   0.856   4.915  0.2714  0.3234 -0.5896
17463TIP3    H173804   3.085   0.804   4.851  1.2213 -0.9776  1.1147
17463TIP3    H273805   3.087   0.936   4.925  0.2923  0.3923 -1.2002
17464TIP3   OH273806   0.907   2.109  11.227 -0.7150  0.0715 -0.0817
17464TIP3    H173807   0.888   2.126  11.134 -2.4369  2.8285  0.6598
17464TIP3    H273808   0.821   2.100  11.267 -0.0027 -0.6609  1.3444
17465TIP3   OH273809   4.757   6.418   4.886 -0.7381  0.3751 -0.0049
17465TIP3    H173810   4.724   6.462   4.808 -0.3605  1.8782  0.6602
17465TIP3    H273811   4.757   6.325   4.862 -0.7799  0.7852 -1.7326
17466TIP3   OH273812   2.706   3.667   1.866  0.0833  0.1073  0.5444
17466TIP3    H173813   2.785   3.689   1.817 -1.4639 -0.2836 -2.3705
17466TIP3    H273814   2.636   3.671   1.801 -2.0643 -1.2927  2.6006
17467TIP3   OH273815   4.090   2.917   0.130 -0.2543 -0.1823  0.3024
17467TIP3    H173816   4.148   2.980   0.174 -0.8230  0.1729  0.5541
17467TIP3    H273817   4.053   2.866   0.202  0.2122 -0.8211  0.0979
17468TIP3   OH273818   2.572   0.795  13.430  0.0228  0.0735 -0.3234
17468TIP3    H173819   2.533   0.831  13.350 -0.0185 -0.6041 -0.6150
17468TIP3    H273820   2.569   0.867  13.493 -4.5754 -0.6376  0.7028
17469TIP3   OH273821   3.180   6.096  15.843  0.2794 -0.0328 -0.0742
17469TIP3    H173822   3.273   6.104  15.820  0.3617  0.1601  0.3055
17469TIP3    H273823   3.167   6.003  15.862  0.2884 -0.1347 -0.5602
17470TIP3   OH273824   0.783   4.288  11.053  0.0599  0.4344 -0.0305
17470TIP3    H173825   0.828   4.324  10.977 -0.7993 -0.3647 -0.9398
17470TIP3    H273826   0.736   4.211  11.020  0.4124 -0.4836  1.4863
17471TIP3   OH273827   4.312   6.376  15.792 -0.5947  0.2140 -0.2102
17471TIP3    H173828   4.402   6.390  15.763 -0.5029  1.7185  0.7069
17471TIP3    H273829   4.281   6.463  15.817 -2.0866 -0.3857  0.1325
17472TIP3   OH273830   5.153   3.531  12.325  0.1259  0.9055  0.0875
17472TIP3    H173831   5.143   3.621  12.355 -0.1343  0.5812  0.9790
17472TIP3    H273832   5.225   3.535  12.262 -0.4763  1.8935 -0.5750
17473TIP3   OH273833   5.245   1.639  16.209  0.1097 -0.0125  0.6732
17473TIP3    H173834   5.179   1.701  16.240 -0.7102 -1.2605  1.5219
17473TIP3    H273835   5.302   1.625  16.285  1.0745  0.6626  0.1001
17474TIP3   OH273836   3.139   0.843   1.647  0.9135  0.0388 -0.4473
17474TIP3    H173837   3.074   0.902   1.685  0.1651 -1.2342  0.3125
17474TIP3    H273838   3.094   0.802   1.573  1.3896  0.3117 -0.8967
17475TIP3   OH273839   4.338   2.637  16.845  0.1606  0.5354 -0.2935
17475TIP3    H173840   4.399   2.659  16.775 -0.8154  0.2220 -1.2718
17475TIP3    H273841   4.368   2.552  16.877  0.5375  0.6203 -0.4189
17476TIP3   OH273842   5.430   0.370  14.629  0.1716 -0.5020 -0.0608
17476TIP3    H173843   5.363   0.352  14.562 -0.9374  0.8122  0.6430
17476TIP3    H273844   5.454   0.462  14.615  1.5522 -0.8460 -0.0410
17477TIP3   OH273845   1.496   1.282  10.867  0.4173 -0.1093  0.0708
17477TIP3    H173846   1.429   1.350  10.877 -1.3833 -1.7270 -0.3603
17477TIP3    H273847   1.470   1.214  10.929  1.0409 -1.2388 -0.8600
17478TIP3   OH273848   3.783   0.879  11.910  0.6969  0.2825 -0.8911
17478TIP3    H173849   3.739   0.912  11.831  0.5007 -0.8557 -1.2685
17478TIP3    H273850   3.712   0.844  11.963  1.0963 -1.5975 -1.5156
17479TIP3   OH273851   4.348   4.882   4.039  0.4036  0.1824 -0.0841
17479TIP3    H173852   4.383   4.845   3.958 -1.5516  1.8117 -1.7629
17479TIP3    H273853   4.318   4.805   4.089  0.7858 -0.7955 -1.3059
17480TIP3   OH273854   0.776   5.186  16.607  0.2468 -0.4336 -0.0461
17480TIP3    H173855   0.699   5.201  16.553 -0.1907 -1.3448  0.2888
17480TIP3    H273856   0.850   5.214  16.553 -0.4347  3.2351  0.6962
17481TIP3   OH273857   1.648   6.714   5.585  0.0484 -0.6681  0.4271
17481TIP3    H173858   1.601   6.731   5.503  0.4226 -1.2929  0.0824
17481TIP3    H273859   1.652   6.619   5.592  0.2846 -0.6194  1.0201
17482TIP3   OH273860   3.391   6.391   6.018  0.1426  0.0639  0.2218
17482TIP3    H173861   3.309   6.435   6.044  0.6622  1.2577 -0.0666
17482TIP3    H273862   3.380   6.374   5.925 -0.2201 -0.8168  0.4153
17483TIP3   OH273863   5.328   4.118  15.309  0.9410  0.1539 -0.0052
17483TIP3    H173864   5.329   4.085  15.399  1.9079 -2.7437 -0.9754
17483TIP3    H273865   5.416   4.153  15.295  0.4593  1.6306  0.4581
17484TIP3   OH273866   1.355   0.217   4.033  0.2206  0.2024 -0.8370
17484TIP3    H173867   1.369   0.292   4.092  1.9747  0.2981 -1.3183
17484TIP3    H273868   1.352   0.141   4.091 -0.7150  0.5438 -0.4171
17485TIP3   OH273869   3.194   3.819  11.978 -0.2674 -0.0110  0.0134
17485TIP3    H173870   3.225   3.745  12.030 -2.3226 -1.1134 -0.2437
17485TIP3    H273871   3.209   3.896  12.033  1.8082 -0.5847  0.3309
17486TIP3   OH273872   4.314   1.072   5.109  0.0693  0.1242  0.3584
17486TIP3    H173873   4.242   1.055   5.049 -0.7051  0.5283  1.1516
17486TIP3    H273874   4.355   1.152   5.076  0.7679 -0.6131 -0.6377
17487TIP3   OH273875   5.514   6.533  11.555 -0.1762 -0.0671 -0.3275
17487TIP3    H173876   5.571   6.457  11.562  1.4284  1.1851  0.9333
17487TIP3    H273877   5.448   6.520  11.623 -1.9578 -1.8709 -2.2588
17488TIP3   OH273878   2.315   1.155   3.493  0.3251 -0.2404 -0.2915
17488TIP3    H173879   2.250   1.088   3.473  1.2596 -1.5420  0.8428
17488TIP3    H273880   2.399   1.114   3.471  0.9956  0.1358  1.4246
17489TIP3   OH273881   3.048   6.452  16.535 -0.1717  0.1301  0.1951
17489TIP3    H173882   3.052   6.394  16.459 -3.3474 -1.0564  0.8109
17489TIP3    H273883   3.031   6.394  16.609 -0.3015  1.5633  1.3328
17490TIP3   OH273884   2.373   4.971  12.020  0.8361 -0.1030 -0.6870
17490TIP3    H173885   2.415   5.057  12.023  0.9239 -0.1609  0.1690
17490TIP3    H273886   2.422   4.922  11.955  1.1388  0.3215 -0.7812
17491TIP3   OH273887   1.768   2.935   0.283 -0.2616 -0.0572  0.2220
17491TIP3    H173888   1.801   2.952   0.195  0.8011  1.7903  0.9093
17491TIP3    H273889   1.686   2.985   0.287 -0.1597  0.1033  0.3533
17492TIP3   OH273890   4.198   3.272  15.522 -0.5063  0.4617 -0.4044
17492TIP3    H173891   4.219   3.190  15.565 -0.4991  0.6956  0.0442
17492TIP3    H273892   4.174   3.331  15.593 -2.2293  0.3429 -0.8449
17493TIP3   OH273893   3.400   2.874   6.235 -0.6113  0.0206  0.2726
17493TIP3    H173894   3.322   2.914   6.272 -0.4578  0.4128  0.1782
17493TIP3    H273895   3.390   2.780   6.251 -0.8698  0.1218  0.6890
17494TIP3   OH273896   1.317   2.137   4.475 -0.7711 -0.3973 -0.3000
17494TIP3    H173897   1.237   2.177   4.441 -0.1903  0.7217 -0.4014
17494TIP3    H273898   1.371   2.211   4.501 -0.4462 -1.1692  1.3799
17495TIP3   OH273899   1.141   4.517  11.819 -0.3096 -0.0042  0.1685
17495TIP3    H173900   1.100   4.484  11.739 -1.0292  1.6307 -0.1796
17495TIP3    H273901   1.224   4.555  11.790  0.3631 -1.1579  0.5184
17496TIP3   OH273902   2.837   0.555   6.452 -0.1038 -0.3255 -0.4499
17496TIP3    H173903   2.833   0.633   6.507 -1.7295 -2.0634  2.0884
17496TIP3    H273904   2.763   0.565   6.391  0.9092  0.9715 -1.5620
17497TIP3   OH273905   3.320   4.481   5.391  0.3496 -0.3346 -0.0988
17497TIP3    H173906   3.314   4.561   5.339 -1.4527 -1.4933 -1.8622
17497TIP3    H273907   3.230   4.464   5.419  1.1157 -0.2689  2.7416
17498TIP3   OH273908   4.154   3.733  11.455  0.2641 -0.1419 -0.0782
17498TIP3    H173909   4.093   3.722  11.528  1.5215  0.2618  1.0901
17498TIP3    H273910   4.105   3.707  11.377 -1.8126  1.3729  0.6309
17499TIP3   OH273911   5.991   0.671  16.249 -0.1149  0.4545  0.4565
17499TIP3    H173912   6.070   0.724  16.238 -0.9636  1.6770  0.0504
17499TIP3    H273913   5.953   0.666  16.162  0.8266 -2.3346  0.1145
17500TIP3   OH273914   3.545   1.483   3.282  0.6584 -0.4083  0.3965
17500TIP3    H173915   3.525   1.446   3.368  0.9086 -1.4809  0.0073
17500TIP3    H273916   3.521   1.414   3.220 -0.0690  0.5757 -0.4413
17501TIP3   OH273917   0.215   5.618   2.966  0.0493 -0.1822  0.2250
17501TIP3    H173918   0.257   5.696   3.004  1.2006 -0.8382  0.3414
17501TIP3    H273919   0.136   5.605   3.019 -0.7394  1.5092 -0.4599
17502TIP3   OH273920   5.160   1.827  11.446  0.2290 -0.3059  0.5925
17502TIP3    H173921   5.126   1.798  11.361 -0.0192  2.0172 -0.1599
17502TIP3    H273922   5.083   1.824  11.504  0.5322 -2.5029  0.9688
17503TIP3   OH273923   2.908   2.755  12.975  0.3739 -0.0037 -0.2449
17503TIP3    H173924   2.888   2.760  12.881 -0.6127  0.1360 -0.0370
17503TIP3    H273925   2.823   2.765  13.018  0.8388  0.0863  0.6714
17504TIP3   OH273926   3.124   6.369  17.034 -0.1147  0.3978 -0.1448
17504TIP3    H173927   3.123   6.463  17.018  0.6003  0.4020 -0.2103
17504TIP3    H273928   3.214   6.343  17.014 -0.3672 -0.3371 -0.3480
17505TIP3   OH273929   2.264   4.304  13.414  0.3359 -0.1750 -0.0876
17505TIP3    H173930   2.185   4.333  13.459 -0.5119 -2.1618 -0.1590
17505TIP3    H273931   2.316   4.383  13.402 -1.7008  1.2357 -0.1657
17506TIP3   OH273932   1.086   0.813  17.009  0.1063  0.2216  0.1391
17506TIP3    H173933   1.027   0.828  17.083  0.3472  0.8010  0.2197
17506TIP3    H273934   1.028   0.814  16.932 -0.1345 -0.3121  0.3129
17507TIP3   OH273935   5.854   6.737  11.385 -0.8116  0.2498 -0.1976
17507TIP3    H173936   5.888   6.814  11.340 -0.4832  0.8459  1.0303
17507TIP3    H273937   5.790   6.771  11.447 -1.5591 -0.5934 -0.4930
17508TIP3   OH273938   4.002   2.974  14.883  0.2236 -0.1480  0.4409
17508TIP3    H173939   3.946   3.046  14.853 -0.1076 -1.2929 -1.9365
17508TIP3    H273940   4.091   3.005  14.865  0.1188 -0.0467  0.0779
17509TIP3   OH273941   2.603   0.177  14.366 -0.3176  0.0530  0.3296
17509TIP3    H173942   2.633   0.190  14.457 -1.2622  1.0845  0.5111
17509TIP3    H273943   2.598   0.265  14.330 -1.5698 -0.2204 -0.1977
17510TIP3   OH273944   0.293   4.692   2.388 -0.0598 -0.8653 -0.1752
17510TIP3    H173945   0.316   4.784   2.393 -0.1213 -0.8607  0.0303
17510TIP3    H273946   0.222   4.689   2.323  0.3043 -0.8407 -0.5791
17511TIP3   OH273947   0.913   2.206  13.903  0.6979  0.2437 -0.0013
17511TIP3    H173948   0.876   2.264  13.837  1.0215 -1.9213 -2.1967
17511TIP3    H273949   0.838   2.159  13.939  0.5819  1.0361  0.8210
17512TIP3   OH273950   2.057   2.068   0.435 -0.4324  0.5004  0.1832
17512TIP3    H173951   2.028   1.980   0.459 -0.3284  0.2864 -0.4575
17512TIP3    H273952   2.076   2.111   0.518  2.2997 -1.0155  0.4494
17513TIP3   OH273953   2.836   2.892  10.868 -0.5797 -0.1794  0.3469
17513TIP3    H173954   2.874   2.975  10.839 -2.3774  0.3980 -0.4691
17513TIP3    H273955   2.796   2.855  10.790  1.0803 -2.3962  0.4329
17514TIP3   OH273956   6.327   1.033   3.443 -0.4997 -0.1304 -1.0815
17514TIP3    H173957   6.360   0.970   3.378 -0.1375  0.1519 -1.1741
17514TIP3    H273958   6.391   1.028   3.515 -0.4683  0.1390 -1.0923
17515TIP3   OH273959   2.476   2.897   3.482 -0.3934  0.3844 -0.2224
17515TIP3    H173960   2.384   2.923   3.486 -1.0786 -1.6597 -1.2136
17515TIP3    H273961   2.507   2.904   3.572 -2.8059 -2.9488  1.0713
17516TIP3   OH273962   2.733   1.560  13.956 -0.4421  0.4250 -0.6493
17516TIP3    H173963   2.795   1.552  14.028 -1.0122  0.6336 -0.1279
17516TIP3    H273964   2.787   1.559  13.877  0.0268 -2.8764 -0.4241
17517TIP3   OH273965   0.376   5.457  12.144  0.0679 -0.3185 -0.5624
17517TIP3    H173966   0.412   5.540  12.114 -0.1015 -0.1276 -0.2395
17517TIP3    H273967   0.337   5.477  12.229  1.4753 -1.0734  0.3068
17518TIP3   OH273968   5.396   1.657  16.955  0.4532 -0.4406 -0.1344
17518TIP3    H173969   5.307   1.648  16.989  0.5615  0.7447  0.5239
17518TIP3    H273970   5.395   1.611  16.872 -1.7810  2.4224 -1.8792
17519TIP3   OH273971   5.655   2.414  13.578 -0.2192  0.0368  0.0805
17519TIP3    H173972   5.592   2.344  13.563  0.8694 -0.8114 -0.7779
17519TIP3    H273973   5.677   2.407  13.671 -1.0847  0.0909  0.2954
17520TIP3   OH273974   6.736   6.462  13.481 -0.2830  0.2203 -0.0638
17520TIP3    H173975   6.647   6.426  13.474 -0.0201 -0.5789  0.5220
17520TIP3    H273976   6.792   6.392  13.447  0.0946  0.9053 -0.8689
17521TIP3   OH273977   0.776   6.476   1.173  0.3928  0.7555 -0.2838
17521TIP3    H173978   0.774   6.549   1.111  0.3143  0.7942 -0.2361
17521TIP3    H273979   0.787   6.399   1.118 -1.8728  0.5555 -0.5684
17522TIP3   OH273980   2.892   5.809   5.557 -0.7002 -0.4869  0.5801
17522TIP3    H173981   2.954   5.864   5.603 -0.2159 -1.4763  1.1500
17522TIP3    H273982   2.810   5.859   5.558 -0.2242  0.3020  0.8824
17523TIP3   OH273983   6.211   2.625  11.268  1.0558 -0.2234 -0.2518
17523TIP3    H173984   6.200   2.540  11.311 -1.0216  0.1109 -0.0513
17523TIP3    H273985   6.155   2.685  11.317  3.2150  1.5492  0.2166
17524TIP3   OH273986   1.817   1.359   0.909 -0.5714  0.0413  1.1479
17524TIP3    H173987   1.891   1.337   0.853 -2.1117 -1.0396 -0.5626
17524TIP3    H273988   1.834   1.449   0.937  1.3906 -0.2118  0.8550
17525TIP3   OH273989   0.814   4.760   2.499  0.0711 -0.2862  0.5231
17525TIP3    H173990   0.758   4.739   2.424  0.3337 -0.0785  0.2679
17525TIP3    H273991   0.863   4.679   2.516 -0.2621 -0.4510  0.7118
17526TIP3   OH273992   6.490   5.376  14.952 -0.1106 -0.2279 -0.4623
17526TIP3    H173993   6.551   5.311  14.917  1.6977  0.9460  0.3443
17526TIP3    H273994   6.534   5.410  15.029 -2.1658  0.1567  0.6100
17527TIP3   OH273995   3.297   3.251  13.713  0.1869  0.5530 -0.0969
17527TIP3    H173996   3.325   3.250  13.621 -0.9152 -0.3741 -0.4473
17527TIP3    H273997   3.270   3.341  13.729  0.2052  0.6793 -0.7344
17528TIP3   OH273998   0.958   5.524  17.129 -0.6354  0.3961  0.1106
17528TIP3    H173999   0.949   5.491  17.218 -2.8924  0.4190 -0.0508
17528TIP3    H274000   1.041   5.572  17.129 -0.7421  0.6573  2.2814
17529TIP3   OH274001   3.652   5.715   0.504 -0.1063 -0.3778  0.6344
17529TIP3    H174002   3.677   5.791   0.556  1.1453 -1.0269  1.0169
17529TIP3    H274003   3.723   5.706   0.440 -0.6963 -0.6989  0.0226
17530TIP3   OH274004   0.753   6.753   6.008 -0.3231  0.2563 -0.1339
17530TIP3    H174005   0.664   6.779   5.985 -0.7939 -1.5574 -0.5763
17530TIP3    H274006   0.801   6.756   5.925 -0.9195 -2.1055 -0.6580
17531TIP3   OH274007   4.641   1.405   0.515  0.0684  0.3940  0.2812
17531TIP3    H174008   4.717   1.464   0.519  0.9946 -0.6918 -0.6244
17531TIP3    H274009   4.671   1.325   0.557 -0.7532  0.1169  0.3505
17532TIP3   OH274010   1.966   1.270  16.242 -0.3170  0.2130 -0.4621
17532TIP3    H174011   1.870   1.270  16.243 -0.3639  0.3563 -2.3472
17532TIP3    H274012   1.990   1.298  16.331 -1.9832 -0.8472  0.3866
17533TIP3   OH274013   2.128   5.915  16.059 -0.2781  0.5125  0.3102
17533TIP3    H174014   2.207   5.967  16.041 -0.7782  0.3537 -2.9930
17533TIP3    H274015   2.160   5.825  16.065 -0.0656  0.5725  0.1034
17534TIP3   OH274016   1.159   4.230  12.931  0.7806  0.4329 -0.1406
17534TIP3    H174017   1.114   4.168  12.988  0.4782  1.0802  0.3356
17534TIP3    H274018   1.091   4.291  12.902  1.1761  0.8824 -0.1446
17535TIP3   OH274019   3.123   3.350   3.879  0.4866 -0.3410  0.0136
17535TIP3    H174020   3.102   3.265   3.840  0.0713 -0.4651  0.5089
17535TIP3    H274021   3.148   3.330   3.969  1.7745 -0.0911 -0.2694
17536TIP3   OH274022   5.638   0.123   0.899  0.2116  0.1157 -0.1531
17536TIP3    H174023   5.610   0.084   0.816  1.6715  0.5509 -0.8758
17536TIP3    H274024   5.556   0.150   0.941 -0.4945  3.0778 -3.0052
17537TIP3   OH274025   3.598   2.468  16.368  0.1892  0.1363 -0.2291
17537TIP3    H174026   3.597   2.556  16.331  0.0433  0.2677  0.0780
17537TIP3    H274027   3.545   2.475  16.447 -1.1946 -0.6189 -1.0543
17538TIP3   OH274028   5.532   6.033  15.499  0.1819 -0.4464  0.2655
17538TIP3    H174029   5.480   6.039  15.580  1.1241 -0.6921  0.9012
17538TIP3    H274030   5.491   6.096  15.440  1.2093  1.9310  1.9155
17539TIP3   OH274031   2.489   5.311   5.234  0.0168  0.2846 -0.6155
17539TIP3    H174032   2.517   5.374   5.301  3.0432 -1.0579 -0.4526
17539TIP3    H274033   2.567   5.295   5.182 -1.1607 -1.8939 -1.8674
17540TIP3   OH274034   3.374   0.401   4.598 -0.0907 -0.0278  0.1039
17540TIP3    H174035   3.352   0.345   4.672  2.5417 -0.8675  0.3551
17540TIP3    H274036   3.292   0.445   4.575 -1.3701 -1.1167  2.3280
17541TIP3   OH274037   3.309   2.623  13.963  0.1438 -0.4533  0.7443
17541TIP3    H174038   3.229   2.663  13.928  0.1741 -0.5007  0.6217
17541TIP3    H274039   3.279   2.564  14.032  0.1364  0.2015  1.3103
17542TIP3   OH274040   0.980   6.028  15.613 -0.1916 -0.1023 -0.7704
17542TIP3    H174041   0.908   6.000  15.670  0.6984  1.4877  1.2704
17542TIP3    H274042   0.937   6.051  15.531 -1.9276  0.0451  0.1141
17543TIP3   OH274043   0.426   2.528  12.827  0.1618  0.3205 -0.3778
17543TIP3    H174044   0.522   2.529  12.828  0.1580  1.2486  0.8912
17543TIP3    H274045   0.404   2.447  12.781  1.5577 -0.2513 -0.1061
17544TIP3   OH274046   0.463   6.133   5.245  0.5021  0.6302 -0.4688
17544TIP3    H174047   0.481   6.225   5.265  0.3817  0.8404 -1.2878
17544TIP3    H274048   0.527   6.084   5.297  2.0634  1.2820 -1.6900
17545TIP3   OH274049   6.331   4.054  16.152 -0.3407  0.2182  0.2796
17545TIP3    H174050   6.253   4.106  16.173 -0.9087 -0.1012 -0.9370
17545TIP3    H274051   6.370   4.100  16.077 -0.8971 -1.1249 -0.8635
17546TIP3   OH274052   1.492   0.797   1.947 -0.0260 -0.4215  0.1087
17546TIP3    H174053   1.528   0.830   1.865  0.9334  1.0505  1.0740
17546TIP3    H274054   1.435   0.868   1.978  0.4955 -0.4835  1.2481
17547TIP3   OH274055   2.870   4.954   0.677 -0.0351  0.0602 -0.2337
17547TIP3    H174056   2.906   5.039   0.651 -0.4918  0.3696  0.1382
17547TIP3    H274057   2.842   4.913   0.595 -1.5510  1.0631 -0.2413
17548TIP3   OH274058   0.402   6.683  15.436 -1.4040 -0.2327  0.0583
17548TIP3    H174059   0.327   6.729  15.472 -1.7589 -0.1117 -0.8043
17548TIP3    H274060   0.366   6.627  15.367 -0.8309 -0.9332  0.3105
17549TIP3   OH274061   5.408   1.855  14.497  0.0484 -0.2461 -0.2380
17549TIP3    H174062   5.425   1.949  14.495  0.2545 -0.2523  0.6931
17549TIP3    H274063   5.405   1.833  14.590  1.4406 -1.4179 -0.4244
17550TIP3   OH274064   5.990   3.712  17.084 -0.1707 -0.7408  0.5346
17550TIP3    H174065   5.959   3.640  17.029 -1.9692 -1.0742  1.9266
17550TIP3    H274066   6.009   3.672  17.169  1.0164  0.0512  0.6710
17551TIP3   OH274067   2.869   4.856  15.465  0.1398  0.1501 -0.3522
17551TIP3    H174068   2.797   4.832  15.406 -0.5166 -0.8555  0.8140
17551TIP3    H274069   2.938   4.792  15.445  0.9026  1.3411 -1.7303
17552TIP3   OH274070   1.796   5.312  16.382 -0.2788 -0.2531  0.2224
17552TIP3    H174071   1.771   5.234  16.332 -0.5510 -0.5201  0.7686
17552TIP3    H274072   1.721   5.371  16.374  0.4575  0.5396 -1.3314
17553TIP3   OH274073   3.167   4.276  16.450 -0.4779  0.1721 -0.5030
17553TIP3    H174074   3.087   4.311  16.412 -1.0108 -0.7676 -0.2766
17553TIP3    H274075   3.224   4.260  16.375  0.7406  3.6713 -0.5033
17554TIP3   OH274076   6.623   0.139  12.736  0.1512 -0.3292 -0.3243
17554TIP3    H174077   6.684   0.168  12.669  0.0702 -0.8402 -0.6205
17554TIP3    H274078   6.669   0.070  12.783 -0.2840 -0.8968 -0.7128
17555TIP3   OH274079   2.483   5.713  12.802  0.1705  0.2875  0.0752
17555TIP3    H174080   2.449   5.670  12.723 -0.3967  0.6704  0.1037
17555TIP3    H274081   2.521   5.643  12.854  0.9104  0.0829 -0.7177
17556TIP3   OH274082   5.607   4.800  13.245 -0.2249 -0.1988 -0.1320
17556TIP3    H174083   5.514   4.790  13.267  0.0641 -0.0555  1.2607
17556TIP3    H274084   5.642   4.711  13.252 -0.5118 -0.4996 -2.0605
17557TIP3   OH274085   5.321   2.251   4.478  0.2590 -0.2991  0.4109
17557TIP3    H174086   5.403   2.277   4.519  1.2393  0.5705 -1.9037
17557TIP3    H274087   5.346   2.180   4.418 -0.4909  0.4761 -0.8706
17558TIP3   OH274088   2.601   5.710   6.161 -0.2044  0.0087  0.3500
17558TIP3    H174089   2.690   5.683   6.184 -0.9591 -0.1585  3.5210
17558TIP3    H274090   2.545   5.659   6.219 -2.3778  0.4095 -1.2751
17559TIP3   OH274091   0.174   3.220  16.801 -0.3232  0.3792  0.3195
17559TIP3    H174092   0.110   3.155  16.829 -0.2094  0.3075  0.4151
17559TIP3    H274093   0.214   3.252  16.882 -1.0698  1.2907  0.3426
17560TIP3   OH274094   1.111   0.984   1.674  0.1685  0.3768 -0.4145
17560TIP3    H174095   1.117   0.899   1.718  0.2192 -0.0274 -1.1831
17560TIP3    H274096   1.186   0.987   1.615  0.8480  1.4785  0.4538
17561TIP3   OH274097   1.542   4.825   5.947  0.4759  0.2482 -0.3385
17561TIP3    H174098   1.630   4.788   5.960  0.3322  0.0611  0.1332
17561TIP3    H274099   1.542   4.857   5.857  1.1429  0.5501 -0.2365
17562TIP3   OH274100   4.659   6.489  15.143 -0.5378 -0.5772  0.1802
17562TIP3    H174101   4.585   6.550  15.148  0.7925  1.0245  1.6000
17562TIP3    H274102   4.689   6.494  15.052 -1.1562 -0.0031  0.0010
17563TIP3   OH274103   6.715   0.107   1.713 -0.3365  0.4678  0.6966
17563TIP3    H174104   6.777   0.062   1.656 -0.2668  0.7677  0.5311
17563TIP3    H274105   6.656   0.038   1.744 -1.0950  0.4676 -0.6728
17564TIP3   OH274106   2.346   3.478  13.685 -0.0105 -0.3523  0.3780
17564TIP3    H174107   2.368   3.386  13.694 -1.7397 -0.8091  0.3991
17564TIP3    H274108   2.310   3.503  13.770 -0.7944 -0.0454 -0.0317
17565TIP3   OH274109   2.947   1.906  13.891  0.3625  0.3610 -0.7814
17565TIP3    H174110   2.968   1.896  13.984  0.5705 -1.4709 -0.9742
17565TIP3    H274111   2.919   1.997  13.882 -1.3232  0.1545  1.3952
17566TIP3   OH274112   0.592   1.815  12.185 -0.3807 -0.3068 -0.2994
17566TIP3    H174113   0.546   1.745  12.231 -0.9324 -0.8501 -1.6158
17566TIP3    H274114   0.523   1.865  12.142 -0.2484  2.5420  2.4596
17567TIP3   OH274115   6.764   5.113   6.513  0.1309  0.3990 -0.5170
17567TIP3    H174116   6.739   5.074   6.597 -1.7139 -0.3853 -1.3768
17567TIP3    H274117   6.760   5.208   6.529 -1.9278  0.3048 -0.1285
17568TIP3   OH274118   5.188   1.554  15.867  0.2499  0.2531 -0.2215
17568TIP3    H174119   5.178   1.621  15.799  0.0041 -0.9288 -1.3961
17568TIP3    H274120   5.144   1.590  15.944  1.6382  2.1740 -0.2652
17569TIP3   OH274121   6.178   2.760   2.370 -0.2882 -0.1354  0.1497
17569TIP3    H174122   6.272   2.777   2.367  0.1172 -2.2383 -1.3765
17569TIP3    H274123   6.171   2.675   2.414 -1.5649  0.3279  0.8992
17570TIP3   OH274124   2.713   3.440  14.973 -0.7327  0.1840  0.2095
17570TIP3    H174125   2.636   3.494  14.955 -1.5570 -0.2789  2.1615
17570TIP3    H274126   2.787   3.501  14.969 -1.0725  0.5595 -2.1237
17571TIP3   OH274127   0.733   5.325   2.638 -0.2486  0.6030 -0.3849
17571TIP3    H174128   0.662   5.294   2.693  2.0003  1.9022  3.6959
17571TIP3    H274129   0.781   5.246   2.614 -0.3297  0.0704  1.0887
17572TIP3   OH274130   1.584   1.663  12.244 -0.3045  0.0531  0.2179
17572TIP3    H174131   1.645   1.617  12.301 -1.8983 -0.8159  1.2738
17572TIP3    H274132   1.553   1.737  12.296 -3.3664 -1.9021  1.4319
17573TIP3   OH274133   4.977   1.581  16.065 -0.7953  0.0983  0.3746
17573TIP3    H174134   4.924   1.502  16.071 -2.5577  1.1936  0.0203
17573TIP3    H274135   5.029   1.582  16.145 -0.2773 -1.7213  0.0905
17574TIP3   OH274136   1.519   1.783  14.702 -0.0022 -0.0065  0.0838
17574TIP3    H174137   1.424   1.780  14.713  0.1157 -2.9360  1.2492
17574TIP3    H274138   1.551   1.826  14.781 -0.3285 -0.0894  0.2629
17575TIP3   OH274139   0.574   4.961  16.161  0.0274 -0.3233 -0.7110
17575TIP3    H174140   0.542   4.953  16.071  1.3860 -1.2224 -1.1512
17575TIP3    H274141   0.665   4.987  16.152  0.2862 -0.7749  0.3993
17576TIP3   OH274142   5.499   3.963   1.819 -0.1268  0.0175  0.2539
17576TIP3    H174143   5.466   3.902   1.754  1.0773  0.2031 -0.5576
17576TIP3    H274144   5.495   3.915   1.902  0.9845 -1.2565 -0.3915
17577TIP3   OH274145   0.856   4.958   0.779  0.2862 -0.4488 -0.2614
17577TIP3    H174146   0.819   5.047   0.774 -1.2106 -0.9588  1.0233
17577TIP3    H274147   0.949   4.970   0.757  0.5342  1.7182  1.5737
17578TIP3   OH274148   0.014   4.049  13.636 -0.1771  0.7144 -0.4500
17578TIP3    H174149   0.040   3.960  13.612  0.5842  0.9470 -0.5182
17578TIP3    H274150  -0.082   4.046  13.639 -0.1460 -0.7568  1.9195
17579TIP3   OH274151   6.385   5.799   4.820 -0.6040  0.0212  0.1874
17579TIP3    H174152   6.403   5.755   4.904 -2.1281  0.3994  0.7375
17579TIP3    H274153   6.459   5.858   4.809 -0.1160 -0.4037  1.0119
17580TIP3   OH274154   2.304   0.057  14.261  0.1587 -0.2603 -0.0683
17580TIP3    H174155   2.375   0.019  14.311  0.1428 -0.7723 -0.4257
17580TIP3    H274156   2.347   0.109  14.193  0.1944 -0.5910 -0.3003
17581TIP3   OH274157   4.366   6.533   2.501 -0.0751 -0.3927  0.0447
17581TIP3    H174158   4.455   6.530   2.468 -0.7022 -0.5735 -1.7239
17581TIP3    H274159   4.311   6.531   2.423 -1.6345 -0.2198  1.0877
17582TIP3   OH274160   0.598   0.259   4.863 -0.0043 -0.5604 -0.1356
17582TIP3    H174161   0.620   0.274   4.771  0.3312  0.3388  0.0756
17582TIP3    H274162   0.680   0.232   4.903  0.1972  0.4696  0.1792
17583TIP3   OH274163   2.869   6.457   1.678  0.7950  0.2759  0.0828
17583TIP3    H174164   2.936   6.517   1.644 -0.2695  2.5097  1.6198
17583TIP3    H274165   2.786   6.499   1.655 -0.0352 -1.2128  0.2581
17584TIP3   OH274166   5.093   3.754  16.551  0.2052 -0.4565 -0.4297
17584TIP3    H174167   5.057   3.817  16.614  0.6240 -0.3026 -0.3472
17584TIP3    H274168   5.080   3.795  16.466 -1.2807 -1.0968 -0.5433
17585TIP3   OH274169   5.604   0.260  16.949 -0.0585  0.0776 -0.2807
17585TIP3    H174170   5.681   0.291  16.998  0.2501 -0.1863 -0.5952
17585TIP3    H274171   5.640   0.222  16.869 -0.4268 -1.0585  0.0680
17586TIP3   OH274172   6.712   0.439   6.405 -0.1056 -0.2852 -0.6215
17586TIP3    H174173   6.694   0.354   6.443  0.5789 -0.5056 -0.7745
17586TIP3    H274174   6.791   0.426   6.353 -0.3594  0.2885 -1.1699
17587TIP3   OH274175   1.335   3.729  16.111 -0.2653  0.0440  0.2675
17587TIP3    H174176   1.409   3.724  16.049 -1.2167 -2.6989 -0.8321
17587TIP3    H274177   1.342   3.648  16.162  0.2025  1.9876  3.6006
17588TIP3   OH274178   2.503   6.732  14.443 -0.1757  0.1344 -0.4638
17588TIP3    H174179   2.573   6.674  14.473  0.2406  1.8241  2.0965
17588TIP3    H274180   2.548   6.810  14.412 -0.8152 -0.2172 -2.4545
17589TIP3   OH274181   4.791   3.107  12.215 -0.5447  0.2480 -0.1688
17589TIP3    H174182   4.835   3.192  12.213 -2.5085  1.3504 -3.0418
17589TIP3    H274183   4.768   3.094  12.307  1.8818  1.6161  0.7206
17590TIP3   OH274184   1.369   3.422   4.599  0.1390  0.7594 -0.0772
17590TIP3    H174185   1.406   3.490   4.654 -2.1799  1.8569  0.2583
17590TIP3    H274186   1.321   3.365   4.659 -1.2173  1.1461 -0.7472
17591TIP3   OH274187   2.050   2.609  15.642  0.0490  0.1356  0.2944
17591TIP3    H174188   1.991   2.555  15.590  0.8996  0.2840 -0.8786
17591TIP3    H274189   2.121   2.631  15.581  1.3921 -0.1750  1.7073
17592TIP3   OH274190   3.293   0.787   5.086  0.3047 -0.7959 -0.0846
17592TIP3    H174191   3.249   0.780   5.002 -2.8836 -0.3758  1.3873
17592TIP3    H274192   3.302   0.696   5.116 -1.6248 -0.8560  0.4708
17593TIP3   OH274193   4.068   2.227  15.596 -0.8493  0.0157  0.4765
17593TIP3    H174194   4.003   2.220  15.526  1.4762  2.2046 -2.1465
17593TIP3    H274195   4.051   2.313  15.636  0.9175  1.0770 -0.9211
17594TIP3   OH274196   6.458   4.542   6.022  0.6928 -0.0330 -0.0204
17594TIP3    H174197   6.549   4.561   6.043  0.8168  1.9983 -2.0234
17594TIP3    H274198   6.438   4.463   6.071  3.3953 -0.2988  0.8001
17595TIP3   OH274199   3.960   5.637  13.079  0.1903 -0.3156  0.2963
17595TIP3    H174200   4.004   5.695  13.017 -1.7357  0.6241 -0.2546
17595TIP3    H274201   3.944   5.691  13.156 -1.2261 -0.2070 -0.0509
17596TIP3   OH274202   2.584   6.446  15.012 -0.7839 -0.2687  0.3085
17596TIP3    H174203   2.638   6.370  14.991 -0.0878  0.3002  0.0127
17596TIP3    H274204   2.634   6.521  14.980 -1.9259  0.2480 -0.3275
17597TIP3   OH274205   2.353   4.859   5.921 -0.3503  0.1571  0.6023
17597TIP3    H174206   2.334   4.924   5.853  0.0740 -0.8824 -0.5624
17597TIP3    H274207   2.278   4.862   5.980  0.6487  3.2877  1.9160
17598TIP3   OH274208   2.278   2.371   0.832  0.5304 -0.1190 -0.7147
17598TIP3    H174209   2.258   2.462   0.810  1.2043  0.0164 -0.8122
17598TIP3    H274210   2.223   2.319   0.773  1.1845  0.2362 -1.6763
17599TIP3   OH274211   5.687   4.214   0.469 -0.2037 -0.0432 -0.0107
17599TIP3    H174212   5.708   4.267   0.545  1.9465  0.5679 -0.9552
17599TIP3    H274213   5.725   4.128   0.487 -2.5524 -0.9793  0.9489
17600TIP3   OH274214   5.655   6.197   4.605 -0.4467 -0.0343 -0.1613
17600TIP3    H174215   5.713   6.270   4.584 -0.7831  1.1877  2.6901
17600TIP3    H274216   5.603   6.228   4.679 -0.6416 -3.1521  1.1615
17601TIP3   OH274217   3.212   3.188  13.312 -0.1390 -0.2790  0.8252
17601TIP3    H174218   3.290   3.243  13.311  1.4869 -2.4384  1.4310
17601TIP3    H274219   3.163   3.218  13.389 -0.3278  1.5530  0.0497
17602TIP3   OH274220   6.346   2.457   3.722  0.2953 -0.3300  0.2562
17602TIP3    H174221   6.299   2.390   3.672  1.3675 -1.6962  1.0157
17602TIP3    H274222   6.394   2.507   3.656  0.0251 -0.7616 -0.2755
17603TIP3   OH274223   1.549   3.430   5.293 -1.1351  0.0095  0.2545
17603TIP3    H174224   1.528   3.348   5.337 -1.6042  0.3262  0.6361
17603TIP3    H274225   1.616   3.471   5.347 -0.1973 -0.5617 -0.4552
17604TIP3   OH274226   3.143   5.719   4.595  0.0252  0.3750 -0.2885
17604TIP3    H174227   3.104   5.806   4.585  0.5617  0.7559  0.7866
17604TIP3    H274228   3.180   5.720   4.683  0.8901 -0.6025 -0.6313
17605TIP3   OH274229   0.702   3.919  11.144 -0.1401  0.1706  0.1564
17605TIP3    H174230   0.680   3.931  11.236  0.0099  0.4282  0.1615
17605TIP3    H274231   0.619   3.933  11.098 -0.1088  0.5744  0.2156
17606TIP3   OH274232   5.977   2.387   3.783  0.4417 -0.2411 -0.1584
17606TIP3    H174233   6.015   2.453   3.841  0.8282  0.3846 -1.0927
17606TIP3    H274234   5.890   2.420   3.762 -0.3416 -1.2603  1.3096
17607TIP3   OH274235   3.248   0.145   1.154 -0.2792 -0.1098 -0.2762
17607TIP3    H174236   3.193   0.218   1.182 -0.1779  0.5345 -1.6926
17607TIP3    H274237   3.330   0.158   1.200 -0.7997 -0.2477  0.7148
17608TIP3   OH274238   6.043   5.822   0.565 -0.0776 -0.0362  0.0269
17608TIP3    H174239   5.974   5.852   0.506  0.3534  1.1497  0.0899
17608TIP3    H274240   6.124   5.835   0.516  0.1825 -0.3816  0.3586
17609TIP3   OH274241   4.741   2.023   5.538 -0.5520 -0.2096  0.0883
17609TIP3    H174242   4.750   2.097   5.596  2.3617  2.0331 -2.8409
17609TIP3    H274243   4.669   2.047   5.479  0.2286  0.2270 -0.7064
17610TIP3   OH274244   0.724   5.176  15.507 -0.1902 -0.2026 -0.1301
17610TIP3    H174245   0.728   5.219  15.421  0.9248 -1.0757 -0.5514
17610TIP3    H274246   0.696   5.086  15.487 -0.7889 -0.1714  0.5304
17611TIP3   OH274247   2.694   4.997   0.402 -0.5117 -0.4925 -0.4918
17611TIP3    H174248   2.642   4.917   0.411  0.4080 -1.3983 -2.6412
17611TIP3    H274249   2.751   4.981   0.327  1.3537  1.3000  0.4299
17612TIP3   OH274250   1.489   4.137  13.696 -0.0478 -0.0019 -0.1759
17612TIP3    H174251   1.492   4.083  13.775  0.8345 -1.7100 -1.3285
17612TIP3    H274252   1.581   4.147  13.670 -0.4055 -1.2128 -2.0910
17613TIP3   OH274253   5.982   0.830  14.754 -0.0319  0.3458  0.1892
17613TIP3    H174254   6.029   0.814  14.672  0.7583 -0.4083  0.7655
17613TIP3    H274255   6.043   0.801  14.823 -1.2165 -0.3618  0.9831
17614TIP3   OH274256   3.528   0.372  15.678  0.0625  0.0896  0.2450
17614TIP3    H174257   3.610   0.356  15.725  0.5961 -1.5538 -1.1258
17614TIP3    H274258   3.516   0.293  15.624 -2.5217  0.2192  0.5304
17615TIP3   OH274259   6.589   5.625  13.543 -0.2561 -0.3158  0.1582
17615TIP3    H174260   6.574   5.642  13.636 -1.6284 -0.5879  0.0051
17615TIP3    H274261   6.601   5.530  13.538  0.6444 -0.2115  0.1472
17616TIP3   OH274262   4.996   1.632   5.475  0.3944 -0.2137  0.0129
17616TIP3    H174263   5.063   1.565   5.492  0.4551 -0.0095  0.6104
17616TIP3    H274264   4.949   1.640   5.558  1.0756  1.2572  0.2883
17617TIP3   OH274265   2.077   2.854   2.024  0.4839  0.0718 -0.5770
17617TIP3    H174266   2.105   2.918   2.090 -0.8999 -0.1502  0.2655
17617TIP3    H274267   2.142   2.861   1.955  2.8964 -0.7377  1.4545
17618TIP3   OH274268   0.041   5.079  16.679  0.7822 -0.1784 -0.4177
17618TIP3    H174269   0.049   5.082  16.584  0.7091 -0.0460 -0.4190
17618TIP3    H274270   0.057   5.169  16.707 -1.0918  0.2119 -0.4493
17619TIP3   OH274271   0.431   2.951   5.404 -0.0462  0.2335  0.0715
17619TIP3    H174272   0.447   2.907   5.320 -0.1808  2.4410 -1.2002
17619TIP3    H274273   0.460   2.888   5.470  0.1700 -1.5451 -1.6229
17620TIP3   OH274274   3.874   0.971   1.095  0.2311 -0.3485 -0.2143
17620TIP3    H174275   3.944   0.980   1.160 -0.3920  2.8598  0.1549
17620TIP3    H274276   3.802   0.931   1.143 -0.2995  2.1731  1.2778
17621TIP3   OH274277   5.388   6.635   2.876 -0.1609 -0.4027 -0.3625
17621TIP3    H174278   5.376   6.544   2.903 -0.8739 -0.3639 -0.5128
17621TIP3    H274279   5.314   6.681   2.916  0.9828  0.3881  0.9140
17622TIP3   OH274280   5.396   4.491  15.004 -0.4105 -0.0227  0.2229
17622TIP3    H174281   5.315   4.505  15.054 -0.8502  1.2511 -0.7884
17622TIP3    H274282   5.419   4.400  15.021 -0.7867  0.2128  2.3833
17623TIP3   OH274283   4.407   1.308  13.272 -0.1043 -0.1793 -0.5713
17623TIP3    H174284   4.363   1.269  13.196 -1.5305 -1.9502  1.0423
17623TIP3    H274285   4.336   1.346  13.324  0.8396  1.0074 -0.1252
17624TIP3   OH274286   6.054   5.828   3.901  0.4474  0.2193 -0.0167
17624TIP3    H174287   6.029   5.873   3.982  0.2325  0.5873 -0.2855
17624TIP3    H274288   6.027   5.738   3.915  0.6430  0.2260  0.4241
17625TIP3   OH274289   3.811   5.165   0.290 -0.3994  0.0604  0.3382
17625TIP3    H174290   3.768   5.147   0.374 -0.3483 -0.4795  0.2517
17625TIP3    H274291   3.796   5.086   0.238  0.3432  0.0310  0.1569
17626TIP3   OH274292   4.180   1.765   2.762  0.2486 -0.0861  0.2934
17626TIP3    H174293   4.102   1.713   2.784  1.5477 -2.1908  0.2041
17626TIP3    H274294   4.156   1.811   2.681 -1.6972  1.2201  1.5407
17627TIP3   OH274295   2.486   3.641   1.460  0.7406 -0.2339  0.9563
17627TIP3    H174296   2.570   3.685   1.445  0.0378  0.7202 -0.4296
17627TIP3    H274297   2.483   3.628   1.555  1.7196  1.2496  1.2368
17628TIP3   OH274298   5.190   3.019   4.526  0.5581 -0.1436  0.7109
17628TIP3    H174299   5.211   2.929   4.501 -2.0833 -1.0876  1.4518
17628TIP3    H274300   5.121   3.045   4.465 -0.1233  0.6059  1.7635
17629TIP3   OH274301   4.055   5.438   3.391  0.1852  0.2331  0.4735
17629TIP3    H174302   3.982   5.391   3.352  0.5341  0.7574 -0.8711
17629TIP3    H274303   4.027   5.457   3.480 -1.0374 -0.1428  0.1841
17630TIP3   OH274304   4.591   1.803   4.868  0.4871  0.1866 -0.0772
17630TIP3    H174305   4.542   1.838   4.794 -1.2065 -0.5514  0.6356
17630TIP3    H274306   4.612   1.714   4.843 -1.5747 -0.6571  0.9025
17631TIP3   OH274307   5.044   2.920  13.287 -0.1082 -0.2385 -0.4500
17631TIP3    H174308   5.108   2.878  13.346  1.3031  0.1967 -1.5982
17631TIP3    H274309   4.961   2.878  13.308  0.6885 -1.3695  0.6033
17632TIP3   OH274310   3.137   5.690  17.005 -0.2282  0.0388 -0.0608
17632TIP3    H174311   3.196   5.706  17.078 -0.2329 -1.4824  0.2882
17632TIP3    H274312   3.182   5.729  16.929  0.6252 -0.0008  0.4215
17633TIP3   OH274313   6.650   0.304  14.839 -0.1510  0.1459  0.2115
17633TIP3    H174314   6.713   0.274  14.772 -0.8292 -1.8843  0.3978
17633TIP3    H274315   6.582   0.236  14.840  0.0380 -0.1548  3.2385
17634TIP3   OH274316   5.121   0.176  16.180  0.0585  0.1303 -0.2398
17634TIP3    H174317   5.037   0.198  16.140  0.0546  1.4297  0.4361
17634TIP3    H274318   5.115   0.083  16.200 -0.1832 -0.4259 -2.6425
17635TIP3   OH274319   6.522   2.690  11.856  0.2963 -0.4957  0.5557
17635TIP3    H174320   6.464   2.743  11.910  0.0772 -2.4440  2.3681
17635TIP3    H274321   6.462   2.644  11.796  0.6158  2.5665 -2.4336
17636TIP3   OH274322   3.580   3.644   5.318 -0.8654  0.3573 -0.1585
17636TIP3    H174323   3.517   3.578   5.289  1.0292 -1.0119 -1.4962
17636TIP3    H274324   3.593   3.700   5.242  1.1525 -0.7915 -0.7376
17637TIP3   OH274325   6.253   5.795   2.819  0.6716  0.3029 -0.6726
17637TIP3    H174326   6.177   5.854   2.819  1.1825  1.1206  1.9838
17637TIP3    H274327   6.318   5.840   2.766  0.4237  1.2617 -0.1919
17638TIP3   OH274328   4.036   0.852   2.744  0.1710 -0.4078  0.1060
17638TIP3    H174329   3.961   0.893   2.701  1.4574  0.9870 -0.9384
17638TIP3    H274330   4.031   0.881   2.835 -0.7675 -0.6851  0.1554
17639TIP3   OH274331   6.127   5.765   4.713  0.7585 -0.0793 -0.5866
17639TIP3    H174332   6.214   5.781   4.748  0.4302  0.5963 -0.0639
17639TIP3    H274333   6.097   5.686   4.757  0.3391  0.7746  0.7089
17640TIP3   OH274334   6.779   6.043  11.989  0.0187  0.4283 -0.0685
17640TIP3    H174335   6.686   6.018  11.985 -0.0580  0.7786 -0.5397
17640TIP3    H274336   6.779   6.127  12.034 -0.0992  1.3729 -1.7264
17641TIP3   OH274337   3.375   3.031  15.402 -0.2174  0.4104  0.0373
17641TIP3    H174338   3.406   3.066  15.485  1.8839 -0.8686 -0.1421
17641TIP3    H274339   3.432   3.071  15.336  0.7473 -1.5185 -0.3730
17642TIP3   OH274340   4.889   4.545  11.521  0.4631 -0.0423  0.3719
17642TIP3    H174341   4.917   4.614  11.580  1.5685  1.9944 -2.2892
17642TIP3    H274342   4.968   4.493  11.505  0.7216  0.7034 -0.8707
17643TIP3   OH274343   2.901   2.203   5.198 -0.6516  0.5788 -0.6647
17643TIP3    H174344   2.822   2.150   5.187 -0.5523  0.6200 -1.7429
17643TIP3    H274345   2.879   2.265   5.266 -0.8322 -0.7219  0.5024
17644TIP3   OH274346   4.797   0.917  11.092 -0.0124 -0.0376  0.0942
17644TIP3    H174347   4.756   0.996  11.125  1.0697  0.9014 -0.7461
17644TIP3    H274348   4.841   0.878  11.167 -0.8524 -0.0535  0.5857
17645TIP3   OH274349   2.765   4.839   6.468 -0.5563  0.9006  0.2232
17645TIP3    H174350   2.678   4.802   6.485 -0.1644 -1.4118 -2.1648
17645TIP3    H274351   2.825   4.778   6.511 -0.0093  0.2610 -1.3733
17646TIP3   OH274352   3.929   2.010   0.308  0.8038 -1.1924  0.0801
17646TIP3    H174353   3.856   1.948   0.296  1.3853 -1.7094 -0.9747
17646TIP3    H274354   3.941   2.049   0.221  0.2787  0.6286  0.7843
17647TIP3   OH274355   1.001   3.432   3.840  0.2148  0.1525  0.1264
17647TIP3    H174356   1.031   3.405   3.926 -0.5095 -2.3855 -0.3365
17647TIP3    H274357   0.917   3.474   3.856  1.2494  2.0693  0.8472
17648TIP3   OH274358   0.736   1.295  11.975  0.5270  0.2575  0.0155
17648TIP3    H174359   0.652   1.253  11.992  1.3434 -1.2651  0.4769
17648TIP3    H274360   0.758   1.340  12.057  0.0188  0.9523 -0.2196
17649TIP3   OH274361   3.540   1.329   0.656 -0.0786 -0.1105  0.0554
17649TIP3    H174362   3.524   1.306   0.747 -1.7689  2.1519  0.4391
17649TIP3    H274363   3.624   1.375   0.657  0.5301 -1.2182  0.2365
17650TIP3   OH274364   4.307   5.578   0.605  0.0873 -0.8234  0.6528
17650TIP3    H174365   4.335   5.658   0.562 -1.9360  0.0361  0.8147
17650TIP3    H274366   4.365   5.510   0.570  0.8710  0.4379 -0.6132
17651TIP3   OH274367   3.805   1.938  10.546 -0.1163 -0.5215 -0.6964
17651TIP3    H174368   3.730   1.955  10.603 -1.5891 -1.5517 -2.2298
17651TIP3    H274369   3.837   1.852  10.574 -0.8796 -1.0569 -1.4062
17652TIP3   OH274370   2.331   2.493  11.615  0.0856 -0.4646  0.2473
17652TIP3    H174371   2.268   2.469  11.548 -0.7595  0.7873  0.5693
17652TIP3    H274372   2.322   2.426  11.683 -1.4031  0.0846  0.6107
17653TIP3   OH274373   3.629   6.699  14.277  0.4054  0.1075  0.3549
17653TIP3    H174374   3.614   6.620  14.226 -2.0087  0.5018  0.3251
17653TIP3    H274375   3.719   6.724  14.257  0.2961 -1.0250 -1.9206
17654TIP3   OH274376   0.602   6.731   0.904  0.3714  0.0441  0.4864
17654TIP3    H174377   0.691   6.734   0.939  0.5832  0.7808 -0.0938
17654TIP3    H274378   0.599   6.803   0.841 -0.4266 -0.4062  0.0030
17655TIP3   OH274379   6.141   0.909   2.652 -0.0225 -0.1038  0.3337
17655TIP3    H174380   6.048   0.932   2.658 -0.1018  0.5238 -2.0580
17655TIP3    H274381   6.186   0.978   2.701 -0.7310  0.7588 -0.1954
17656TIP3   OH274382   0.103   4.325   5.340  0.4339  0.0675  0.1405
17656TIP3    H174383   0.072   4.397   5.393 -0.5339 -1.9667  2.5522
17656TIP3    H274384   0.178   4.289   5.388  0.2295 -1.1665 -0.4052
17657TIP3   OH274385   3.247   0.654  13.658  0.2653  0.1586 -0.1622
17657TIP3    H174386   3.301   0.644  13.736 -0.2498  2.3616  0.5463
17657TIP3    H274387   3.158   0.634  13.688  0.4204 -2.2406 -1.0357
17658TIP3   OH274388   3.321   3.755   0.273 -0.5722  0.0515  0.3609
17658TIP3    H174389   3.229   3.747   0.296 -0.7864  2.5155  0.7080
17658TIP3    H274390   3.356   3.818   0.337  0.8089  0.7830 -1.0459
17659TIP3   OH274391   0.869   2.187  12.242  0.0198 -0.7996 -0.2142
17659TIP3    H174392   0.828   2.101  12.233 -2.1539  0.1032  0.4764
17659TIP3    H274393   0.949   2.171  12.292  2.1717 -3.0421 -3.8883
17660TIP3   OH274394   2.307   6.651  16.290  0.2764 -0.4814  0.1884
17660TIP3    H174395   2.391   6.685  16.259  0.3862 -1.6274 -0.7966
17660TIP3    H274396   2.243   6.688  16.229 -0.0680  1.0651  1.4246
17661TIP3   OH274397   0.676   0.139  13.300 -0.0647  0.2351  0.0516
17661TIP3    H174398   0.615   0.138  13.226  0.2342  1.7005 -0.2535
17661TIP3    H274399   0.642   0.208  13.358  1.1956  0.9896 -0.0661
17662TIP3   OH274400   3.002   4.268  10.709  0.2271  0.0550 -0.0909
17662TIP3    H174401   3.009   4.212  10.786  0.9648  0.2454 -0.0101
17662TIP3    H274402   3.091   4.300  10.695 -0.0124  0.4732 -0.6837
17663TIP3   OH274403   0.660   2.797   2.914 -0.2248 -0.2001  0.1924
17663TIP3    H174404   0.668   2.880   2.868 -0.4764 -0.5398 -0.4799
17663TIP3    H274405   0.723   2.739   2.870 -1.1809 -0.8140 -0.3912
17664TIP3   OH274406   1.776   3.543   4.958 -0.2600  0.2077  0.1786
17664TIP3    H174407   1.775   3.487   4.880  0.3662 -0.3323  0.5522
17664TIP3    H274408   1.691   3.529   4.999  0.2947 -1.3377  0.8641
17665TIP3   OH274409   4.087   0.513   3.632 -0.2591 -0.4345 -0.3452
17665TIP3    H174410   4.025   0.563   3.685 -0.1769 -0.8731  0.1735
17665TIP3    H274411   4.125   0.577   3.573 -0.2444  0.0969  0.2330
17666TIP3   OH274412   1.984   6.451  15.590  0.4377  0.3380 -0.1493
17666TIP3    H174413   2.040   6.411  15.656  0.6314 -0.3926 -0.7481
17666TIP3    H274414   2.044   6.479  15.521  0.1079 -0.2764 -0.7046
17667TIP3   OH274415   3.071   1.884  13.040  0.1150 -0.3429  0.4646
17667TIP3    H174416   2.997   1.837  13.079  0.5596 -1.2340  0.2474
17667TIP3    H274417   3.148   1.840  13.075  0.5413  0.1205  0.1201
17668TIP3   OH274418   3.471   1.546   2.242  0.1872  0.0611 -0.0654
17668TIP3    H174419   3.524   1.505   2.174 -0.1450 -0.5930  0.0684
17668TIP3    H274420   3.402   1.482   2.261 -1.5879  1.4735 -1.3339
17669TIP3   OH274421   4.829   6.540   3.874 -0.0936 -0.1202 -0.7892
17669TIP3    H174422   4.840   6.484   3.797  1.2468 -0.4913 -0.3554
17669TIP3    H274423   4.896   6.608   3.864  0.6951 -0.6826  0.4612
17670TIP3   OH274424   5.240   2.426   3.712  0.1591  0.3805  0.1672
17670TIP3    H174425   5.315   2.404   3.767  0.3660  0.2143 -0.1812
17670TIP3    H274426   5.254   2.377   3.631 -0.9012 -0.5814  0.5234
17671TIP3   OH274427   1.407   1.546  13.496 -0.1615  0.4059 -0.0012
17671TIP3    H174428   1.417   1.640  13.485 -0.1545  0.4292  0.2029
17671TIP3    H274429   1.321   1.526  13.458 -0.0819  0.4653 -0.2117
17672TIP3   OH274430   6.319   3.647   1.005 -0.2396 -0.2207 -0.3921
17672TIP3    H174431   6.369   3.696   0.940 -1.5536  0.2509 -1.0963
17672TIP3    H274432   6.247   3.608   0.956 -3.2846  2.8941  1.1472
17673TIP3   OH274433   0.061   0.962  14.657  0.7968  0.2680  0.2232
17673TIP3    H174434   0.012   0.991  14.734 -0.1954 -0.6858 -0.0270
17673TIP3    H274435   0.072   1.041  14.605 -2.9865  0.1493 -1.0837
17674TIP3   OH274436   1.927   4.440  14.915 -0.0220 -0.1836 -0.0141
17674TIP3    H174437   1.855   4.499  14.938 -0.0869 -0.3098  0.1133
17674TIP3    H274438   1.918   4.426  14.821  0.8723  1.1700 -0.3291
17675TIP3   OH274439   2.588   1.865  16.443 -0.1936  0.2037  0.3170
17675TIP3    H174440   2.663   1.832  16.393  0.2938  0.4393  0.8829
17675TIP3    H274441   2.624   1.887  16.528 -1.4966 -2.6677  1.7324
17676TIP3   OH274442   4.725   1.927  14.874  0.5898  0.0257 -0.2219
17676TIP3    H174443   4.750   2.008  14.828 -0.6494  1.4815  1.5438
17676TIP3    H274444   4.808   1.891  14.905  1.2766 -0.0613 -2.0590
17677TIP3   OH274445   5.020   0.351  12.551 -0.0189 -0.3652 -0.3775
17677TIP3    H174446   5.063   0.277  12.596  0.9429  1.1760  1.3695
17677TIP3    H274447   4.994   0.315  12.467  1.1978 -2.4762  0.0665
17678TIP3   OH274448   5.147   1.568   4.460 -0.9012 -0.1303 -0.1555
17678TIP3    H174449   5.239   1.565   4.485 -0.7383  0.3794 -0.6727
17678TIP3    H274450   5.109   1.634   4.518 -0.3060  1.8084 -1.8723
17679TIP3   OH274451   6.435   1.552   0.502 -0.4233  0.1492 -0.2816
17679TIP3    H174452   6.369   1.617   0.526 -0.6346  0.0361 -0.5482
17679TIP3    H274453   6.464   1.515   0.585 -0.0715  0.8034 -0.1023
17680TIP3   OH274454   1.408   1.668  12.774 -0.6524 -0.0196 -0.3143
17680TIP3    H174455   1.365   1.637  12.694 -0.3019  0.4729 -0.6996
17680TIP3    H274456   1.473   1.732  12.743  0.2152 -0.6001  0.2678
17681TIP3   OH274457   5.412   4.609   0.020 -0.0260  0.6255 -0.5405
17681TIP3    H174458   5.466   4.651   0.087 -0.9418 -0.1844  0.7707
17681TIP3    H274459   5.373   4.681  -0.029  0.7035  1.2382 -0.2333
17682TIP3   OH274460   2.143   5.417   3.568 -0.2834 -0.4645  0.1092
17682TIP3    H174461   2.052   5.394   3.585 -0.1640 -0.8237  0.2569
17682TIP3    H274462   2.177   5.343   3.518  0.2178 -0.8074  0.9470
17683TIP3   OH274463   0.945   3.844  12.677 -0.0019  0.1866 -1.0724
17683TIP3    H174464   0.850   3.834  12.675 -0.3049  2.3692 -0.1795
17683TIP3    H274465   0.969   3.818  12.766 -0.1007  1.7865 -0.5465
17684TIP3   OH274466   2.052   2.496   1.045 -0.3790 -0.3410  0.0512
17684TIP3    H174467   2.114   2.450   1.102  2.3724  3.3658  0.3747
17684TIP3    H274468   2.074   2.465   0.957  0.8421 -0.2947  0.3227
17685TIP3   OH274469   1.702   1.526   2.095  0.3735 -0.6946  0.6183
17685TIP3    H174470   1.613   1.507   2.125  0.4771  1.0671  2.2413
17685TIP3    H274471   1.727   1.449   2.043 -2.3321 -0.9154 -0.5067
17686TIP3   OH274472   0.791   6.754  16.219 -0.3706 -0.6029 -0.2905
17686TIP3    H174473   0.712   6.702  16.234 -0.1119 -0.3195  2.5668
17686TIP3    H274474   0.845   6.739  16.297  0.8468  1.9463 -0.5478
17687TIP3   OH274475   0.864   2.316   4.901  1.4181 -0.4525  0.0662
17687TIP3    H174476   0.884   2.282   4.988  1.2241 -1.2158 -0.1832
17687TIP3    H274477   0.818   2.398   4.918  1.7468 -0.3859  0.6758
17688TIP3   OH274478   0.969   2.772  12.691  0.0439  0.3494  0.2541
17688TIP3    H174479   0.897   2.816  12.736 -1.3368  0.3834 -1.8528
17688TIP3    H274480   1.029   2.843  12.667 -0.9151  0.8163 -0.8924
17689TIP3   OH274481   3.157   1.686   3.041  0.3278  0.4003 -0.2691
17689TIP3    H174482   3.251   1.703   3.050  0.2047  1.4832 -0.8783
17689TIP3    H274483   3.117   1.735   3.112  0.1715  0.5813 -0.4788
17690TIP3   OH274484   4.920   2.868  14.900 -0.7070 -0.2809 -0.2269
17690TIP3    H174485   4.957   2.780  14.894 -0.7335 -0.3432  0.4191
17690TIP3    H274486   4.854   2.871  14.832 -1.6978 -1.2598  0.6468
17691TIP3   OH274487   2.121   2.299  12.382 -0.5274  0.4457 -0.0265
17691TIP3    H174488   2.051   2.363  12.399 -0.7442  0.2145 -0.0511
17691TIP3    H274489   2.150   2.319  12.293 -2.0740 -0.8749 -0.8785
17692TIP3   OH274490   1.275   2.436  11.309  1.0745  0.3827 -0.5233
17692TIP3    H174491   1.241   2.353  11.275 -0.0387  0.9405 -0.8073
17692TIP3    H274492   1.199   2.493  11.315  1.6175  1.0078  0.8296
17693TIP3   OH274493   3.398   0.284   6.329 -0.4429  0.0503  0.6361
17693TIP3    H174494   3.448   0.352   6.375  1.8759  0.9729 -2.8943
17693TIP3    H274495   3.318   0.329   6.300  0.7230  1.1599 -1.0118
17694TIP3   OH274496   5.478   0.385   3.484  0.6969 -0.2011 -0.3940
17694TIP3    H174497   5.388   0.383   3.452  0.1251  3.7909  0.4284
17694TIP3    H274498   5.518   0.459   3.439  3.3707 -1.3259 -0.0786
17695TIP3   OH274499   5.643   1.675  12.742 -0.2535 -0.4455  0.2640
17695TIP3    H174500   5.590   1.754  12.736 -1.2338 -1.1630 -1.0222
17695TIP3    H274501   5.660   1.650  12.651  0.6965 -1.2976  0.6452
17696TIP3   OH274502   1.257   4.085   2.111  0.0656  0.2038 -0.0040
17696TIP3    H174503   1.188   4.018   2.117  1.3243 -1.0786  1.0223
17696TIP3    H274504   1.253   4.130   2.195  0.2875  0.3042 -0.0466
17697TIP3   OH274505   6.537   1.309   0.313  0.1683 -0.5184 -0.1815
17697TIP3    H174506   6.449   1.310   0.351  0.0600  3.6323 -0.1559
17697TIP3    H274507   6.523   1.297   0.220 -0.6788  1.7607 -0.4087
17698TIP3   OH274508   2.997   6.312   0.539  0.1794 -0.8209 -0.0038
17698TIP3    H174509   2.972   6.240   0.482  1.1435 -1.0839 -0.1079
17698TIP3    H274510   3.091   6.300   0.553  0.3691  0.4325 -0.0666
17699TIP3   OH274511   4.567   2.379  14.630  0.3790 -0.1994 -0.1693
17699TIP3    H174512   4.609   2.330  14.559  1.6012 -0.7909  0.9166
17699TIP3    H274513   4.499   2.320  14.663  0.5831 -0.3990 -0.1013
17700TIP3   OH274514   2.826   1.377  12.418  0.3274  0.5533  0.3300
17700TIP3    H174515   2.811   1.455  12.364  0.3782  2.5360  2.9436
17700TIP3    H274516   2.757   1.380  12.484  0.3992 -1.6086  0.5618
17701TIP3   OH274517   5.003   4.529  14.182 -0.3799  0.3716 -0.2509
17701TIP3    H174518   4.933   4.594  14.187 -0.8887 -0.2388  1.6327
17701TIP3    H274519   5.009   4.506  14.090 -1.5241  1.6574 -0.6741
17702TIP3   OH274520   1.665   0.826   0.253 -0.6111 -0.4687 -0.6247
17702TIP3    H174521   1.666   0.862   0.164 -1.9162  0.3147 -0.3435
17702TIP3    H274522   1.711   0.892   0.305 -3.6172  1.2768  0.0193
17703TIP3   OH274523   2.690   6.652  14.847  0.4067 -0.3696 -0.0655
17703TIP3    H174524   2.784   6.642  14.863  0.7367  1.4196 -0.6595
17703TIP3    H274525   2.673   6.745  14.861 -1.1724 -0.5559 -0.5319
17704TIP3   OH274526   0.728   6.179  14.581 -0.4700  0.3100 -0.0113
17704TIP3    H174527   0.720   6.084  14.591 -0.0434  0.2392 -0.2957
17704TIP3    H274528   0.766   6.191  14.493  1.3958  0.6265  0.7736
17705TIP3   OH274529   1.663   0.237  16.871 -0.0766 -0.0279  0.3521
17705TIP3    H174530   1.712   0.279  16.941 -0.5636  0.0735  0.6423
17705TIP3    H274531   1.729   0.200  16.813  0.3316 -0.5448  1.1325
17706TIP3   OH274532   2.111   3.365  16.006 -0.1185  0.3412  0.2444
17706TIP3    H174533   2.083   3.275  15.993 -1.2128  0.3788  2.0763
17706TIP3    H274534   2.196   3.370  15.962 -1.0706 -0.9151 -1.8814
17707TIP3   OH274535   1.876   3.582   2.014 -0.0483 -0.4368  0.4131
17707TIP3    H174536   1.795   3.547   1.978  0.3810 -0.6005 -0.4031
17707TIP3    H274537   1.858   3.591   2.108 -1.6922  1.4124 -0.0088
17708TIP3   OH274538   2.292   5.585  14.865 -0.1897  0.6117 -0.2051
17708TIP3    H174539   2.264   5.676  14.855  0.6794  1.0525  1.0920
17708TIP3    H274540   2.364   5.574  14.803 -0.7762  0.5758 -0.8903
17709TIP3   OH274541   0.903   3.627  13.753  0.1954 -0.1882  0.3233
17709TIP3    H174542   0.993   3.612  13.782 -0.1621  1.0315  2.2632
17709TIP3    H274543   0.888   3.561  13.686  2.4447 -0.5743  0.1130
17710TIP3   OH274544   2.889   6.085   5.232  0.8313  0.2045 -0.6405
17710TIP3    H174545   2.920   6.108   5.320 -2.4649 -0.9476  0.9767
17710TIP3    H274546   2.912   5.993   5.222  1.9322  0.5375 -1.4087
17711TIP3   OH274547   6.742   4.381  16.982  0.4713 -0.2821 -0.2963
17711TIP3    H174548   6.668   4.406  16.926  0.0017 -1.7463 -0.3592
17711TIP3    H274549   6.702   4.327  17.051  0.8807  2.1059  1.9794
17712TIP3   OH274550   4.254   3.028  13.531  0.4307 -0.8373 -0.4177
17712TIP3    H174551   4.338   3.036  13.576  1.1052  0.6838 -1.8259
17712TIP3    H274552   4.261   2.946  13.482  0.4185 -1.5468  0.7199
17713TIP3   OH274553   1.371   1.642  12.026 -0.1729 -0.0281  0.2778
17713TIP3    H174554   1.423   1.684  12.094  1.0114 -0.1229 -0.5397
17713TIP3    H274555   1.435   1.598  11.970 -1.2172 -1.0489 -0.1628
17714TIP3   OH274556   0.578   0.370   6.138 -0.8223  0.3268  0.0604
17714TIP3    H174557   0.575   0.443   6.077 -0.1905  1.7060  1.5970
17714TIP3    H274558   0.511   0.390   6.203 -1.4536 -1.0805 -0.1285
17715TIP3   OH274559   0.433   1.352   2.888  0.8396  0.1472 -0.2416
17715TIP3    H174560   0.471   1.299   2.818  0.5294  2.4159 -2.2397
17715TIP3    H274561   0.341   1.363   2.862  0.6102  0.6882  0.7602
17716TIP3   OH274562   6.165   1.937  11.745 -0.0707 -0.4227 -0.6067
17716TIP3    H174563   6.181   1.951  11.652  1.8490 -0.9047 -0.3854
17716TIP3    H274564   6.177   1.843  11.757  0.5313 -0.2413  0.2694
17717TIP3   OH274565   2.071   3.431   0.171 -0.3792 -0.4291 -0.3601
17717TIP3    H174566   1.984   3.468   0.185 -0.9015 -1.8368  0.2411
17717TIP3    H274567   2.119   3.449   0.252 -0.7343 -1.3060  0.0568
17718TIP3   OH274568   4.203   1.897   0.734  0.2707  0.2766 -0.2302
17718TIP3    H174569   4.221   1.964   0.668  0.4933  0.9318  0.4782
17718TIP3    H274570   4.289   1.874   0.768  0.4836 -2.1681 -2.1270
17719TIP3   OH274571   1.061   0.360  16.968 -0.2085  0.0451 -0.1291
17719TIP3    H174572   1.071   0.275  17.010 -0.0314  0.7443  1.3379
17719TIP3    H274573   1.141   0.408  16.992  0.7035 -0.0360 -2.6888
17720TIP3   OH274574   0.534   0.909  16.576 -0.1982  0.1434 -0.0489
17720TIP3    H174575   0.493   0.992  16.551 -2.4102 -0.7636  0.3345
17720TIP3    H274576   0.564   0.924  16.666 -0.0140  0.7178 -0.2033
17721TIP3   OH274577   6.635   4.937  12.263 -0.0549 -0.1277  0.0733
17721TIP3    H174578   6.668   5.016  12.305 -0.8118 -0.1098  0.6469
17721TIP3    H274579   6.593   4.968  12.183  0.2612 -0.0339 -0.0617
17722TIP3   OH274580   4.337   1.896  11.071 -0.3377  0.0448 -0.0051
17722TIP3    H174581   4.331   1.907  11.166  0.9249 -3.0698  0.5524
17722TIP3    H274582   4.424   1.927  11.048 -1.0403  1.8589 -0.4135
17723TIP3   OH274583   6.310   4.353   4.816  0.1445  0.2787 -0.0709
17723TIP3    H174584   6.363   4.334   4.894 -0.5461 -1.2156  0.0660
17723TIP3    H274585   6.307   4.269   4.768 -0.4041  0.8737 -1.1140
17724TIP3   OH274586   2.443   4.094   1.900  0.0060 -1.0549  0.5295
17724TIP3    H174587   2.376   4.047   1.951 -0.8872  1.2416  1.6457
17724TIP3    H274588   2.501   4.132   1.967  0.9321 -0.9008 -0.3419
17725TIP3   OH274589   4.854   0.978  13.955 -0.1923  0.2038  0.2106
17725TIP3    H174590   4.803   1.053  13.986 -1.4020 -1.2892  2.0607
17725TIP3    H274591   4.901   0.947  14.033 -1.9329 -2.6111  0.2890
17726TIP3   OH274592   5.015   0.499   1.409 -0.2611  0.3235 -0.0222
17726TIP3    H174593   4.964   0.419   1.400 -1.5751  1.1620 -0.4515
17726TIP3    H274594   4.950   0.566   1.433  1.0816  0.8745  2.4056
17727TIP3   OH274595   2.466   3.723   6.482  0.2654 -0.4721 -0.3526
17727TIP3    H174596   2.482   3.796   6.542 -0.4838 -0.5533 -0.0480
17727TIP3    H274597   2.510   3.648   6.523  0.1535 -0.4210 -0.1371
17728TIP3   OH274598   6.379   4.165   4.292  0.0431 -0.2754  0.1906
17728TIP3    H174599   6.338   4.247   4.264 -0.1465 -0.2073  0.6600
17728TIP3    H274600   6.461   4.161   4.243 -0.0713  0.0664 -0.0324
17729TIP3   OH274601   2.472   4.243  16.493  0.0258  0.1283  0.6811
17729TIP3    H174602   2.421   4.254  16.413 -0.8785 -1.1256  1.0522
17729TIP3    H274603   2.551   4.198  16.465 -0.2845 -0.3023  0.4864
17730TIP3   OH274604   6.134   2.833   2.896 -0.0089  0.3121 -0.2454
17730TIP3    H174605   6.064   2.861   2.837  0.0347 -0.2179 -0.5609
17730TIP3    H274606   6.197   2.789   2.839 -0.4850 -1.1738  0.3196
17731TIP3   OH274607   2.086   3.021  12.875 -0.4459  0.1972  0.2438
17731TIP3    H174608   2.167   3.071  12.864  1.0946 -2.0514  0.7210
17731TIP3    H274609   2.055   3.005  12.786 -0.1804  0.7635  0.0444
17732TIP3   OH274610   6.505   6.330  11.072 -0.0858 -0.0074  0.2561
17732TIP3    H174611   6.549   6.406  11.109  2.6836  0.0357 -2.6520
17732TIP3    H274612   6.449   6.367  11.003  1.9143 -0.4864 -1.7486
17733TIP3   OH274613   5.452   5.808  10.407  0.1686  0.0633 -0.3472
17733TIP3    H174614   5.449   5.825  10.313  0.9854  0.6661 -0.2755
17733TIP3    H274615   5.498   5.724  10.414  0.6212  0.2979 -0.4642
17734TIP3   OH274616   5.685   0.886  13.035  0.3411  0.2825  0.1537
17734TIP3    H174617   5.760   0.866  12.979  1.3523  1.8733  0.8886
17734TIP3    H274618   5.681   0.981  13.037  0.0622  0.2592  2.4242
17735TIP3   OH274619   4.458   3.961  14.237  0.8025 -0.1393  0.8596
17735TIP3    H174620   4.508   3.946  14.157 -1.4175  1.7179 -1.0662
17735TIP3    H274621   4.465   4.056  14.252 -0.8869 -0.0541  1.3363
17736TIP3   OH274622   2.615   4.371   2.412 -0.2744  0.4168 -0.7258
17736TIP3    H174623   2.616   4.342   2.321  3.0702 -0.0712 -0.6437
17736TIP3    H274624   2.616   4.467   2.407  1.3658  0.3834 -1.2567
17737TIP3   OH274625   5.611   0.692  13.615  0.5345  0.4776  0.7399
17737TIP3    H174626   5.594   0.627  13.547 -0.1676  0.0866  1.2759
17737TIP3    H274627   5.542   0.757  13.605  1.0368  0.9655  0.4206
17738TIP3   OH274628   3.268   1.355  12.302 -0.3085 -0.0543  0.5917
17738TIP3    H174629   3.336   1.391  12.360 -0.1581  0.1261  0.3032
17738TIP3    H274630   3.241   1.428  12.247  0.6956 -0.5964 -0.6689
17739TIP3   OH274631   2.402   1.009   0.542  0.2960  0.3260  0.1394
17739TIP3    H174632   2.372   1.096   0.516  1.0373  0.5973  0.1751
17739TIP3    H274633   2.426   1.019   0.634  2.5302  0.6916 -0.4199
17740TIP3   OH274634   3.420   2.563   1.200  0.2156  0.0542 -0.8772
17740TIP3    H174635   3.347   2.621   1.221  0.5643 -0.3434  1.6700
17740TIP3    H274636   3.498   2.617   1.215  0.5075 -0.6016  0.0149
17741TIP3   OH274637   3.959   0.834  15.758  0.2924  0.4968  0.6916
17741TIP3    H174638   3.885   0.848  15.698 -0.1060  0.8678  1.2626
17741TIP3    H274639   4.022   0.902  15.735 -0.2281  1.1921  1.2524
17742TIP3   OH274640   1.311   1.630  17.201  0.6927  0.1679 -0.6176
17742TIP3    H174641   1.351   1.580  17.272 -0.6178 -0.7174 -0.4871
17742TIP3    H274642   1.347   1.719  17.212 -2.0557  1.0439  3.3483
17743TIP3   OH274643   2.967   0.029   4.314 -0.1120  0.9135 -0.5604
17743TIP3    H174644   3.052   0.045   4.273 -0.3916  1.3869 -0.9755
17743TIP3    H274645   2.948  -0.063   4.293  1.4984 -0.0543  1.8350
17744TIP3   OH274646   2.295   3.622  15.568 -0.6042 -0.4364 -0.4157
17744TIP3    H174647   2.231   3.571  15.617  0.0552  0.2611  1.2337
17744TIP3    H274648   2.328   3.561  15.502 -1.0026 -1.6343  0.4492
17745TIP3   OH274649   1.499   2.323   5.304  0.1402  0.3758 -0.0665
17745TIP3    H174650   1.570   2.286   5.250 -0.3494 -1.2395  0.3312
17745TIP3    H274651   1.491   2.262   5.377  0.7845  2.4932  1.9016
17746TIP3   OH274652   0.068   4.048   2.212  0.0500  0.1923  0.3468
17746TIP3    H174653   0.102   4.085   2.131  1.3153  1.9998  1.6111
17746TIP3    H274654   0.091   4.112   2.279 -0.9405 -1.2305  2.1496
17747TIP3   OH274655   2.351   5.179   3.822  0.7798 -0.6452  0.5387
17747TIP3    H174656   2.365   5.265   3.783  1.1114 -0.9789 -0.0926
17747TIP3    H274657   2.341   5.120   3.747 -0.5737 -0.9768  0.9519
17748TIP3   OH274658   6.600   0.209   1.493 -0.2184  0.3453  0.2769
17748TIP3    H174659   6.625   0.185   1.583 -2.9142 -3.5428  0.2167
17748TIP3    H274660   6.682   0.201   1.443  1.1625  1.7702  2.1716
17749TIP3   OH274661   4.496   3.327   4.568  0.1884  0.3476  0.1291
17749TIP3    H174662   4.429   3.298   4.506  0.9402  1.5518 -1.3047
17749TIP3    H274663   4.492   3.423   4.565  0.7366  0.4386  1.4403
17750TIP3   OH274664   2.327   0.317   1.360 -0.5164 -0.0905  0.4646
17750TIP3    H174665   2.412   0.273   1.368 -1.1182 -1.6235 -1.0347
17750TIP3    H274666   2.279   0.291   1.438  0.4324  0.9680  1.4422
17751TIP3   OH274667   3.040   5.089   1.381  0.6318  0.1802 -0.2103
17751TIP3    H174668   2.977   5.055   1.317  0.8869  4.1006 -2.9734
17751TIP3    H274669   2.990   5.154   1.431  1.1145 -0.9630  1.8417
17752TIP3   OH274670   3.118   0.645  16.894 -0.0962 -0.1490 -0.2735
17752TIP3    H174671   3.117   0.648  16.990 -1.5975 -1.0054 -0.2310
17752TIP3    H274672   3.167   0.722  16.869 -0.5008  0.6312  1.1853
17753TIP3   OH274673   6.058   1.233  10.893  0.6800 -0.6235 -0.0704
17753TIP3    H174674   6.110   1.193  10.963 -1.1532 -1.5070  0.8649
17753TIP3    H274675   6.033   1.159  10.837 -1.2547 -0.5902  0.6730
17754TIP3   OH274676   5.623   2.988   5.711  0.1273 -0.7955  0.1876
17754TIP3    H174677   5.677   2.909   5.706  0.3547 -0.6573  0.4460
17754TIP3    H274678   5.535   2.955   5.726  0.2228 -1.0010  0.3072
17755TIP3   OH274679   0.844   2.035  10.372  0.2394  0.3119 -0.3252
17755TIP3    H174680   0.884   2.122  10.363 -0.5224  0.8700  1.2739
17755TIP3    H274681   0.782   2.030  10.300  0.8119  0.7803 -0.8660
17756TIP3   OH274682   4.362   3.806  14.606  0.5815  0.2417 -0.2432
17756TIP3    H174683   4.418   3.792  14.529 -0.2501 -1.3605 -0.5920
17756TIP3    H274684   4.392   3.741  14.670  0.1260  0.4139  0.1509
17757TIP3   OH274685   2.947   6.095   4.893 -0.1980  0.1210  0.2353
17757TIP3    H174686   2.859   6.121   4.922 -0.0103 -1.1894  2.1943
17757TIP3    H274687   2.996   6.177   4.887 -1.0350  0.6997  1.0005
17758TIP3   OH274688   1.364   4.563  15.764  0.1836  0.2995 -0.3323
17758TIP3    H174689   1.439   4.613  15.799  0.8561 -0.3491 -0.8274
17758TIP3    H274690   1.314   4.538  15.842  0.1446  1.2372 -0.0325
17759TIP3   OH274691   6.116   6.753  17.089 -0.6401 -0.3123 -0.0638
17759TIP3    H174692   6.174   6.691  17.044 -0.2153 -0.7782  1.1013
17759TIP3    H274693   6.032   6.744  17.044 -0.4351 -1.3295 -0.2679
17760TIP3   OH274694   3.699   4.833   2.215 -0.3016 -0.0030 -0.3390
17760TIP3    H174695   3.705   4.893   2.290 -0.7848 -0.1819 -0.1578
17760TIP3    H274696   3.790   4.810   2.196 -0.1943 -0.1937  0.3875
17761TIP3   OH274697   3.002   0.073  16.444 -0.7045 -0.2086 -0.2062
17761TIP3    H174698   2.994  -0.019  16.469 -0.7745  0.4088  2.2759
17761TIP3    H274699   3.096   0.092  16.453 -0.3873 -0.4367 -2.4631
17762TIP3   OH274700   5.452   1.159   5.150  0.8681  0.6461 -0.1584
17762TIP3    H174701   5.365   1.161   5.190  0.3155  0.1590 -1.3033
17762TIP3    H274702   5.473   1.066   5.141  1.5461  0.7622  0.1895
17763TIP3   OH274703   4.323   6.170  17.143 -0.2111  0.1190 -0.4955
17763TIP3    H174704   4.284   6.199  17.226  0.1737  0.3001 -0.3784
17763TIP3    H274705   4.352   6.250  17.101  3.2480 -0.1811  1.0166
17764TIP3   OH274706   1.736   3.982   4.657 -0.0503 -0.0731 -0.2196
17764TIP3    H174707   1.765   4.069   4.630  1.1911 -0.1894  0.6559
17764TIP3    H274708   1.815   3.927   4.649 -0.1519 -0.5473  1.6288
17765TIP3   OH274709   0.648   3.139  14.339  0.4992 -0.4063 -0.1890
17765TIP3    H174710   0.649   3.208  14.272 -1.0504 -1.9420 -1.9179
17765TIP3    H274711   0.620   3.061  14.292  2.4531 -2.3369  1.6244
17766TIP3   OH274712   2.254   2.053  11.587  0.5776 -0.0630 -0.4465
17766TIP3    H174713   2.300   1.970  11.577 -0.3021 -0.7275  0.8057
17766TIP3    H274714   2.300   2.113  11.528  1.0217 -1.5017 -1.6253
17767TIP3   OH274715   6.015   0.737  11.458 -0.2713  0.0753 -0.1578
17767TIP3    H174716   6.015   0.787  11.540 -0.7843  0.2605 -0.2709
17767TIP3    H274717   6.036   0.803  11.391  1.1825 -0.2554 -0.0772
17768TIP3   OH274718   5.714   4.359  12.455 -0.5822  0.3453  0.0538
17768TIP3    H174719   5.781   4.291  12.457 -1.8436 -0.9912 -0.9668
17768TIP3    H274720   5.651   4.334  12.522 -1.2592  0.2592 -0.5970
17769TIP3   OH274721   5.079   0.957  14.370 -0.4395 -0.0180  0.2957
17769TIP3    H174722   5.143   0.890  14.395 -0.9036 -1.2341 -1.6205
17769TIP3    H274723   5.038   0.982  14.453  1.7401  0.0500  1.4485
17770TIP3   OH274724   2.816   4.373  12.591  0.0924 -0.1664 -0.2769
17770TIP3    H174725   2.754   4.432  12.634  0.2621  0.6635 -1.1299
17770TIP3    H274726   2.899   4.421  12.591  0.9781 -1.6079  1.5969
17771TIP3   OH274727   1.480   2.459   0.947  0.5765 -0.3293 -0.3860
17771TIP3    H174728   1.526   2.436   0.867 -1.4562 -0.1053 -1.6849
17771TIP3    H274729   1.421   2.386   0.963 -1.0223  0.8134 -0.7106
17772TIP3   OH274730   4.393   6.628  10.268  0.5226  0.0114 -0.1733
17772TIP3    H174731   4.324   6.652  10.330  2.5146  0.6576  1.9624
17772TIP3    H274732   4.375   6.680  10.190 -1.5831 -0.1385  0.1519
17773TIP3   OH274733   1.584   6.444  15.918 -0.8784  0.3405  0.1000
17773TIP3    H174734   1.649   6.389  15.876 -1.6032  0.8769 -1.8444
17773TIP3    H274735   1.544   6.388  15.984 -0.7188 -1.0742 -0.9460
17774TIP3   OH274736   5.359   4.674  16.137  0.2495 -0.1379 -0.6379
17774TIP3    H174737   5.430   4.633  16.185 -1.1841 -1.6616  0.2791
17774TIP3    H274738   5.288   4.610  16.138 -1.1328  1.2800 -1.5698
17775TIP3   OH274739   6.185   2.402   0.670 -0.4579 -0.7948  0.2350
17775TIP3    H174740   6.117   2.336   0.655 -2.2380  1.2623 -1.5172
17775TIP3    H274741   6.236   2.401   0.589  1.2753 -1.8497  1.2776
17776TIP3   OH274742   2.586   6.336  11.725  0.5536  0.6379 -0.2709
17776TIP3    H174743   2.531   6.297  11.793  0.3488 -0.7404 -1.2001
17776TIP3    H274744   2.657   6.378  11.773 -0.3218  0.8975  0.8552
17777TIP3   OH274745   0.546   1.040   5.933 -0.4551  0.1667  0.6816
17777TIP3    H174746   0.576   1.057   5.844  0.3525 -2.5085  0.3574
17777TIP3    H274747   0.456   1.009   5.923 -1.4528  2.6854  1.1404
17778TIP3   OH274748   6.049   4.838  16.633  0.7148 -0.2376  0.1658
17778TIP3    H174749   6.074   4.904  16.698 -0.8601  0.0909  0.4756
17778TIP3    H274750   6.060   4.882  16.548  0.9330 -0.0274  0.3008
17779TIP3   OH274751   5.731   1.136   4.205 -0.5573 -0.6875 -0.2784
17779TIP3    H174752   5.827   1.137   4.210 -0.4620 -2.2544 -1.1680
17779TIP3    H274753   5.703   1.164   4.292  0.7109 -0.3983  0.0645
17780TIP3   OH274754   2.121   0.948   3.455  0.1189 -0.7434  0.7565
17780TIP3    H174755   2.111   0.888   3.381 -1.9077  1.2445 -0.7435
17780TIP3    H274756   2.060   0.916   3.521 -1.1270 -0.2518 -0.1253
17781TIP3   OH274757   5.791   5.780  13.187 -0.1129 -0.3647 -0.3957
17781TIP3    H174758   5.876   5.772  13.143 -0.7459 -0.0932 -1.7138
17781TIP3    H274759   5.729   5.742  13.126 -1.0645  0.2314  0.1778
17782TIP3   OH274760   2.304   2.926   3.970 -0.2131 -0.5078  0.1380
17782TIP3    H174761   2.324   2.926   4.064  1.2934 -2.7403 -0.1273
17782TIP3    H274762   2.326   2.838   3.940  0.1501  0.3874 -2.4985
17783TIP3   OH274763   6.525   2.154   0.791  0.1206  0.4091  0.4100
17783TIP3    H174764   6.453   2.201   0.834  1.3180  2.3537  0.3690
17783TIP3    H274765   6.577   2.119   0.863 -0.3388 -0.2243  0.4469
17784TIP3   OH274766   1.242   6.747  15.896 -0.3704 -0.0612 -0.4853
17784TIP3    H174767   1.193   6.768  15.816 -0.3260 -2.0120 -1.0871
17784TIP3    H274768   1.178   6.751  15.966 -1.1280 -1.2484 -1.0726
17785TIP3   OH274769   1.016   2.382   4.146  0.0466 -0.1977  0.8114
17785TIP3    H174770   1.026   2.447   4.215  0.8094  0.7129 -0.1179
17785TIP3    H274771   1.101   2.338   4.141  0.7895  1.3146 -1.0322
17786TIP3   OH274772   2.725   2.957  15.812 -0.1004 -0.3454 -0.1238
17786TIP3    H174773   2.694   3.038  15.853  1.4585 -0.4700  1.4083
17786TIP3    H274774   2.679   2.887  15.860 -0.8073 -0.4198 -0.8828
17787TIP3   OH274775   1.475   2.278  14.022  0.5012 -0.1615  0.0204
17787TIP3    H174776   1.514   2.221  14.089 -0.8997 -0.1604  0.8946
17787TIP3    H274777   1.470   2.224  13.944  0.9517 -0.6083  0.2936
17788TIP3   OH274778   1.406   2.591  12.329  0.3638 -0.5511  0.2767
17788TIP3    H174779   1.374   2.656  12.267  0.6010  0.9697  1.6501
17788TIP3    H274780   1.359   2.511  12.308 -1.6546  0.6546 -0.0729
17789TIP3   OH274781   2.752   1.336   4.927 -0.1525 -0.6060 -0.0143
17789TIP3    H174782   2.834   1.383   4.937 -1.1202  1.2417 -0.3211
17789TIP3    H274783   2.758   1.296   4.840  0.3659 -0.3601 -0.0982
17790TIP3   OH274784   3.548   1.905   0.660  0.3462 -0.3800 -0.1378
17790TIP3    H174785   3.469   1.891   0.712  0.4216 -0.7933 -0.1349
17790TIP3    H274786   3.536   1.849   0.583  0.5817 -0.3482 -0.1973
17791TIP3   OH274787   5.750   2.420  13.830 -0.1602  0.5524  0.1459
17791TIP3    H174788   5.759   2.512  13.856  0.0364  0.3505  0.8230
17791TIP3    H274789   5.834   2.380  13.852 -0.2254  0.2196 -0.1919
17792TIP3   OH274790   6.488   0.609  14.305  0.3247 -0.2415  0.1136
17792TIP3    H174791   6.455   0.527  14.269 -1.2926 -0.1322  1.2241
17792TIP3    H274792   6.438   0.677  14.258  0.7497  0.0457  0.0756
17793TIP3   OH274793   4.908   2.605   5.167  0.1516  0.0556  0.5665
17793TIP3    H174794   4.989   2.557   5.186 -0.6145 -1.3690  0.3489
17793TIP3    H274795   4.848   2.579   5.237 -0.1331  1.0959  0.7202
17794TIP3   OH274796   2.692   6.761  13.120  0.5458  0.5572 -0.1847
17794TIP3    H174797   2.768   6.707  13.099  1.1609  1.4573 -0.3512
17794TIP3    H274798   2.617   6.712  13.085  0.9448 -0.7261  0.6805
17795TIP3   OH274799   2.622   2.913  12.170  0.3157 -0.1737 -0.3379
17795TIP3    H174800   2.639   3.005  12.188  2.7564 -0.4295 -0.9573
17795TIP3    H274801   2.593   2.910  12.079 -0.0701 -0.0047 -0.2227
17796TIP3   OH274802   0.743   3.183   0.621  0.0377 -0.0308 -0.8100
17796TIP3    H174803   0.693   3.186   0.702  1.2626  1.4884 -0.0611
17796TIP3    H274804   0.717   3.101   0.580  0.0174 -1.2964  1.5448
17797TIP3   OH274805   1.255   0.409  14.180 -0.2933 -0.1834 -0.3678
17797TIP3    H174806   1.249   0.406  14.276  1.5864 -0.4411 -0.2136
17797TIP3    H274807   1.203   0.334  14.151 -3.8939  1.8838  0.1690
17798TIP3   OH274808   3.160   3.026  12.310  0.6284 -0.1904 -0.1641
17798TIP3    H174809   3.196   3.080  12.380 -0.7053  2.4026 -1.3403
17798TIP3    H274810   3.066   3.025  12.327  0.6742 -3.4424  0.5790
17799TIP3   OH274811   2.344   2.975   6.161  0.0546  0.1154 -0.2240
17799TIP3    H174812   2.372   3.066   6.147  0.4800  0.4254  2.2224
17799TIP3    H274813   2.252   2.982   6.186  0.6490  0.1890  2.2367
17800TIP3   OH274814   1.708   3.331  15.205 -0.1600 -0.2687 -0.6892
17800TIP3    H174815   1.639   3.308  15.268 -0.0875 -0.6798 -0.7552
17800TIP3    H274816   1.788   3.297  15.245  0.0697  0.5678 -0.4182
17801TIP3   OH274817   1.366   0.856  14.028  0.3552 -0.3864  0.6425
17801TIP3    H174818   1.427   0.870  13.955 -1.2115  0.4053 -0.5606
17801TIP3    H274819   1.339   0.944  14.054 -2.7020 -0.7049 -1.0082
17802TIP3   OH274820   4.106   6.464  14.450  0.5829  0.6762 -0.0652
17802TIP3    H174821   4.147   6.493  14.531  1.1866 -1.3237  0.3863
17802TIP3    H274822   4.173   6.411  14.406 -0.2350  0.5081 -1.1639
17803TIP3   OH274823   3.746   0.611   4.198 -0.6334  0.3194 -0.0226
17803TIP3    H174824   3.787   0.542   4.252 -1.8025 -1.8756 -1.7564
17803TIP3    H274825   3.810   0.682   4.198  0.3186 -0.4118  2.5145
17804TIP3   OH274826   5.463   3.484  12.586 -0.4194  0.4181 -0.0767
17804TIP3    H174827   5.478   3.563  12.638  0.0438  0.7353 -0.6826
17804TIP3    H274828   5.469   3.514  12.495 -1.1220 -0.1489 -0.3162
17805TIP3   OH274829   1.703   2.001  16.787 -0.2387 -0.1131  0.4602
17805TIP3    H174830   1.764   2.022  16.716  0.4339 -1.0045  0.7561
17805TIP3    H274831   1.669   1.914  16.764  0.1198 -0.4860  1.3077
17806TIP3   OH274832   5.800   0.612   4.389 -0.1349  0.0988 -0.4820
17806TIP3    H174833   5.729   0.675   4.401  0.6464  0.6855  1.4814
17806TIP3    H274834   5.871   0.662   4.349 -0.6693 -0.4137 -2.1552
17807TIP3   OH274835   1.166   1.256  13.968 -0.1975 -0.0634 -0.0889
17807TIP3    H174836   1.157   1.251  13.873 -1.1784  1.1695 -0.0808
17807TIP3    H274837   1.254   1.221  13.986  1.0769  2.0760 -1.6850
17808TIP3   OH274838   3.218   0.464  12.202  0.3341 -0.3597 -0.8885
17808TIP3    H174839   3.123   0.452  12.201  0.3241 -0.2855 -1.8538
17808TIP3    H274840   3.253   0.377  12.225 -0.0031  0.1925  2.1345
17809TIP3   OH274841   1.436   0.720   3.943  0.0438 -0.8580  0.1657
17809TIP3    H174842   1.503   0.712   4.012  0.8986  1.5015 -0.2993
17809TIP3    H274843   1.474   0.674   3.868 -0.1025 -1.8933  0.7029
17810TIP3   OH274844   1.206   3.008  10.999  0.7123  0.7410  0.5059
17810TIP3    H174845   1.205   2.950  10.923 -1.3523  0.7594  0.4621
17810TIP3    H274846   1.207   2.948  11.074 -1.6462  0.5725  0.4640
17811TIP3   OH274847   4.550   6.464   6.448 -0.1802 -0.0866  0.1329
17811TIP3    H174848   4.485   6.500   6.509 -0.3864  0.0371 -0.1565
17811TIP3    H274849   4.611   6.415   6.503  0.3094  1.0010  0.5871
17812TIP3   OH274850   0.405   1.972   6.824  0.3164  0.7428 -0.0774
17812TIP3    H174851   0.362   1.893   6.791 -0.8287  1.2588  0.1413
17812TIP3    H274852   0.399   2.034   6.751 -0.0785  1.1029  0.2658
17813TIP3   OH274853   0.960   0.300  15.290  0.7515 -0.1069  0.3915
17813TIP3    H174854   0.955   0.336  15.201  1.2224  1.4631  0.9672
17813TIP3    H274855   1.038   0.245  15.289  1.0708  0.3415 -0.0134
17814TIP3   OH274856   1.092   3.476  16.072  0.0459  0.0234 -0.1332
17814TIP3    H174857   1.050   3.402  16.114  0.5503  0.1367  0.5897
17814TIP3    H274858   1.179   3.444  16.048 -0.4448 -0.2381 -1.6993
17815TIP3   OH274859   5.033   4.522  14.969  0.2133  0.1780  0.1733
17815TIP3    H174860   5.091   4.492  14.899  0.3446  0.6448  0.0822
17815TIP3    H274861   5.087   4.517  15.048 -0.7574 -3.2188  0.8175
17816TIP3   OH274862   4.134   3.429  13.307 -0.1210 -0.0924 -0.2557
17816TIP3    H174863   4.134   3.372  13.383  2.1420  0.5698  0.3094
17816TIP3    H274864   4.120   3.517  13.342  1.3473  0.2695 -0.5101
17817TIP3   OH274865   2.804   2.204  15.585 -0.2498 -0.7653 -0.2861
17817TIP3    H174866   2.838   2.170  15.502 -2.9089 -2.1207 -0.9430
17817TIP3    H274867   2.820   2.298  15.581 -0.3632 -0.7931 -2.3911
17818TIP3   OH274868   5.383   3.964   3.313 -0.0661  0.0411  0.1977
17818TIP3    H174869   5.395   3.949   3.219 -1.5802 -1.3547  0.1938
17818TIP3    H274870   5.460   4.015   3.339 -0.8946  2.9210 -2.3279
17819TIP3   OH274871   1.504   6.462  16.985  0.1937  0.3109 -0.0859
17819TIP3    H174872   1.428   6.504  17.026  1.0950  1.9011  0.0283
17819TIP3    H274873   1.522   6.387  17.042 -2.0177 -0.8885 -0.8183
17820TIP3   OH274874   2.678   2.012   2.171  0.1518  0.5970 -0.6370
17820TIP3    H174875   2.662   2.027   2.077 -1.4683  2.0363 -0.1766
17820TIP3    H274876   2.654   1.920   2.184 -0.0141  0.4950 -1.5646
17821TIP3   OH274877   0.233   5.850   2.064 -0.0210  0.8188 -0.0646
17821TIP3    H174878   0.235   5.944   2.043  1.4820  2.1100  4.5628
17821TIP3    H274879   0.314   5.816   2.026 -0.9202  1.1074 -2.4120
17822TIP3   OH274880   0.153   1.408   2.837  0.1244  0.8209 -0.1515
17822TIP3    H174881   0.100   1.471   2.886 -0.7473  0.3708 -0.5071
17822TIP3    H274882   0.094   1.336   2.817  0.8043  0.4183 -0.7761
17823TIP3   OH274883   0.441   6.022  15.466  0.7477 -0.3592 -0.7280
17823TIP3    H174884   0.433   5.988  15.377  2.4456 -0.3080 -0.9198
17823TIP3    H274885   0.506   6.092  15.460  1.0738 -0.5178  0.5983
17824TIP3   OH274886   3.446   1.042  10.607 -0.1252 -0.4029 -0.1035
17824TIP3    H174887   3.513   0.981  10.576  1.7121  1.1918  0.5650
17824TIP3    H274888   3.415   1.004  10.689  1.7248 -0.0231  0.8334
17825TIP3   OH274889   6.779   5.989  12.875  0.3107 -0.2047 -0.4625
17825TIP3    H174890   6.841   5.987  12.948 -1.5691  0.3577  1.2368
17825TIP3    H274891   6.816   5.929  12.811  2.9509  0.6405  0.1557
17826TIP3   OH274892   6.349   6.466  10.882  0.2595  0.0523 -0.3988
17826TIP3    H174893   6.391   6.439  10.800  0.7135 -0.9589  0.1503
17826TIP3    H274894   6.307   6.549  10.861  2.7354  1.2704 -0.9195
17827TIP3   OH274895   4.853   1.709  12.017 -0.3154 -0.5692  0.1336
17827TIP3    H174896   4.827   1.620  12.040 -1.5668 -0.3974 -0.5770
17827TIP3    H274897   4.772   1.754  11.996  0.4298  0.3426 -0.9222
17828TIP3   OH274898   1.205   1.978   4.182 -0.0920  0.0356 -0.7590
17828TIP3    H174899   1.114   1.999   4.206  0.0086  0.4064 -0.6894
17828TIP3    H274900   1.234   1.915   4.248  0.1014  0.8583 -0.0441
17829TIP3   OH274901   2.078   2.608  15.948 -0.0611  0.2814 -0.1350
17829TIP3    H174902   2.107   2.517  15.954  0.7902  0.6190  2.6494
17829TIP3    H274903   2.085   2.631  15.856  0.2047 -2.3032 -0.8155
17830TIP3   OH274904   1.887   0.966  13.775 -0.1627 -0.4894 -0.5905
17830TIP3    H174905   1.858   1.057  13.785  0.8140 -0.1464 -0.7854
17830TIP3    H274906   1.907   0.937  13.864  1.1761  0.0633 -0.6872
17831TIP3   OH274907   0.989   0.229  11.702 -0.1297  0.2609 -0.1963
17831TIP3    H174908   1.012   0.184  11.621 -1.3005 -0.6725 -0.0275
17831TIP3    H274909   0.988   0.322  11.679  1.9659  0.2208 -0.6388
17832TIP3   OH274910   5.649   2.990   5.359 -0.2073 -0.0693 -0.2699
17832TIP3    H174911   5.632   2.902   5.392 -0.2107 -0.6018 -1.6409
17832TIP3    H274912   5.569   3.038   5.379 -0.5152 -0.5882 -0.2242
17833TIP3   OH274913   2.434   4.461   3.309  0.3913  0.0091  0.1636
17833TIP3    H174914   2.364   4.457   3.374  1.0441  0.5075  0.9017
17833TIP3    H274915   2.468   4.371   3.305 -0.4442 -0.2996 -0.3932
17834TIP3   OH274916   4.722   5.875   4.371  0.4667 -0.2200  0.9754
17834TIP3    H174917   4.707   5.893   4.464 -1.3976  0.3667  0.6089
17834TIP3    H274918   4.777   5.797   4.371 -0.1778 -0.7397  2.5913
17835TIP3   OH274919   3.895   4.301   2.614  0.0906 -0.5840 -0.1230
17835TIP3    H174920   3.915   4.346   2.531 -0.2453 -2.1479 -1.0919
17835TIP3    H274921   3.978   4.261   2.639  0.0359 -0.6649 -0.0714
17836TIP3   OH274922   5.914   2.310   4.115 -0.0187  0.2871  0.7672
17836TIP3    H174923   5.838   2.369   4.114 -0.6516 -0.5142  0.5871
17836TIP3    H274924   5.935   2.297   4.023 -0.7396 -0.8368  0.7475
17837TIP3   OH274925   4.837   6.702   0.096 -0.4432  0.0789  0.7563
17837TIP3    H174926   4.800   6.636   0.037 -0.6690  1.3304 -0.5772
17837TIP3    H274927   4.761   6.750   0.130 -0.2199  1.8800 -1.0537
17838TIP3   OH274928   3.316   2.180   4.197  0.1181  0.4448  0.6496
17838TIP3    H174929   3.237   2.126   4.204 -0.6687  1.5754  0.7189
17838TIP3    H274930   3.327   2.218   4.284  0.3836  0.7823  0.4705
17839TIP3   OH274931   3.487   1.220   5.762 -0.2444 -0.1997  0.3086
17839TIP3    H174932   3.428   1.249   5.831 -1.3930 -3.1155  0.7176
17839TIP3    H274933   3.574   1.241   5.794 -0.7451 -1.5607  2.7805
17840TIP3   OH274934   0.950   3.781  12.367  0.4690 -0.7699 -0.4414
17840TIP3    H174935   0.879   3.820  12.316  0.3345 -0.2461  0.1314
17840TIP3    H274936   0.953   3.833  12.448  1.7816 -0.5283 -0.6295
17841TIP3   OH274937   2.981   2.174   5.603  0.0412 -0.3314  0.2197
17841TIP3    H174938   2.898   2.134   5.628 -0.8716 -0.6848 -2.9517
17841TIP3    H274939   2.959   2.229   5.528  2.4229  0.8963  0.3275
17842TIP3   OH274940   5.935   4.978   3.929 -0.3877  0.0677  1.0520
17842TIP3    H174941   5.999   4.992   3.998 -0.0788 -0.6028  0.9076
17842TIP3    H274942   5.982   4.930   3.861 -1.0604 -0.5157  0.9856
17843TIP3   OH274943   3.811   6.369  13.017  0.3519 -0.3192  0.3321
17843TIP3    H174944   3.888   6.424  13.000  1.5109 -2.0416 -0.3806
17843TIP3    H274945   3.819   6.345  13.109  0.9333 -0.8410  0.1519
17844TIP3   OH274946   0.909   4.100  14.395 -0.1055  0.1347  0.0083
17844TIP3    H174947   0.945   4.012  14.390  2.0787  0.9499  0.3982
17844TIP3    H274948   0.885   4.122  14.305  0.5592 -0.3859 -0.3019
17845TIP3   OH274949   1.271   5.835   5.982 -0.5989 -0.4396 -0.1611
17845TIP3    H174950   1.230   5.797   6.060 -0.4404 -1.6285 -0.6315
17845TIP3    H274951   1.278   5.929   6.002 -4.4932  0.0915 -0.4381
17846TIP3   OH274952   0.498   3.388   0.704  0.5366  0.1122 -0.0083
17846TIP3    H174953   0.473   3.326   0.636  1.2595 -0.0525 -0.1366
17846TIP3    H274954   0.567   3.343   0.754  0.6884  0.5973  0.2370
17847TIP3   OH274955   6.273   1.469   3.812  0.6803  0.2047 -0.3220
17847TIP3    H174956   6.313   1.550   3.779  0.7228  0.1402 -0.4307
17847TIP3    H274957   6.315   1.400   3.761 -0.0933  0.1877 -0.9531
17848TIP3   OH274958   5.625   2.387   3.053 -0.1922 -0.1929  0.3429
17848TIP3    H174959   5.587   2.474   3.037  2.4874  1.3931  1.8811
17848TIP3    H274960   5.666   2.394   3.139  0.7938 -2.7501  0.1564
17849TIP3   OH274961   5.952   2.625   2.977 -0.1751 -0.1251 -0.1104
17849TIP3    H174962   5.970   2.684   3.051 -0.5581 -0.5362  0.3171
17849TIP3    H274963   6.004   2.660   2.905  1.1528 -0.4046  0.6785
17850TIP3   OH274964   5.256   4.513   1.828  0.0287  0.4836  0.3787
17850TIP3    H174965   5.226   4.551   1.745  0.1907  1.8808  0.9379
17850TIP3    H274966   5.236   4.420   1.820 -1.0487  0.7853 -0.7551
17851TIP3   OH274967   5.125   0.991   1.328  0.0508 -0.0838  0.1519
17851TIP3    H174968   5.192   0.935   1.289 -0.9942 -0.5521 -1.0595
17851TIP3    H274969   5.169   1.034   1.402  1.4060 -1.0568 -0.0506
17852TIP3   OH274970   2.816   2.878  15.039 -0.2585 -0.4642 -0.1455
17852TIP3    H174971   2.730   2.841  15.018 -0.8444  0.3351  0.7407
17852TIP3    H274972   2.874   2.845  14.970 -1.6896  0.5713 -1.9452
17853TIP3   OH274973   0.966   4.958  16.936  0.3513  0.2079  0.3424
17853TIP3    H174974   0.939   5.022  17.001  1.2180 -0.3514  1.2685
17853TIP3    H274975   1.056   4.936  16.959  0.5181 -0.3501 -0.7692
17854TIP3   OH274976   3.729   2.929   5.152 -0.4951  0.9305  0.2737
17854TIP3    H174977   3.641   2.966   5.143 -0.3813  1.4486  1.1192
17854TIP3    H274978   3.750   2.895   5.065 -0.7068  2.6434 -0.4858
17855TIP3   OH274979   2.584   1.284  12.984 -0.0034  0.2481 -0.3462
17855TIP3    H174980   2.499   1.320  12.957  0.7815 -0.1357 -3.7334
17855TIP3    H274981   2.591   1.202  12.936  2.1497  0.0821  0.1738
17856TIP3   OH274982   4.707   6.070  16.254  0.1711 -0.3319  0.1968
17856TIP3    H174983   4.713   5.989  16.305 -0.9435 -1.3730 -1.2393
17856TIP3    H274984   4.765   6.055  16.179 -1.0486 -0.3715 -0.7652
17857TIP3   OH274985   0.261   5.099  12.982 -0.0184 -0.1899  0.4913
17857TIP3    H174986   0.237   5.147  12.902 -1.0548 -0.7905  0.4267
17857TIP3    H274987   0.353   5.121  12.996  0.0695  0.2408 -0.6506
17858TIP3   OH274988   0.510   5.189   3.481 -0.7261  0.5468  0.0309
17858TIP3    H174989   0.446   5.121   3.461 -0.8291  0.4369  0.6924
17858TIP3    H274990   0.525   5.233   3.398  2.7570 -3.0889 -1.6230
17859TIP3   OH274991   4.104   4.354  14.234 -0.4093 -0.7961 -0.2514
17859TIP3    H174992   4.127   4.328  14.323  0.5358 -0.7605 -0.4718
17859TIP3    H274993   4.008   4.349  14.231 -0.5669  0.4509  1.1501
17860TIP3   OH274994   3.093   5.235  16.334 -0.2102  0.2675 -0.5625
17860TIP3    H174995   3.186   5.257  16.332 -0.1717  0.0957 -0.7000
17860TIP3    H274996   3.080   5.180  16.257 -0.3759  0.0933 -0.4100
17861TIP3   OH274997   2.067   3.971   2.354  0.3679 -0.4694  0.1981
17861TIP3    H174998   2.118   3.893   2.376  1.4820 -0.0552 -0.7929
17861TIP3    H274999   2.105   4.041   2.407  2.1836  0.2471 -1.8872
17862TIP3   OH275000   1.539   0.917   4.927 -0.0631  0.4069  0.0920
17862TIP3    H175001   1.522   0.874   4.843 -1.5628  1.0719  0.0298
17862TIP3    H275002   1.454   0.918   4.971  0.6475  0.2916  1.5332
17863TIP3   OH275003   1.508   4.110   4.288  0.0471  0.4830 -0.5004
17863TIP3    H175004   1.575   4.068   4.233 -1.4400 -0.7997 -1.3995
17863TIP3    H275005   1.426   4.095   4.241 -0.8808  2.2284  0.4528
17864TIP3   OH275006   2.323   1.986  14.835 -0.2988  0.5570 -0.2749
17864TIP3    H175007   2.254   2.044  14.869  1.5132  1.5832  1.9440
17864TIP3    H275008   2.402   2.040  14.836  1.1517 -1.4765  0.2676
17865TIP3   OH275009   1.281   0.723   5.510 -0.4376  0.0433  0.3446
17865TIP3    H175010   1.358   0.728   5.567  0.2077  1.1148 -0.5867
17865TIP3    H275011   1.207   0.742   5.567  0.1146  0.2683  0.9915
17866TIP3   OH275012   0.557   1.229  14.559 -0.0845 -0.5265 -0.3364
17866TIP3    H175013   0.639   1.229  14.509 -0.0406  0.1491 -0.2770
17866TIP3    H275014   0.532   1.321  14.563 -2.0485 -0.8842 -2.3182
17867TIP3   OH275015   3.415   6.272   1.480 -0.1409  0.0210 -0.5291
17867TIP3    H175016   3.436   6.296   1.571  4.0690  3.2321 -1.9865
17867TIP3    H275017   3.335   6.321   1.461  0.4169  1.5648  0.7815
17868TIP3   OH275018   2.325   3.919   3.949  0.0194 -0.8226  0.4366
17868TIP3    H175019   2.251   3.976   3.970  1.1245  0.0958  2.0767
17868TIP3    H275020   2.292   3.830   3.963 -1.0424 -0.4713  0.1985
17869TIP3   OH275021   2.748   3.454   5.619  0.2242 -0.2859  0.3336
17869TIP3    H175022   2.820   3.391   5.620 -0.3335 -0.9410  1.1900
17869TIP3    H275023   2.696   3.431   5.696 -1.3003 -0.3077 -0.6713
17870TIP3   OH275024   4.421   4.761  11.827  0.1094 -0.2635  0.4476
17870TIP3    H175025   4.437   4.831  11.765  1.9281 -1.0440 -0.0453
17870TIP3    H275026   4.506   4.748  11.871 -0.3724 -1.6348  1.0395
17871TIP3   OH275027   6.351   6.018  12.758 -0.1361 -0.0594 -0.1696
17871TIP3    H175028   6.427   6.077  12.752 -1.3024  1.6286  0.9419
17871TIP3    H275029   6.306   6.029  12.675  0.1062 -0.0388 -0.3006
17872TIP3   OH275030   0.892   0.873  16.026 -0.1633  0.0923  0.6492
17872TIP3    H175031   0.800   0.897  16.018 -0.8648 -1.8861  1.9364
17872TIP3    H275032   0.899   0.831  16.112  1.5617 -1.2999 -0.0982
17873TIP3   OH275033   2.187   1.662   4.194  0.1337  0.0205 -0.3289
17873TIP3    H175034   2.197   1.570   4.172 -2.2073 -0.5530  0.6533
17873TIP3    H275035   2.188   1.707   4.110 -0.1243 -1.0883 -0.9446
17874TIP3   OH275036   3.403   0.242   5.841  0.1050 -0.8011  0.2669
17874TIP3    H175037   3.433   0.176   5.904 -1.5131 -2.8971 -1.0308
17874TIP3    H275038   3.308   0.245   5.853  0.1502  1.8635  0.7122
17875TIP3   OH275039   4.912   4.448   6.500  0.1308 -0.4221  0.0467
17875TIP3    H175040   4.839   4.430   6.560 -1.2428  1.5260 -0.9010
17875TIP3    H275041   4.869   4.469   6.417  1.5307  3.1369  0.0342
17876TIP3   OH275042   1.814   4.187   4.510 -0.2753 -0.0253  0.1358
17876TIP3    H175043   1.867   4.253   4.554  1.2804 -0.0307 -1.6253
17876TIP3    H275044   1.877   4.133   4.463 -1.6198 -1.9307  0.3954
17877TIP3   OH275045   0.770   5.034  13.113 -0.4704  0.4838 -0.1788
17877TIP3    H175046   0.711   5.074  13.177 -0.5302  2.4942 -1.3978
17877TIP3    H275047   0.857   5.049  13.149 -0.5963 -0.8849  0.7509
17878TIP3   OH275048   2.531   1.856  15.921  0.5286 -0.3859 -0.4373
17878TIP3    H175049   2.511   1.824  16.010 -0.6408  3.3527  0.8289
17878TIP3    H275050   2.620   1.827  15.905  0.5690 -1.7174  1.7157
17879TIP3   OH275051   1.855   1.382   5.658  0.8612  0.5823 -0.0174
17879TIP3    H175052   1.935   1.430   5.638  1.5387 -0.4320  0.2019
17879TIP3    H275053   1.843   1.393   5.752  0.0217  1.7974 -0.2466
17880TIP3   OH275054   3.841   0.371   5.763 -0.5385  0.4838 -0.2929
17880TIP3    H175055   3.827   0.276   5.765 -1.7355  0.6502 -0.4022
17880TIP3    H275056   3.758   0.409   5.791 -0.3647  1.5235 -1.1156
17881TIP3   OH275057   1.748   1.758  13.170 -0.0587 -0.2126 -0.0197
17881TIP3    H175058   1.822   1.698  13.156 -0.1283 -0.7249  1.6354
17881TIP3    H275059   1.734   1.798  13.085  3.6556  1.6733  0.0698
17882TIP3   OH275060   4.423   4.253   0.357  0.0232 -0.2874 -0.4851
17882TIP3    H175061   4.422   4.160   0.336  1.9774 -0.4019 -0.1830
17882TIP3    H275062   4.498   4.288   0.310  0.3770  0.7902  0.8057
17883TIP3   OH275063   6.027   4.374   0.892 -0.3302 -0.2560 -0.2226
17883TIP3    H175064   6.112   4.400   0.928 -0.4621 -2.3453  1.8013
17883TIP3    H275065   5.965   4.394   0.962 -1.3595  0.1309 -1.2202
17884TIP3   OH275066   3.160   4.073   1.883  0.7781 -0.3220 -0.2947
17884TIP3    H175067   3.185   4.013   1.954  1.8629 -1.3925 -1.5324
17884TIP3    H275068   3.132   4.016   1.812  1.1760  0.6508 -1.2700
17885TIP3   OH275069   1.569   0.345  14.407 -0.1415 -0.2980 -0.1870
17885TIP3    H175070   1.505   0.339  14.477 -0.1192 -0.7432 -0.2043
17885TIP3    H275071   1.537   0.286  14.339  0.2301 -0.4496 -0.2369
17886TIP3   OH275072   5.208   1.264  16.057 -0.5742 -0.4101  0.6772
17886TIP3    H175073   5.243   1.284  16.144 -0.8321  0.7475  0.5336
17886TIP3    H275074   5.123   1.309  16.055  0.0287  0.7398 -0.6504
17887TIP3   OH275075   4.360   4.712  12.639  0.2330  0.2349 -0.2445
17887TIP3    H175076   4.382   4.800  12.609  1.6031 -0.4560 -1.3756
17887TIP3    H275077   4.378   4.656  12.564 -1.5893 -0.9217  0.1078
17888TIP3   OH275078   3.527   3.254   1.866  0.1040  0.2930 -0.0565
17888TIP3    H175079   3.604   3.254   1.810 -1.1345 -1.3305 -1.9213
17888TIP3    H275080   3.454   3.264   1.805 -1.2718 -0.5807  1.3716
17889TIP3   OH275081   3.916   1.069  16.093 -0.0979 -0.3305  0.3484
17889TIP3    H175082   3.931   1.159  16.122 -3.6927  1.3564 -2.3196
17889TIP3    H275083   4.004   1.037  16.071  1.3505  2.3496  1.6967
17890TIP3   OH275084   5.902   1.885   3.034 -0.0768  0.0279 -0.0232
17890TIP3    H175085   5.866   1.928   3.112 -2.5558  2.9599 -2.5079
17890TIP3    H275086   5.945   1.956   2.986  1.2259 -1.6480 -1.4707
17891TIP3   OH275087   4.612   6.158  14.346  1.0956  0.4575 -0.2814
17891TIP3    H175088   4.530   6.177  14.301  1.1304  0.8458 -0.1831
17891TIP3    H275089   4.610   6.213  14.424  1.0184 -0.2396  0.2208
17892TIP3   OH275090   1.490   6.016   2.754 -0.2218 -0.3884  0.1099
17892TIP3    H175091   1.584   6.016   2.768 -0.3797 -0.2676  1.2941
17892TIP3    H275092   1.455   5.962   2.826 -1.2023  1.2489  0.9127
17893TIP3   OH275093   6.306   6.116   3.801  0.5362 -0.4736 -0.4255
17893TIP3    H175094   6.369   6.169   3.850 -0.6558  1.0945 -0.5248
17893TIP3    H275095   6.356   6.040   3.773  2.0959  0.1847  0.4448
17894TIP3   OH275096   0.751   2.181   2.499 -0.9997  0.1282 -0.2514
17894TIP3    H175097   0.704   2.145   2.574 -1.2327 -0.9452 -0.8826
17894TIP3    H275098   0.693   2.165   2.424 -0.5428  0.6868 -0.7396
17895TIP3   OH275099   1.380   4.066   5.320  0.5859 -0.2210 -0.5919
17895TIP3    H175100   1.469   4.076   5.355  0.2703  1.1577 -0.1173
17895TIP3    H275101   1.330   4.137   5.360 -0.6360 -0.7007 -1.2001
17896TIP3   OH275102   3.988   5.084   0.621  0.0709 -0.0964 -0.3273
17896TIP3    H175103   4.028   5.063   0.536 -0.1203  1.6376 -0.8970
17896TIP3    H275104   3.896   5.098   0.601 -0.2191 -0.9241  0.4097
17897TIP3   OH275105   0.536   0.359   1.310 -0.6299 -0.3082 -0.5289
17897TIP3    H175106   0.497   0.409   1.383 -0.9706  0.6243 -1.3225
17897TIP3    H275107   0.564   0.277   1.350 -0.1317  0.4791  0.8119
17898TIP3   OH275108   2.985   4.549  13.209  0.0652 -0.1727  0.6125
17898TIP3    H175109   3.006   4.633  13.167 -2.2156  0.0998 -0.0872
17898TIP3    H275110   2.932   4.502  13.144 -0.0190 -1.5121  1.6126
17899TIP3   OH275111   2.522   6.062  13.586  0.1789  0.3491  0.1694
17899TIP3    H175112   2.465   6.007  13.531  2.4251  0.9832 -3.0333
17899TIP3    H275113   2.461   6.107  13.644 -2.1125 -2.5190  0.2521
17900TIP3   OH275114   0.031   5.346   3.354 -0.0884  0.5618  0.0187
17900TIP3    H175115   0.067   5.434   3.367  1.3854  0.2176 -1.4614
17900TIP3    H275116   0.095   5.288   3.393 -0.1261  0.0479 -0.6656
17901TIP3   OH275117   6.440   0.615   4.757  0.0838 -0.6490  0.7592
17901TIP3    H175118   6.477   0.619   4.669 -0.5184  2.8151  0.5428
17901TIP3    H275119   6.516   0.605   4.815  0.7611  0.0072 -0.0012
17902TIP3   OH275120   5.251   2.668   2.048 -0.2519 -0.0186  0.3869
17902TIP3    H175121   5.268   2.750   2.096  1.8543 -1.5675  2.5053
17902TIP3    H275122   5.225   2.606   2.116 -0.2694 -1.5346 -0.9549
17903TIP3   OH275123   5.402   3.337   1.241  0.4277  0.1744 -0.2300
17903TIP3    H175124   5.363   3.358   1.326  0.1714 -1.1523 -0.0004
17903TIP3    H275125   5.337   3.282   1.197  0.8698  0.2409 -0.9913
17904TIP3   OH275126   2.999   2.008  14.493 -0.0390 -0.4561  0.0073
17904TIP3    H175127   2.905   2.015  14.509  0.0657 -0.3163  0.5725
17904TIP3    H275128   3.013   2.059  14.413 -0.2417  0.6566  0.6567
17905TIP3   OH275129   6.187   0.769  14.573 -0.1583 -0.1244  0.4151
17905TIP3    H175130   6.241   0.700  14.611  1.3998  0.4140 -0.7495
17905TIP3    H275131   6.153   0.731  14.492  1.6549  0.7970 -0.8411
17906TIP3   OH275132   0.322   3.047   3.869 -0.3192 -0.6839 -0.7761
17906TIP3    H175133   0.255   2.990   3.908 -0.5045 -1.2457 -1.8823
17906TIP3    H275134   0.377   2.987   3.818  0.8067 -0.1699 -0.1855
17907TIP3   OH275135   5.251   1.670  13.261  0.3314  0.0047 -0.7490
17907TIP3    H175136   5.186   1.645  13.327  1.0611  2.0102  0.8272
17907TIP3    H275137   5.330   1.623  13.286  0.1774 -0.4693 -1.1511
17908TIP3   OH275138   2.660   2.556   0.676 -0.0889 -0.2630 -1.2207
17908TIP3    H175139   2.640   2.462   0.672  3.0692 -1.1557  0.6489
17908TIP3    H275140   2.746   2.563   0.635  0.7677  1.3909  0.7210
17909TIP3   OH275141   4.679   2.863  13.547 -0.2221  0.5306 -0.0066
17909TIP3    H175142   4.703   2.956  13.541 -0.4956  0.6386  0.5308
17909TIP3    H275143   4.598   2.862  13.599 -1.6239  0.2155 -2.0488
17910TIP3   OH275144   6.584   0.267   3.992 -0.1175  0.2923 -0.0211
17910TIP3    H175145   6.536   0.320   3.929 -2.0406  0.3384  1.4222
17910TIP3    H275146   6.573   0.311   4.075 -1.4495 -2.0657  1.1673
17911TIP3   OH275147   0.972   4.751   4.381  1.0861  0.0639  0.2965
17911TIP3    H175148   0.966   4.834   4.333 -1.9634 -0.5567 -0.5951
17911TIP3    H275149   0.938   4.772   4.468 -0.1642 -0.3016 -0.0828
17912TIP3   OH275150   1.813   3.364  13.007 -0.1470  0.2586 -0.5760
17912TIP3    H175151   1.807   3.403  12.919 -2.8739 -0.3577 -0.7578
17912TIP3    H275152   1.730   3.388  13.049  1.2204  0.7922  1.9886
17913TIP3   OH275153   0.713   0.320   5.725  0.3227 -0.2027  0.9174
17913TIP3    H175154   0.789   0.306   5.668 -0.3358 -0.3208  0.0554
17913TIP3    H275155   0.646   0.358   5.668 -0.4988 -0.7078  1.5173
17914TIP3   OH275156   3.468   1.405  12.466 -0.5180  0.7799 -0.8276
17914TIP3    H175157   3.525   1.480  12.484  0.1097 -0.0990  1.1143
17914TIP3    H275158   3.525   1.340  12.426 -0.4176  0.3607 -0.0256
17915TIP3   OH275159   6.012   4.485  12.605  0.0923  0.0740  0.4620
17915TIP3    H175160   6.032   4.568  12.563  0.0528 -0.2741 -0.2659
17915TIP3    H275161   5.920   4.493  12.632 -0.3685 -0.2517 -0.9178
17916TIP3   OH275162   2.308   5.852  15.774 -0.5335 -0.2451 -0.1260
17916TIP3    H175163   2.290   5.822  15.863 -0.1414 -1.0962 -0.3294
17916TIP3    H275164   2.400   5.879  15.776 -0.2841 -1.0300 -0.4664
17917TIP3   OH275165   2.847   1.286  16.377  0.1094 -1.3458 -0.1862
17917TIP3    H175166   2.868   1.194  16.395 -2.0701 -1.8887 -0.1932
17917TIP3    H275167   2.926   1.333  16.402  0.5093 -2.9852  2.0121
17918TIP3   OH275168   3.242   1.382   3.897 -0.6678 -0.6097  0.5126
17918TIP3    H175169   3.306   1.325   3.855  0.2290  1.6127 -1.3505
17918TIP3    H275170   3.294   1.443   3.948 -1.4352 -0.0009  0.5879
17919TIP3   OH275171   1.743   6.274  14.628  0.0965 -0.3664 -0.3153
17919TIP3    H175172   1.653   6.307  14.623  0.4521  0.5625 -1.0873
17919TIP3    H275173   1.790   6.342  14.676  0.1737 -1.3891  1.1060
17920TIP3   OH275174   5.953   1.654   2.306 -0.3810 -0.4420 -0.0781
17920TIP3    H175175   6.035   1.617   2.337 -1.2429 -1.6891  0.8264
17920TIP3    H275176   5.906   1.678   2.386 -0.5309  1.1480 -0.6042
17921TIP3   OH275177   0.605   4.225   2.925 -0.0696  0.2842 -0.5323
17921TIP3    H175178   0.606   4.320   2.936  0.2974  0.2022  0.2633
17921TIP3    H275179   0.561   4.192   3.004  1.3711 -0.2797  0.0928
17922TIP3   OH275180   3.134   5.913   1.687 -0.4564  1.0570  0.7369
17922TIP3    H175181   3.187   5.927   1.609 -1.6743 -1.5277 -0.6813
17922TIP3    H275182   3.193   5.871   1.749 -0.5826 -1.2835 -0.6188
17923TIP3   OH275183   3.197   0.267   3.774  0.2855  0.3316  0.0957
17923TIP3    H175184   3.105   0.242   3.779 -0.1004  1.8425  1.5377
17923TIP3    H275185   3.197   0.362   3.788  2.1599  0.1566  1.7846
17924TIP3   OH275186   2.726   2.930   4.396 -0.3440  0.2235 -0.0019
17924TIP3    H175187   2.816   2.898   4.396 -0.9870 -1.7796  1.3553
17924TIP3    H275188   2.734   3.024   4.385  1.7848 -0.1338 -2.2227
17925TIP3   OH275189   1.251   2.273  12.278 -0.6565 -0.1466 -0.0825
17925TIP3    H175190   1.306   2.216  12.332 -0.7534 -0.5902 -0.4516
17925TIP3    H275191   1.286   2.262  12.189 -1.3161 -0.4031 -0.3139
17926TIP3   OH275192   3.002   0.187  11.162  0.2544 -0.6933  0.3786
17926TIP3    H175193   2.950   0.119  11.204  0.7371 -0.5211  1.2887
17926TIP3    H275194   3.087   0.146  11.146  0.8734 -0.0611  1.8165
17927TIP3   OH275195   1.423   1.162  12.831  0.0198  0.4652 -0.5284
17927TIP3    H175196   1.360   1.214  12.781  0.9453  3.6747  1.3921
17927TIP3    H275197   1.376   1.138  12.911  0.5168  0.8665 -0.1128
17928TIP3   OH275198   1.865   3.579   1.620 -0.0616 -0.1325  0.3143
17928TIP3    H175199   1.947   3.608   1.659  0.5075 -1.1878 -0.0632
17928TIP3    H275200   1.877   3.592   1.526 -1.6819  3.0587  0.4337
17929TIP3   OH275201   4.182   1.877   6.274  0.7673  0.6910  0.3834
17929TIP3    H175202   4.217   1.916   6.194  0.0291  0.1047 -0.2465
17929TIP3    H275203   4.254   1.823   6.307  0.0341 -1.8471 -1.8130
17930TIP3   OH275204   3.067   2.179   0.618 -0.1618 -0.3269 -0.2670
17930TIP3    H175205   3.161   2.176   0.635 -0.5339 -1.8125  1.9579
17930TIP3    H275206   3.040   2.266   0.645  0.3665 -0.4000  0.5363
17931TIP3   OH275207   0.308   3.186  11.399 -0.1314 -0.0516  0.1176
17931TIP3    H175208   0.372   3.140  11.345 -0.9124 -1.5170  0.3920
17931TIP3    H275209   0.318   3.149  11.486 -1.4358 -0.4203  0.1371
17932TIP3   OH275210   4.153   2.076  14.566  0.4372  0.3149  0.0434
17932TIP3    H175211   4.066   2.060  14.528  0.5312  0.8265 -0.3923
17932TIP3    H275212   4.145   2.044  14.656 -0.5179  1.2485  0.3242
17933TIP3   OH275213   0.650   6.193   1.619  0.9450  0.0524 -0.0063
17933TIP3    H175214   0.734   6.148   1.624  0.2761 -1.1969  0.5883
17933TIP3    H275215   0.639   6.215   1.527  2.3747  1.1675  0.0585
17934TIP3   OH275216   4.474   4.706   5.091  0.0463 -0.2950  0.6606
17934TIP3    H175217   4.548   4.649   5.069  0.0148 -0.3523  0.7019
17934TIP3    H275218   4.486   4.726   5.184  2.4214  3.1844 -0.1979
17935TIP3   OH275219   2.874   5.378  10.907 -0.3406 -0.2838  0.5371
17935TIP3    H175220   2.937   5.437  10.947  1.0539 -0.8329 -0.7583
17935TIP3    H275221   2.849   5.422  10.826 -0.4834 -0.7545  0.3237
17936TIP3   OH275222   4.576   3.283   5.449 -0.3759 -0.0605  0.3400
17936TIP3    H175223   4.481   3.286   5.441 -0.4845 -0.1344  1.4638
17936TIP3    H275224   4.592   3.237   5.531  0.6215  0.3459  0.3891
17937TIP3   OH275225   3.063   2.713  11.954  0.1271  0.8266  0.4818
17937TIP3    H175226   3.027   2.802  11.962 -1.4604  0.1906  0.9028
17937TIP3    H275227   3.155   2.726  11.930 -0.2418  2.5764 -0.1696
17938TIP3   OH275228   2.297   2.433   1.425  0.0499 -0.1215 -0.6727
17938TIP3    H175229   2.332   2.442   1.514  0.1933 -1.7864 -0.5261
17938TIP3    H275230   2.374   2.420   1.370 -0.1837 -1.7656 -0.6398
17939TIP3   OH275231   1.789   6.634  15.624  0.6170 -0.0521 -0.3937
17939TIP3    H175232   1.836   6.706  15.582  3.2128 -0.4998  1.5086
17939TIP3    H275233   1.837   6.556  15.597  1.5100 -0.4675  2.1901
17940TIP3   OH275234   3.109   5.098  11.303  0.8755 -0.0263  0.0719
17940TIP3    H175235   3.186   5.155  11.308  2.7600 -2.4730  2.2519
17940TIP3    H275236   3.075   5.111  11.215  4.6575  0.2124 -1.5654
17941TIP3   OH275237   2.922   1.907   2.203  0.7436  0.2561  0.1547
17941TIP3    H175238   2.854   1.963   2.167  0.4286 -0.9235 -1.1895
17941TIP3    H275239   2.929   1.933   2.295 -2.7468 -0.6971  0.8467
17942TIP3   OH275240   3.329   3.721  16.585  0.1440 -0.5311  0.6497
17942TIP3    H175241   3.250   3.766  16.614  0.7134  1.4168 -0.6294
17942TIP3    H275242   3.376   3.700  16.665 -0.7095  0.0964  1.3299
17943TIP3   OH275243   2.554   2.054  14.344 -0.4448  0.0447 -0.0158
17943TIP3    H175244   2.555   2.130  14.287 -2.6028  0.8904  0.9606
17943TIP3    H275245   2.637   2.057  14.391  0.1606  0.8795 -1.1039
17944TIP3   OH275246   0.761   6.788  11.678  0.7499  0.3552 -0.0342
17944TIP3    H175247   0.807   6.808  11.597 -0.9304 -1.6347 -1.5867
17944TIP3    H275248   0.670   6.775  11.652  0.7521 -4.1216  1.3581
17945TIP3   OH275249   0.304   4.750  11.192  0.4970  0.1651  0.4395
17945TIP3    H175250   0.358   4.828  11.202  0.0354  0.7745 -1.3958
17945TIP3    H275251   0.243   4.772  11.121 -0.6332 -1.3322  0.8833
17946TIP3   OH275252   1.375   2.830   5.149  0.0083  0.5720  0.0162
17946TIP3    H175253   1.466   2.856   5.161  0.5649 -1.4819  0.6075
17946TIP3    H275254   1.377   2.734   5.150 -2.0833  0.4773 -0.5847
17947TIP3   OH275255   0.804   6.232   3.185 -0.2078  0.1047 -0.2260
17947TIP3    H175256   0.782   6.311   3.137  1.4904  0.4194 -0.5656
17947TIP3    H275257   0.793   6.161   3.121 -1.3062  0.0903 -0.0433
17948TIP3   OH275258   3.538   4.228   3.064 -0.1731  0.2564 -0.2899
17948TIP3    H175259   3.484   4.242   3.142 -1.8151  0.6003 -1.4522
17948TIP3    H275260   3.596   4.156   3.089 -2.0934 -1.0781  0.5660
17949TIP3   OH275261   2.826   2.532  15.869 -0.0506  0.2116  0.2417
17949TIP3    H175262   2.841   2.531  15.964  0.2342  1.7677  0.2378
17949TIP3    H275263   2.752   2.473  15.856 -0.3434  0.2695  1.4783
17950TIP3   OH275264   1.220   6.694  11.667  0.0967 -0.3466 -0.4970
17950TIP3    H175265   1.235   6.703  11.761  0.6247  2.3678 -0.7637
17950TIP3    H275266   1.125   6.689  11.659  0.0096  0.0995  0.1520
17951TIP3   OH275267   3.173   1.149  14.320  0.7992  0.6326  0.4689
17951TIP3    H175268   3.095   1.204  14.314 -0.0201 -0.5653 -0.5441
17951TIP3    H275269   3.194   1.128  14.229  1.5239 -0.1191  0.8002
17952TIP3   OH275270   1.812   0.210  13.209 -0.0105  0.1512  0.1729
17952TIP3    H175271   1.751   0.272  13.168  0.9362  0.1204 -1.3725
17952TIP3    H275272   1.896   0.255  13.209  0.1434 -0.0836  1.6273
17953TIP3   OH275273   1.601   4.053   1.255 -0.1111  0.0477 -0.0782
17953TIP3    H175274   1.641   4.030   1.172  0.7050 -0.2871  0.3997
17953TIP3    H275275   1.605   4.148   1.259  2.0800 -0.0288  0.6429
17954TIP3   OH275276   3.571   0.855  14.518  0.0550  0.6639 -0.1428
17954TIP3    H175277   3.625   0.805  14.456 -0.6597 -1.7162  1.0311
17954TIP3    H275278   3.532   0.923  14.464  0.8967 -0.1666 -1.9337
17955TIP3   OH275279   4.163   5.357   1.513 -0.5127  0.0821 -0.5479
17955TIP3    H175280   4.108   5.430   1.541 -2.5264 -0.6910 -2.1432
17955TIP3    H275281   4.174   5.303   1.592  1.2788  2.1628  0.7264
17956TIP3   OH275282   5.241   5.689  14.033 -0.1738  0.4034  0.2847
17956TIP3    H175283   5.321   5.738  14.012 -0.1023 -0.0299 -0.4970
17956TIP3    H275284   5.185   5.753  14.078 -0.3105  1.3969 -1.2018
17957TIP3   OH275285   0.450   0.801   5.003 -0.0239 -1.2452  0.2098
17957TIP3    H175286   0.445   0.798   4.908 -2.2168  1.3793  0.1259
17957TIP3    H275287   0.531   0.848   5.021 -1.2839  1.3945 -0.5790
17958TIP3   OH275288   5.682   1.092   1.361 -0.4156  0.0392 -1.2034
17958TIP3    H175289   5.710   1.004   1.333 -0.9848  0.0770 -1.9330
17958TIP3    H275290   5.763   1.144   1.361 -0.3622  0.0240 -2.8003
17959TIP3   OH275291   2.849   3.587  10.947  0.2795  0.6996  0.1420
17959TIP3    H175292   2.895   3.671  10.956 -0.4834  1.1593 -0.1167
17959TIP3    H275293   2.798   3.579  11.028  1.3378 -0.1464  0.7429
17960TIP3   OH275294   0.486   0.838  15.195  0.0811 -0.0520 -0.2465
17960TIP3    H175295   0.426   0.882  15.136 -0.0823 -0.2558 -0.2340
17960TIP3    H275296   0.460   0.868  15.282  0.0194 -0.1121 -0.2440
17961TIP3   OH275297   5.595   2.268  12.427  0.1684 -0.1367  0.5563
17961TIP3    H175298   5.605   2.215  12.348 -2.7594 -1.0136  0.6395
17961TIP3    H275299   5.542   2.214  12.486 -0.6723  1.8358  1.7234
17962TIP3   OH275300   1.140   2.428   5.236  0.0801  0.0013  0.5205
17962TIP3    H175301   1.087   2.365   5.187 -0.2645 -0.0428  0.9519
17962TIP3    H275302   1.147   2.390   5.324 -1.1068  1.1246  1.1314
17963TIP3   OH275303   6.428   5.417  16.514  0.1659  0.2784  0.0998
17963TIP3    H175304   6.522   5.402  16.517  0.2859  0.7814 -0.9704
17963TIP3    H275305   6.408   5.433  16.422 -0.9306  0.4132  0.3408
17964TIP3   OH275306   6.298   1.556  10.698  0.5761 -0.0309  0.1647
17964TIP3    H175307   6.304   1.462  10.682 -0.9616  0.1235 -1.6703
17964TIP3    H275308   6.257   1.591  10.619  0.7137  2.1343  0.9909
17965TIP3   OH275309   4.384   6.379   2.894  0.6804  0.1698 -0.6415
17965TIP3    H175310   4.391   6.437   2.969  2.1964 -0.3044 -0.3829
17965TIP3    H275311   4.378   6.291   2.931  0.9811 -0.0323 -1.0566
17966TIP3   OH275312   4.326   6.558  12.035 -0.4568  0.1969  0.2918
17966TIP3    H175313   4.406   6.590  11.991 -0.4551 -1.4213 -0.9858
17966TIP3    H275314   4.274   6.637  12.048  1.0844  1.2210  0.6049
17967TIP3   OH275315   3.109   0.712  12.235  0.4676 -0.3062  0.0161
17967TIP3    H175316   3.134   0.776  12.302 -0.1594  0.2767 -0.2972
17967TIP3    H275317   3.164   0.635  12.254  5.9023  2.2268 -3.1813
17968TIP3   OH275318   4.241   0.040   5.531  0.2471  1.3729  0.0442
17968TIP3    H175319   4.285   0.122   5.551  0.3222  1.1539  0.8392
17968TIP3    H275320   4.304  -0.028   5.555  1.0567  1.0699 -2.6866
17969TIP3   OH275321   5.467   4.775   0.655  0.0905  0.1892  0.3260
17969TIP3    H175322   5.561   4.789   0.648  0.0858  0.6684  1.1433
17969TIP3    H275323   5.432   4.798   0.569  0.5975  1.0342  0.3428
17970TIP3   OH275324   5.250   1.666  15.156 -0.2452 -0.1502  0.4326
17970TIP3    H175325   5.313   1.616  15.105  1.6607 -0.3307  2.7780
17970TIP3    H275326   5.295   1.748  15.176 -1.8670  0.9361 -0.1598
17971TIP3   OH275327   4.662   0.850   4.763 -0.0771 -0.0432 -0.1204
17971TIP3    H175328   4.595   0.841   4.831  0.0321 -0.7550 -0.0941
17971TIP3    H275329   4.732   0.899   4.805 -0.8144  1.2193 -0.3280
17972TIP3   OH275330   0.927   1.869  15.187  0.3748 -0.4592 -0.1772
17972TIP3    H175331   0.952   1.795  15.243  1.2753  0.1890  0.2968
17972TIP3    H275332   1.008   1.918  15.173 -0.3309  0.8495  0.1267
17973TIP3   OH275333   6.324   0.418  11.614  0.2698 -0.6132  0.0093
17973TIP3    H175334   6.354   0.353  11.549 -1.1497 -1.7566  0.4351
17973TIP3    H275335   6.397   0.479  11.622  1.2264 -1.5219 -1.2599
17974TIP3   OH275336   5.082   3.030  16.706  0.0693  0.2649 -0.1927
17974TIP3    H175337   5.025   3.054  16.632  0.5245  0.9752 -0.3209
17974TIP3    H275338   5.050   3.083  16.779 -0.0453 -0.0521 -0.0081
17975TIP3   OH275339   3.598   4.831   4.726 -0.5301  0.4232  0.1821
17975TIP3    H175340   3.611   4.926   4.731  0.1250  0.3131  0.7732
17975TIP3    H275341   3.592   4.803   4.817  0.0925 -0.1984  0.0376
17976TIP3   OH275342   3.774   2.638   5.107  0.5379  0.0613  1.0492
17976TIP3    H175343   3.853   2.654   5.158  0.7721  0.6063  0.5307
17976TIP3    H275344   3.726   2.721   5.110  2.7284  1.7949 -3.3380
17977TIP3   OH275345   2.152   0.585  14.500  0.5724  0.0486  0.0802
17977TIP3    H175346   2.128   0.553  14.413  0.5335  1.4609 -0.4535
17977TIP3    H275347   2.237   0.627  14.487  0.1421  1.0853  0.5223
17978TIP3   OH275348   2.898   5.948   1.531 -0.1620  0.0095  0.4036
17978TIP3    H175349   2.972   5.965   1.590  0.8083  0.4432 -0.9057
17978TIP3    H275350   2.865   6.034   1.508 -0.4932 -0.1572  0.2518
17979TIP3   OH275351   6.200   3.295   3.995 -0.4023 -0.0540 -0.1616
17979TIP3    H175352   6.268   3.228   4.005  1.8063  1.8571 -1.5309
17979TIP3    H275353   6.156   3.272   3.914 -0.9193 -0.8759  0.3397
17980TIP3   OH275354   0.016   1.601  12.755 -0.5717  0.3052 -0.1738
17980TIP3    H175355  -0.051   1.541  12.722 -0.7404 -0.1752  0.9744
17980TIP3    H275356   0.019   1.672  12.691 -0.4175 -0.8846 -1.5396
17981TIP3   OH275357   0.443   6.112  14.539  0.1335 -0.2342 -0.2201
17981TIP3    H175358   0.522   6.162  14.562  0.6920 -1.4919  0.7178
17981TIP3    H275359   0.417   6.146  14.453  1.6974  0.2046 -0.5480
17982TIP3   OH275360   2.015   2.374   0.150  0.0526 -0.3461  0.4945
17982TIP3    H175361   2.056   2.373   0.237 -0.3306  0.5742  0.6991
17982TIP3    H275362   2.051   2.451   0.107 -1.9206  0.9149  0.9382
17983TIP3   OH275363   4.799   1.501   3.922  0.6318  0.1971  0.1322
17983TIP3    H175364   4.710   1.530   3.940  0.8272 -0.5768  2.8341
17983TIP3    H275365   4.797   1.407   3.940  2.5413  0.5984  3.1759
17984TIP3   OH275366   4.223   2.021  12.068  0.2250  0.6567 -0.5277
17984TIP3    H175367   4.136   2.059  12.061  0.0235  0.2515 -0.2211
17984TIP3    H275368   4.224   1.979  12.154 -0.0621 -1.3064 -1.4472
17985TIP3   OH275369   2.234   1.667   2.475  0.4980 -1.1097 -0.4068
17985TIP3    H175370   2.160   1.612   2.502  1.4237 -2.3421 -0.2785
17985TIP3    H275371   2.231   1.665   2.379 -0.7663  0.4639 -0.4403
17986TIP3   OH275372   5.517   5.167  12.848  0.4725 -0.7420 -0.5753
17986TIP3    H175373   5.432   5.210  12.850  1.4155  1.2732  1.1878
17986TIP3    H275374   5.558   5.198  12.768  0.4930  0.3553 -0.1554
17987TIP3   OH275375   2.749   3.477  12.365 -0.1184  0.5210  0.4101
17987TIP3    H175376   2.706   3.560  12.385 -1.1435  0.4404 -1.2869
17987TIP3    H275377   2.704   3.412  12.418 -0.4599  0.8037  0.4637
17988TIP3   OH275378   0.190   3.444   5.059 -0.1269 -0.0854 -0.3906
17988TIP3    H175379   0.158   3.414   4.975 -1.1412  1.1447 -0.4693
17988TIP3    H275380   0.229   3.530   5.041 -1.0031  0.5129  0.5010
17989TIP3   OH275381   4.826   4.164  13.917 -0.0485  0.0946  0.8106
17989TIP3    H175382   4.790   4.075  13.919  0.4845 -0.1529 -0.0529
17989TIP3    H275383   4.755   4.220  13.951 -0.6785 -0.5567  0.5864
17990TIP3   OH275384   3.104   6.221   4.628  0.2146  0.4169 -0.1890
17990TIP3    H175385   3.161   6.146   4.609  2.3351  1.8443  0.0750
17990TIP3    H275386   3.069   6.247   4.543  1.1641  0.3867 -0.6033
17991TIP3   OH275387   2.283   5.369   1.760 -0.1438 -0.1764 -0.2988
17991TIP3    H175388   2.338   5.318   1.819 -1.3996 -0.9210  0.2694
17991TIP3    H275389   2.265   5.310   1.686  1.1355  0.6304 -1.3052
17992TIP3   OH275390   2.702   4.812  12.240  0.4158 -0.4799  0.2233
17992TIP3    H175391   2.640   4.885  12.244 -0.3319 -1.1023  0.3900
17992TIP3    H275392   2.711   4.794  12.147 -1.4922 -1.8610  0.2378
17993TIP3   OH275393   2.732   0.824   5.891  0.2666 -0.5533 -0.4469
17993TIP3    H175394   2.818   0.851   5.924 -0.0990  0.3761 -0.2152
17993TIP3    H275395   2.740   0.827   5.796  0.1304  0.7794 -0.4329
17994TIP3   OH275396   1.616   3.920  16.297 -0.0078 -0.4973 -0.0448
17994TIP3    H175397   1.689   3.971  16.331  0.2976  0.5439 -2.0759
17994TIP3    H275398   1.644   3.829  16.304  1.1580 -0.1530 -0.0581
17995TIP3   OH275399   2.304   2.190  17.188 -0.0196  0.5637 -0.0831
17995TIP3    H175400   2.311   2.240  17.269  0.9856  2.0402 -1.0350
17995TIP3    H275401   2.252   2.245  17.129  0.8794  0.4034 -1.0597
17996TIP3   OH275402   4.189   0.528  12.137  0.1174  0.0835 -0.0977
17996TIP3    H175403   4.188   0.434  12.123  0.8112  0.0045  0.3275
17996TIP3    H275404   4.146   0.565  12.059  2.2974 -0.4319 -1.6513
17997TIP3   OH275405   3.251   6.505   2.954  0.0558  0.1793  0.2846
17997TIP3    H175406   3.224   6.526   2.865  0.9502  2.7558  0.5429
17997TIP3    H275407   3.169   6.486   3.000 -0.5580  0.3231 -0.7344
17998TIP3   OH275408   4.901   3.486  12.756 -0.4680  0.4166 -0.2332
17998TIP3    H175409   4.988   3.515  12.729  0.2754  1.2346  2.6629
17998TIP3    H275410   4.904   3.391  12.747  0.8153  0.4110 -0.0133
17999TIP3   OH275411   5.374   1.207  11.369  0.3522  0.1692  0.2468
17999TIP3    H175412   5.334   1.222  11.284  0.0118 -2.5035 -0.1455
17999TIP3    H275413   5.366   1.291  11.415 -2.1173  0.8613 -1.2641
18000TIP3   OH275414   1.881   5.683   1.756 -0.2433  0.1521  0.4743
18000TIP3    H175415   1.828   5.627   1.813  0.7810 -0.3129  0.9915
18000TIP3    H275416   1.966   5.688   1.799 -0.2297  1.9371  0.3173
18001TIP3   OH275417   5.346   0.732   3.172 -0.1805 -0.0947 -0.5583
18001TIP3    H175418   5.412   0.723   3.240 -1.4292 -1.4494  0.5387
18001TIP3    H275419   5.389   0.783   3.103  1.5354  0.2105  0.6805
18002TIP3   OH275420   6.203   4.689   1.244  0.1894 -0.0604  0.1560
18002TIP3    H175421   6.177   4.681   1.336  0.7111  1.0270  0.4182
18002TIP3    H275422   6.242   4.776   1.238 -0.0850 -0.0124 -1.1694
18003TIP3   OH275423   3.219   1.239  16.274 -0.8877 -0.0032 -0.0403
18003TIP3    H175424   3.150   1.191  16.228 -1.8946 -1.5075  2.7767
18003TIP3    H275425   3.300   1.193  16.252 -1.4888 -1.3512  0.4546
18004TIP3   OH275426   6.400   0.854  13.246 -0.1622 -0.2322 -0.0159
18004TIP3    H175427   6.350   0.878  13.168 -0.7699  0.6124  0.6118
18004TIP3    H275428   6.335   0.819  13.307  0.1750 -0.1493  0.4019
18005TIP3   OH275429   2.429   5.401  16.237 -1.0271  0.1650  0.0885
18005TIP3    H175430   2.525   5.397  16.244 -1.0213  1.2585  0.7997
18005TIP3    H275431   2.398   5.362  16.319 -1.1396  1.9649  0.9362
18006TIP3   OH275432   1.419   0.141  11.367  0.3823  0.0412  0.3387
18006TIP3    H175433   1.357   0.179  11.305  0.0843  2.8433  2.1963
18006TIP3    H275434   1.373   0.141  11.450  1.1625 -2.5920  0.8724
18007TIP3   OH275435   3.582   6.616   3.943 -0.3038 -0.1018 -0.5687
18007TIP3    H175436   3.515   6.655   3.887 -1.1801  0.0530  0.5342
18007TIP3    H275437   3.534   6.550   3.994  0.5793 -0.6260 -0.4069
18008TIP3   OH275438   0.586   1.755   6.216 -0.1724  0.5092 -0.3148
18008TIP3    H175439   0.676   1.726   6.198  0.3740  1.4855  0.7284
18008TIP3    H275440   0.589   1.787   6.306 -1.6064  0.4515 -0.2272
18009TIP3   OH275441   5.000   2.980   3.968  0.4641 -0.6176 -0.3012
18009TIP3    H175442   4.982   3.014   3.881  1.8463 -0.1941 -0.4425
18009TIP3    H275443   5.037   3.054   4.016 -4.0305  0.4051  2.0349
18010TIP3   OH275444   3.704   6.072  14.580  0.2582 -0.0211 -0.2998
18010TIP3    H175445   3.775   6.015  14.608 -0.3570  0.3079  2.1828
18010TIP3    H275446   3.736   6.161  14.596  0.1064  0.2442 -1.3566
18011TIP3   OH275447   4.799   3.484  16.434 -0.8078 -0.2601  0.2455
18011TIP3    H175448   4.878   3.482  16.488 -1.3758  1.0741  1.1637
18011TIP3    H275449   4.777   3.576  16.428 -2.1048 -0.5906 -0.3057
18012TIP3   OH275450   1.182   4.537  15.492 -0.1692 -0.2695  0.0509
18012TIP3    H175451   1.241   4.539  15.568  0.4809 -1.7762 -0.3636
18012TIP3    H275452   1.235   4.497  15.423 -1.4809 -1.0839 -0.5195
18013TIP3   OH275453   2.944   4.529  12.179  0.2764 -0.1377 -0.2130
18013TIP3    H175454   2.863   4.513  12.227  0.0591  1.7978  0.1571
18013TIP3    H275455   3.014   4.505  12.240  0.0050 -0.7073 -0.1181
18014TIP3   OH275456   4.591   1.002  14.537  0.1044  0.0474  0.5385
18014TIP3    H175457   4.621   1.084  14.575  1.9422  0.9379 -2.4443
18014TIP3    H275458   4.663   0.940  14.553 -0.7624 -0.6860  1.7430
18015TIP3   OH275459   5.838   4.231  16.241  0.2819 -0.0871  0.5456
18015TIP3    H175460   5.743   4.223  16.245  0.3459 -1.7181 -0.6132
18015TIP3    H275461   5.855   4.318  16.277 -1.8234  1.2188 -1.3251
18016TIP3   OH275462   6.591   3.006   0.335  0.5600  0.3499 -1.1869
18016TIP3    H175463   6.624   2.992   0.424 -0.2277  0.6330 -0.8440
18016TIP3    H275464   6.614   3.097   0.315 -1.8935  1.2890 -0.0929
18017TIP3   OH275465   3.940   1.890  16.033 -0.1473  0.5539 -0.2086
18017TIP3    H175466   3.927   1.796  16.044  1.0945  0.3837 -0.0666
18017TIP3    H275467   3.978   1.920  16.115 -0.9102  1.2656 -0.0988
18018TIP3   OH275468   0.708   3.108  13.710 -0.6364  0.1439 -0.0938
18018TIP3    H175469   0.764   3.042  13.669  0.4785 -0.6206  2.4827
18018TIP3    H275470   0.757   3.190  13.700 -0.6689  0.0889 -0.7681
18019TIP3   OH275471   3.152   6.549  11.075  0.3229  0.0246  0.3111
18019TIP3    H175472   3.234   6.545  11.026  0.3122 -0.8052  0.3377
18019TIP3    H275473   3.125   6.457  11.084 -0.5827  0.2809  0.3453
18020TIP3   OH275474   2.059   3.213   2.041 -0.0043  0.0110  0.2563
18020TIP3    H175475   2.030   3.247   1.956 -1.5902 -0.3210  0.6245
18020TIP3    H275476   2.104   3.286   2.083 -0.6329  0.6949 -0.2261
18021TIP3   OH275477   1.230   6.374   4.269 -0.1296  0.1994 -0.2767
18021TIP3    H175478   1.293   6.342   4.204 -1.0742  0.5996 -1.4305
18021TIP3    H275479   1.198   6.456   4.233  0.2855  1.1329  1.3569
18022TIP3   OH275480   4.423   2.531   0.007 -0.1734 -0.9011  0.0742
18022TIP3    H175481   4.449   2.479   0.083 -0.2448 -0.2039  0.5886
18022TIP3    H275482   4.329   2.543   0.018  0.1168  0.8431  0.9405
18023TIP3   OH275483   6.089   2.998  16.813 -0.3984  0.1175  0.3097
18023TIP3    H175484   6.154   2.935  16.782 -1.2456 -0.2838 -0.6702
18023TIP3    H275485   6.052   2.957  16.892 -0.5877 -0.3902 -0.0361
18024TIP3   OH275486   0.075   3.595  16.839  0.3443 -0.1981 -0.0172
18024TIP3    H175487   0.145   3.611  16.776  1.3627 -0.2128  1.0876
18024TIP3    H275488   0.025   3.522  16.801  2.9480 -2.5336  0.7539
18025TIP3   OH275489   6.009   3.806  11.121 -0.2452  0.5636  0.1543
18025TIP3    H175490   6.034   3.833  11.210  0.1063 -2.1035  0.9448
18025TIP3    H275491   5.945   3.736  11.134 -1.4921  1.2691 -1.7639
18026TIP3   OH275492   3.234   4.096  13.377 -0.5100 -0.5833 -0.1505
18026TIP3    H175493   3.223   4.019  13.321 -0.6184  0.2075 -1.2641
18026TIP3    H275494   3.157   4.096  13.432 -1.6210 -0.1128 -1.6304
18027TIP3   OH275495   3.203   4.018   2.156 -0.1038  0.4109  0.2942
18027TIP3    H175496   3.209   4.102   2.201  1.7176  0.7676 -0.5277
18027TIP3    H275497   3.278   3.968   2.189  0.0695 -0.0766 -0.7893
18028TIP3   OH275498   4.235   0.565  10.990  0.3381  0.3134  0.5349
18028TIP3    H175499   4.198   0.488  11.034 -0.2162  1.6952  2.6959
18028TIP3    H275500   4.326   0.567  11.019  1.1349 -0.9319 -1.6668
18029TIP3   OH275501   5.523   6.767  16.642 -0.1210  0.0637  0.6088
18029TIP3    H175502   5.504   6.685  16.689 -0.7673 -0.3139 -0.2940
18029TIP3    H275503   5.615   6.784  16.660 -0.0071 -0.8108  0.8862
18030TIP3   OH275504   1.286   6.049  13.285  0.5899 -0.5996  0.1462
18030TIP3    H175505   1.215   6.019  13.228  0.2649  2.5972 -1.3447
18030TIP3    H275506   1.365   6.010  13.247  0.2450  0.6149 -1.9683
18031TIP3   OH275507   4.558   0.558   4.698 -0.1970 -0.1678  0.5682
18031TIP3    H175508   4.620   0.533   4.766 -2.6382 -4.0685  1.7098
18031TIP3    H275509   4.496   0.617   4.741 -0.7632 -1.2748  1.3139
18032TIP3   OH275510   5.547   0.640   0.324  0.1540  0.7231 -0.2816
18032TIP3    H175511   5.454   0.651   0.305  0.1835  1.2995 -0.1137
18032TIP3    H275512   5.570   0.716   0.378  0.2452 -0.4616  1.4070
18033TIP3   OH275513   3.975   5.927   2.839  0.2539  0.6282  0.0040
18033TIP3    H175514   4.030   5.892   2.769  1.4192  0.3646  1.0225
18033TIP3    H275515   3.991   6.021   2.837 -2.2629  1.1600 -2.2002
18034TIP3   OH275516   0.507   6.646   4.085 -0.2780  0.4918  1.2350
18034TIP3    H175517   0.480   6.566   4.131  0.4049 -0.6007 -0.1742
18034TIP3    H275518   0.429   6.673   4.037  0.5075 -1.7546 -1.5722
18035TIP3   OH275519   2.483   4.165  12.931  0.2917  0.2293 -0.4159
18035TIP3    H175520   2.487   4.260  12.919  2.1559  0.6645  2.4936
18035TIP3    H275521   2.406   4.151  12.986  1.3941  0.4363  1.2482
18036TIP3   OH275522   3.316   2.666  14.962 -0.1784  0.0456 -0.5718
18036TIP3    H175523   3.286   2.747  14.922 -0.0166  0.4709  0.1496
18036TIP3    H275524   3.411   2.677  14.971 -0.3306  0.3540  0.7895
18037TIP3   OH275525   2.714   1.077   5.589  0.3100 -0.3192  0.1435
18037TIP3    H175526   2.734   1.069   5.496  1.8556 -0.2354  0.4432
18037TIP3    H275527   2.750   0.998   5.629  1.4328  0.5535  0.9241
18038TIP3   OH275528   0.490   0.049  14.264 -0.3225  0.2612  0.1196
18038TIP3    H175529   0.438   0.010  14.334 -0.8307  0.1268 -0.3229
18038TIP3    H275530   0.473  -0.007  14.188 -0.1854  0.7054 -0.2422
18039TIP3   OH275531   3.109   4.620   0.269 -0.4071  0.5841  0.0716
18039TIP3    H175532   3.168   4.588   0.201 -1.3026 -1.5343  0.2230
18039TIP3    H275533   3.116   4.557   0.340 -1.3526  1.3992  0.9352
18040TIP3   OH275534   3.528   3.438   1.348 -0.1334  0.0341 -0.1020
18040TIP3    H175535   3.435   3.457   1.357  0.1650  0.9156  1.7614
18040TIP3    H275536   3.565   3.516   1.305 -0.1013  0.2074  0.2318
18041TIP3   OH275537   2.895   5.638  13.038 -0.2436  0.7508  0.1332
18041TIP3    H175538   2.918   5.639  12.945 -1.2270 -2.6314 -0.2866
18041TIP3    H275539   2.818   5.694  13.045 -1.3523 -0.4767 -1.5388
18042TIP3   OH275540   0.459   4.371  13.335 -0.0708 -0.2730 -0.4119
18042TIP3    H175541   0.439   4.316  13.259 -1.5476  0.4314 -0.5598
18042TIP3    H275542   0.478   4.457  13.297 -1.3436  0.2180  0.0281
18043TIP3   OH275543   5.180   5.532  16.761  0.2189  0.0647 -0.1326
18043TIP3    H175544   5.146   5.582  16.835 -0.2060 -0.8264  0.2874
18043TIP3    H275545   5.255   5.583  16.730  1.2831 -0.2104  1.7806
18044TIP3   OH275546   5.324   4.332  14.462  0.5996 -0.5122 -0.4594
18044TIP3    H175547   5.333   4.241  14.433 -0.2758 -0.1317 -2.0090
18044TIP3    H275548   5.230   4.349  14.459  0.8388  0.7952 -1.3439
18045TIP3   OH275549   2.989   0.949   3.794  0.3324 -0.2092 -0.7367
18045TIP3    H175550   2.977   0.947   3.700 -0.5113 -0.7440 -0.6268
18045TIP3    H275551   2.925   0.886   3.828 -1.1117  1.7485  0.3652
18046TIP3   OH275552   0.106   6.012  13.123 -0.3539 -0.1980  0.0963
18046TIP3    H175553   0.129   6.105  13.118  1.5806 -0.6817 -1.6680
18046TIP3    H275554   0.066   6.001  13.210 -2.4462  2.5987 -0.3784
18047TIP3   OH275555   1.306   1.894  13.048 -0.2606 -0.5173 -0.0831
18047TIP3    H175556   1.334   1.982  13.025 -1.0959  0.5453  2.5350
18047TIP3    H275557   1.266   1.860  12.968 -0.1930  1.5925 -1.0872
18048TIP3   OH275558   3.711   3.586   5.551  0.5158  0.8499  0.1853
18048TIP3    H175559   3.674   3.615   5.467 -0.3834 -3.7002 -1.2847
18048TIP3    H275560   3.647   3.523   5.584  4.0730 -3.0116  0.4934
18049TIP3   OH275561   3.626   2.693  17.013  0.6621 -0.4382  0.4375
18049TIP3    H175562   3.568   2.692  17.089 -0.4007 -1.1256 -0.3343
18049TIP3    H275563   3.627   2.784  16.984 -1.5783 -0.6759 -0.6109
18050TIP3   OH275564   3.976   2.512   2.356 -0.0737  0.0476 -0.0482
18050TIP3    H175565   3.993   2.488   2.447 -2.1049 -0.6389  0.2014
18050TIP3    H275566   3.947   2.431   2.315 -1.6392  0.8669 -0.6325
18051TIP3   OH275567   4.169   4.263  11.287  0.1819  0.5211  0.5110
18051TIP3    H175568   4.186   4.271  11.194 -1.7965 -0.0254  0.0538
18051TIP3    H275569   4.170   4.169  11.304 -0.2975  0.5736  0.8587
18052TIP3   OH275570   3.927   4.382   2.356 -0.3438  0.1550 -0.5630
18052TIP3    H175571   3.910   4.290   2.334 -0.9450  0.4050 -1.2053
18052TIP3    H275572   3.979   4.414   2.282  0.4770  0.1580  0.0025
18053TIP3   OH275573   3.401   4.188   0.513 -0.1278  0.0788 -0.9389
18053TIP3    H175574   3.436   4.274   0.538  0.5828 -1.0004  2.0826
18053TIP3    H275575   3.308   4.193   0.533  0.3486 -0.6107  1.7462
18054TIP3   OH275576   3.806   6.255  16.745  0.2604 -0.0002 -0.4208
18054TIP3    H175577   3.745   6.328  16.739  0.5599  0.2009 -1.1094
18054TIP3    H275578   3.783   6.198  16.672  0.4226 -0.2887 -0.2503
18055TIP3   OH275579   0.350   1.593   1.871  0.1913  0.3820  0.7304
18055TIP3    H175580   0.314   1.507   1.888 -1.4675  0.6733 -0.9585
18055TIP3    H275581   0.437   1.592   1.912 -0.4181 -1.5055  2.0804
18056TIP3   OH275582   5.510   5.010  11.331  0.5319 -0.4273  0.7616
18056TIP3    H175583   5.518   4.916  11.315  0.3938 -0.3760  0.3957
18056TIP3    H275584   5.417   5.026  11.340  0.3727 -0.0163 -1.1293
18057TIP3   OH275585   2.788   2.889   2.830  0.0427 -0.1966 -0.2259
18057TIP3    H175586   2.845   2.966   2.835  1.9269 -1.4792 -0.5140
18057TIP3    H275587   2.835   2.829   2.771 -2.6063 -0.5812 -2.1347
18058TIP3   OH275588   3.684   3.875  12.817  0.2361  0.1045 -0.4146
18058TIP3    H175589   3.767   3.829  12.806 -0.0770 -0.6337  0.1681
18058TIP3    H275590   3.698   3.933  12.892  0.6653  1.0524 -1.2187
18059TIP3   OH275591   2.352   5.857  17.052  0.2860  0.2321  0.2032
18059TIP3    H175592   2.354   5.840  17.146 -0.5961 -0.0267  0.1927
18059TIP3    H275593   2.269   5.902  17.038  1.3278  2.1196 -0.1800
18060TIP3   OH275594   1.657   1.079  10.768  0.5114 -0.3027  0.0125
18060TIP3    H175595   1.606   1.144  10.817 -1.3860 -0.3882 -1.7180
18060TIP3    H275596   1.673   1.009  10.831  0.5770  0.8013  1.2651
18061TIP3   OH275597   5.672   1.880   2.851  0.3256 -0.1746 -0.7389
18061TIP3    H175598   5.734   1.820   2.891  0.2968 -0.0928 -0.5726
18061TIP3    H275599   5.640   1.834   2.773  1.8601  0.4412 -1.7871
18062TIP3   OH275600   5.367   1.955  10.131  0.9811  0.0357 -0.9198
18062TIP3    H175601   5.369   1.859  10.134  2.1098  0.0523 -0.7648
18062TIP3    H275602   5.459   1.981  10.131  0.7025  1.1062 -1.6865
18063TIP3   OH275603   6.590   1.891   1.006 -0.3723  0.1808 -0.2403
18063TIP3    H175604   6.629   1.971   1.042 -0.6147  0.1778  0.0279
18063TIP3    H275605   6.665   1.834   0.988 -0.3186 -0.5255  1.9298
18064TIP3   OH275606   4.798   5.561  16.220 -0.2875  0.2397  0.2595
18064TIP3    H175607   4.726   5.512  16.259 -2.2294  2.7115  0.0123
18064TIP3    H275608   4.807   5.639  16.275  1.1158  0.7947 -0.6817
18065TIP3   OH275609   6.009   1.743   5.548  0.6304 -0.4370  0.6598
18065TIP3    H175610   6.023   1.665   5.601  2.0819 -1.9551 -1.7627
18065TIP3    H275611   6.097   1.769   5.520  0.0626  1.3395  0.3574
18066TIP3   OH275612   5.947   1.931  15.656  0.2093 -0.2018  0.0428
18066TIP3    H175613   5.883   1.993  15.693 -1.0226 -0.4773 -1.5197
18066TIP3    H275614   5.982   1.976  15.579 -0.8825 -1.5057 -1.2577
18067TIP3   OH275615   0.573   3.971   3.803  0.4884  0.0143 -0.2205
18067TIP3    H175616   0.519   4.009   3.733 -2.5071 -2.9988  0.2254
18067TIP3    H275617   0.533   4.003   3.884 -0.6381 -2.0690  0.1101
18068TIP3   OH275618   4.620   2.150  13.506 -0.0330  0.3532  0.0550
18068TIP3    H175619   4.596   2.223  13.562 -1.1381 -0.0525  0.1370
18068TIP3    H275620   4.601   2.181  13.417  2.1158  1.1516 -0.1787
18069TIP3   OH275621   4.832   6.680  13.988 -0.1678  0.0436 -0.1095
18069TIP3    H175622   4.751   6.642  14.021 -1.5107  3.3798  0.7925
18069TIP3    H275623   4.889   6.687  14.064 -0.5957  1.3027  0.1228
18070TIP3   OH275624   0.074   2.273   0.574 -0.1286  0.2231  0.3492
18070TIP3    H175625   0.130   2.244   0.502  0.0041  0.0223  0.5324
18070TIP3    H275626   0.034   2.192   0.607  0.4137  0.2108  1.0075
18071TIP3   OH275627   2.978   2.190  14.250 -0.0172 -0.2919  0.6069
18071TIP3    H175628   2.896   2.237  14.268 -0.2550 -1.0400  1.5704
18071TIP3    H275629   3.040   2.258  14.227 -0.5547  0.4298  1.2432
18072TIP3   OH275630   2.965   4.568   1.206 -0.3297  0.2446  0.0991
18072TIP3    H175631   2.888   4.552   1.151 -0.5682 -0.5033  0.6314
18072TIP3    H275632   2.953   4.509   1.281  1.3458 -0.7792 -0.3913
18073TIP3   OH275633   4.690   2.607   4.741 -0.1471  0.1219 -0.3952
18073TIP3    H175634   4.602   2.604   4.779  0.3421 -0.9446  0.6866
18073TIP3    H275635   4.707   2.518   4.710 -0.2830  0.7990 -2.6548
18074TIP3   OH275636   5.553   5.603  11.884 -0.3132 -0.0343 -0.2729
18074TIP3    H175637   5.577   5.675  11.825 -0.5133 -1.9943 -2.9404
18074TIP3    H275638   5.469   5.629  11.921  0.4859  1.8852  0.3459
18075TIP3   OH275639   2.916   4.804  12.042  0.1060 -0.3732  0.0817
18075TIP3    H175640   2.949   4.742  12.107 -1.3366 -0.2427  1.0052
18075TIP3    H275641   2.881   4.749  11.972  0.5730 -0.5501 -0.0123
18076TIP3   OH275642   3.967   1.841  11.568 -0.1424 -0.4173  0.3911
18076TIP3    H175643   4.012   1.924  11.551 -0.2710 -0.5131 -0.4717
18076TIP3    H275644   3.988   1.821  11.659  0.3117  0.3027  0.4582
18077TIP3   OH275645   0.672   1.834  11.811  0.1029  0.2242 -0.6648
18077TIP3    H175646   0.644   1.854  11.901 -0.7452  2.4589 -1.3401
18077TIP3    H275647   0.594   1.798  11.769  0.4808 -0.7574 -0.5476
18078TIP3   OH275648   6.568   0.827  16.931  0.3450 -0.0985 -0.1422
18078TIP3    H175649   6.652   0.804  16.969  0.4064 -1.9094 -1.2535
18078TIP3    H275650   6.589   0.861  16.844 -0.0606 -1.1363 -0.6719
18079TIP3   OH275651   0.957   5.026   1.346 -0.0328 -0.4183  0.1820
18079TIP3    H175652   0.879   5.081   1.335  0.2061  0.0549  0.7988
18079TIP3    H275653   1.012   5.047   1.269 -0.1088 -0.0663  0.2220
18080TIP3   OH275654   0.626   0.189  16.195  0.3211 -0.2077  0.2766
18080TIP3    H175655   0.621   0.174  16.290 -0.5664  0.9988  0.4293
18080TIP3    H275656   0.690   0.124  16.165  1.3956  0.0603  1.8435
18081TIP3   OH275657   1.027   4.029   4.912  0.3417 -0.0171 -0.0436
18081TIP3    H175658   1.029   3.963   4.843 -0.7016  1.0926 -1.1821
18081TIP3    H275659   0.935   4.053   4.921  0.5238  0.2935  1.3365
18082TIP3   OH275660   2.584   5.500   3.374 -0.0621  0.5419  0.2578
18082TIP3    H175661   2.639   5.442   3.427 -1.5410 -1.7080 -0.5315
18082TIP3    H275662   2.567   5.576   3.431  0.5998 -0.5318  1.9658
18083TIP3   OH275663   0.494   1.425  14.773 -0.0270 -0.3062 -0.2080
18083TIP3    H175664   0.411   1.468  14.751  0.4851  0.0431 -1.6144
18083TIP3    H275665   0.469   1.344  14.816 -1.1036 -0.1890 -0.5829
18084TIP3   OH275666   1.800   2.109   4.165  0.6134 -0.1189  1.0060
18084TIP3    H175667   1.855   2.032   4.182  0.6147 -0.3701 -0.1056
18084TIP3    H275668   1.713   2.083   4.197  0.0308 -1.5159 -1.4262
18085TIP3   OH275669   3.236   4.454   3.087 -0.2002  0.3833 -0.0738
18085TIP3    H175670   3.305   4.412   3.138  0.7281  0.5284 -1.1693
18085TIP3    H275671   3.235   4.545   3.117  0.7453  0.6112 -0.7104
18086TIP3   OH275672   1.395   1.183  14.090 -0.4818  0.0883  0.4895
18086TIP3    H175673   1.490   1.181  14.080 -0.5321  0.3518 -0.0735
18086TIP3    H275674   1.381   1.219  14.178 -0.0695  0.6647  0.3281
18087TIP3   OH275675   3.234   3.999  13.724 -0.4568 -0.4545  0.5582
18087TIP3    H175676   3.225   4.092  13.703  1.7634  0.4600  3.0680
18087TIP3    H275677   3.310   3.970  13.673  1.2229  0.2095  2.5359
18088TIP3   OH275678   1.580   3.309  14.462 -0.6251  0.0401 -0.4813
18088TIP3    H175679   1.581   3.349  14.375  1.0384 -1.0662 -1.0119
18088TIP3    H275680   1.657   3.253  14.464  0.2017  1.1101  2.2453
18089TIP3   OH275681   6.130   3.875  14.859 -0.8144  0.2772 -0.2350
18089TIP3    H175682   6.124   3.812  14.931  1.1897  1.5444  1.1610
18089TIP3    H275683   6.119   3.960  14.900 -0.5648  0.9984 -1.5918
18090TIP3   OH275684   6.143   1.191  11.619  0.5749 -0.1614 -0.0699
18090TIP3    H175685   6.107   1.219  11.535  0.3416  0.6544  0.2910
18090TIP3    H275686   6.136   1.268  11.675 -0.9783 -1.2117  1.2615
18091TIP3   OH275687   0.639   3.061  12.243  0.0842  0.2201 -0.1991
18091TIP3    H175688   0.682   3.009  12.176  0.2479 -2.4900  1.8315
18091TIP3    H275689   0.701   3.060  12.317 -1.8047 -0.6250  1.4799
18092TIP3   OH275690   1.106   3.229  15.454  0.0262  0.1537  0.3407
18092TIP3    H175691   1.169   3.230  15.382 -0.2817  0.7035  0.0805
18092TIP3    H275692   1.156   3.260  15.530  0.5279 -1.0326  0.5223
18093TIP3   OH275693   4.512   2.694   3.379 -0.3896 -0.0268 -0.2460
18093TIP3    H175694   4.446   2.661   3.440  1.0018 -1.1601  0.7366
18093TIP3    H275695   4.496   2.646   3.298  0.5344 -1.9416  0.6491
18094TIP3   OH275696   3.031   0.891   3.212 -0.0518  0.2501  0.7438
18094TIP3    H175697   3.122   0.887   3.182 -0.4525 -0.4661 -0.4422
18094TIP3    H275698   2.981   0.851   3.141 -1.6286  3.1452  0.0608
18095TIP3   OH275699   0.782   2.892   1.241  0.2552 -0.1816  0.6404
18095TIP3    H175700   0.768   2.822   1.305  0.2961 -0.1278  0.7084
18095TIP3    H275701   0.765   2.973   1.291 -1.9602 -0.2012  0.0344
18096TIP3   OH275702   4.672   6.694  16.191 -0.7551  0.6232  0.7409
18096TIP3    H175703   4.710   6.641  16.121 -2.7330 -1.6109  1.2212
18096TIP3    H275704   4.664   6.782  16.154  1.5804  0.3912 -0.5047
18097TIP3   OH275705   3.384   4.164  11.929 -0.3511 -0.5593 -0.3730
18097TIP3    H175706   3.426   4.109  11.995 -0.2733  0.6062  0.5770
18097TIP3    H275707   3.301   4.120  11.910 -0.4178 -0.8529  0.5821
18098TIP3   OH275708   1.888   3.789   5.431 -0.2902  0.6080  0.2080
18098TIP3    H175709   1.896   3.782   5.526 -1.1901  0.1080  0.2593
18098TIP3    H275710   1.976   3.773   5.398 -0.7237 -3.8943  0.7312
18099TIP3   OH275711   5.886   1.200  14.250 -0.1445 -0.2392  0.0044
18099TIP3    H175712   5.928   1.245  14.177  0.6770 -0.5309  0.2958
18099TIP3    H275713   5.948   1.133  14.277  0.4365  1.0785  2.2114
18100TIP3   OH275714   5.381   2.656  15.090 -0.1562 -0.1710 -0.6120
18100TIP3    H175715   5.311   2.718  15.112 -0.4153 -0.7654  0.2941
18100TIP3    H275716   5.427   2.642  15.172  1.7276  1.0272 -1.3956
18101TIP3   OH275717   1.324   2.855  15.731  0.0282 -0.1001  0.6749
18101TIP3    H175718   1.343   2.828  15.821 -0.9916 -0.2294  0.8542
18101TIP3    H275719   1.241   2.813  15.710  0.7506 -0.9269 -0.6924
18102TIP3   OH275720   5.947   3.579   1.579  0.2033  0.7376  0.3416
18102TIP3    H175721   5.927   3.664   1.616 -0.0944  0.2464  1.3563
18102TIP3    H275722   6.033   3.589   1.540 -1.1085  2.3634 -2.4010
18103TIP3   OH275723   2.841   1.045  17.004 -0.3116 -0.7448 -0.1266
18103TIP3    H175724   2.895   1.094  17.065  0.8307  0.3683 -1.9439
18103TIP3    H275725   2.757   1.091  17.005  0.2421  0.3119 -0.6237
18104TIP3   OH275726   2.065   3.367  15.384 -0.3112  0.6937  0.0439
18104TIP3    H175727   1.978   3.330  15.369  0.0383 -0.8036  1.4732
18104TIP3    H275728   2.109   3.360  15.299 -1.2144  0.4520 -0.4154
18105TIP3   OH275729   6.387   1.139  10.425 -0.8308  0.4364 -0.0421
18105TIP3    H175730   6.302   1.101  10.443 -1.3002 -0.1917 -3.0058
18105TIP3    H275731   6.400   1.204  10.494 -2.1378 -1.7648  2.4274
18106TIP3   OH275732   3.326   5.590  12.460  0.3728  0.3828 -0.5911
18106TIP3    H175733   3.302   5.580  12.368  0.1084  2.3884 -0.7713
18106TIP3    H275734   3.348   5.682  12.470 -0.6372  0.4590  1.5902
18107TIP3   OH275735   6.198   1.538   3.534 -0.7430  0.1806  0.2652
18107TIP3    H175736   6.258   1.593   3.585 -1.5197  0.2661  1.1052
18107TIP3    H275737   6.215   1.449   3.566  2.0106 -0.4776 -2.5315
18108TIP3   OH275738   6.382   4.491   3.758  0.1357 -0.1887  0.0231
18108TIP3    H175739   6.430   4.418   3.718 -0.3423  0.7361 -2.4402
18108TIP3    H275740   6.450   4.543   3.802  1.0882 -0.1262 -1.4353
18109TIP3   OH275741   0.236   6.370   5.595  0.6761 -0.1005 -0.1612
18109TIP3    H175742   0.211   6.403   5.508  0.9105  0.1602 -0.1334
18109TIP3    H275743   0.328   6.344   5.584  0.6100 -0.3663 -0.0758
18110TIP3   OH275744   1.141   2.169   1.372  0.1265 -0.2550  0.5271
18110TIP3    H175745   1.118   2.237   1.436 -2.1467  0.0698 -0.5262
18110TIP3    H275746   1.099   2.090   1.404  1.4723 -0.8205  0.9428
18111TIP3   OH275747   4.070   0.436  11.444 -0.1673  0.2455  0.7704
18111TIP3    H175748   4.009   0.362  11.442 -1.4235  1.2187 -2.5362
18111TIP3    H275749   4.021   0.506  11.486 -0.6407  0.4453 -0.0911
18112TIP3   OH275750   0.537   0.109   3.790 -0.0420  0.0518 -0.1084
18112TIP3    H175751   0.576   0.030   3.753  1.0655 -0.5218  2.1362
18112TIP3    H275752   0.443   0.090   3.791  0.2637 -1.6557  1.1964
18113TIP3   OH275753   3.168   2.546  10.611  0.3215 -0.4907  0.1115
18113TIP3    H175754   3.151   2.451  10.615 -1.3549 -0.2229  0.2028
18113TIP3    H275755   3.096   2.585  10.661 -0.2835  0.9392 -1.7409
18114TIP3   OH275756   2.147   0.534  16.848  0.1870  0.1964 -0.0020
18114TIP3    H175757   2.188   0.469  16.792 -0.1092  1.5907 -1.9420
18114TIP3    H275758   2.058   0.544  16.814  0.4115  2.0173 -0.1760
18115TIP3   OH275759   5.742   6.092   0.589 -0.0429 -0.0325 -0.3982
18115TIP3    H175760   5.672   6.146   0.552 -1.7588 -1.3218  0.7844
18115TIP3    H275761   5.793   6.153   0.642 -0.1167  0.9844 -1.4478
18116TIP3   OH275762   2.166   0.354   6.198 -0.1338  0.1944 -0.2355
18116TIP3    H175763   2.239   0.353   6.261 -0.6449  0.1978  0.3708
18116TIP3    H275764   2.101   0.411   6.239 -0.8590 -0.5543 -0.3347
18117TIP3   OH275765   6.392   1.250  16.363  0.1196  0.0071 -0.3671
18117TIP3    H175766   6.316   1.307  16.350 -0.6564 -0.5210  1.4286
18117TIP3    H275767   6.354   1.163  16.376  1.2214 -0.7571 -2.0011
18118TIP3   OH275768   0.263   4.456  14.224 -0.0678  0.1064  0.1698
18118TIP3    H175769   0.283   4.476  14.316 -1.5919  0.2991  0.4735
18118TIP3    H275770   0.300   4.369  14.210 -1.2054 -0.6075  1.4292
18119TIP3   OH275771   2.196   4.978  15.375 -0.6413 -0.0723 -0.3243
18119TIP3    H175772   2.180   4.887  15.400 -2.9381  0.9249  2.3835
18119TIP3    H275773   2.260   5.010  15.439 -1.9234  0.8871  0.5355
18120TIP3   OH275774   3.559   3.264   5.142  0.4410 -0.0133  0.4588
18120TIP3    H175775   3.612   3.316   5.081  0.9852  0.9354  1.6909
18120TIP3    H275776   3.473   3.260   5.101  0.3799  1.8964  0.3105
18121TIP3   OH275777   0.011   6.130   5.070 -0.0886 -0.4839  0.2480
18121TIP3    H175778   0.068   6.192   5.115 -2.4041  1.4355  0.7575
18121TIP3    H275779   0.031   6.045   5.110  1.3617  0.3416  1.3805
18122TIP3   OH275780   4.949   2.207   4.330 -0.1955  0.2431  0.3389
18122TIP3    H175781   4.931   2.179   4.241 -1.7718  0.7517  0.4723
18122TIP3    H275782   5.007   2.139   4.365  3.2762  1.6533 -2.0517
18123TIP3   OH275783   5.937   5.404  12.714  0.4125  0.0526 -0.0338
18123TIP3    H175784   5.980   5.319  12.703 -2.1239 -1.4790  0.8946
18123TIP3    H275785   5.953   5.428  12.805  1.7446  0.9659 -0.4963
18124TIP3   OH275786   5.096   0.822   3.827 -0.6057  0.1109 -0.1991
18124TIP3    H175787   5.074   0.898   3.773 -1.1513  1.5585  1.9197
18124TIP3    H275788   5.036   0.753   3.797 -0.0208  0.4053 -2.2445
18125TIP3   OH275789   5.016   0.397   0.302 -0.0397  0.2459 -0.2860
18125TIP3    H175790   5.051   0.486   0.308  0.3605  0.0590  0.2107
18125TIP3    H275791   5.010   0.380   0.208 -1.0257  1.1439 -0.4113
18126TIP3   OH275792   4.049   3.246   1.124  0.6054 -0.5126 -0.0050
18126TIP3    H175793   4.110   3.220   1.192  2.0842 -1.0255 -1.4622
18126TIP3    H275794   4.102   3.250   1.044 -1.5582 -2.8227 -1.7322
18127TIP3   OH275795   4.471   5.771   3.978  0.1184 -0.6398  0.5492
18127TIP3    H175796   4.487   5.759   3.884  0.9253  1.3227  0.3707
18127TIP3    H275797   4.399   5.834   3.981  0.3062 -0.4503  1.2232
18128TIP3   OH275798   0.976   0.804  16.306 -0.0655  0.2296  0.6705
18128TIP3    H175799   0.982   0.899  16.313 -0.3163  0.2334  0.8611
18128TIP3    H275800   0.901   0.781  16.361  1.4396 -0.3065  2.6305
18129TIP3   OH275801   4.035   1.834  13.090 -0.3131 -0.0866 -0.6952
18129TIP3    H175802   4.096   1.866  13.024 -0.7719 -1.4076 -1.8168
18129TIP3    H275803   4.085   1.834  13.172  0.8643 -0.1626 -1.3993
18130TIP3   OH275804   2.519   0.691  12.688  0.4367 -0.4006 -0.0213
18130TIP3    H175805   2.581   0.630  12.649 -0.9420 -2.4463  0.7759
18130TIP3    H275806   2.451   0.703  12.622 -0.9784 -2.4539  0.9298
18131TIP3   OH275807   4.365   0.544  16.421 -0.3603  0.0355 -0.0785
18131TIP3    H175808   4.352   0.622  16.474 -3.4911 -0.3314 -0.0856
18131TIP3    H275809   4.397   0.577  16.337  0.4129  1.0490  0.5864
18132TIP3   OH275810   4.960   1.161   3.879  0.1711 -0.5051  0.0018
18132TIP3    H175811   5.000   1.137   3.796  1.8965 -0.3475  0.7484
18132TIP3    H275812   4.986   1.092   3.940 -1.2348 -0.7276  0.4001
18133TIP3   OH275813   4.510   5.658  15.839 -0.2732  0.1318  0.8140
18133TIP3    H175814   4.594   5.639  15.879  0.4792  0.5585 -0.4868
18133TIP3    H275815   4.468   5.572  15.829  0.6675 -0.2646  0.1121
18134TIP3   OH275816   2.137   2.552  17.031 -0.3188 -0.4710 -0.0842
18134TIP3    H175817   2.111   2.589  17.115 -0.3097  0.4195 -0.4632
18134TIP3    H275818   2.057   2.552  16.978 -0.0045  0.4052 -0.5819
18135TIP3   OH275819   4.346   5.227  16.156 -0.3518 -0.0426  0.5834
18135TIP3    H175820   4.332   5.249  16.064 -1.4851 -0.8216  0.5505
18135TIP3    H275821   4.441   5.228  16.166 -0.2043 -0.0402 -0.6105
18136TIP3   OH275822   6.605   4.654   0.569  0.1215 -0.3875 -0.0301
18136TIP3    H175823   6.629   4.740   0.604  2.2849  0.7499 -3.7485
18136TIP3    H275824   6.519   4.666   0.529 -0.2283 -0.3885  0.7107
18137TIP3   OH275825   2.523   6.552   3.951  0.0041 -0.1540  0.2189
18137TIP3    H175826   2.567   6.595   3.877  1.6028 -2.1435 -0.0969
18137TIP3    H275827   2.431   6.574   3.941  0.4440  1.1842 -1.2704
18138TIP3   OH275828   5.942   5.762   0.820  0.1479  0.1809 -0.2230
18138TIP3    H175829   5.850   5.775   0.797 -0.4081  2.2206  2.6540
18138TIP3    H275830   5.989   5.781   0.739 -1.8538  1.7572 -1.1195
18139TIP3   OH275831   4.991   3.831   4.646  0.1050  0.6807  0.1024
18139TIP3    H175832   4.974   3.829   4.740  2.3306 -1.6318  0.5489
18139TIP3    H275833   4.937   3.760   4.611 -0.7689  1.5765 -0.4413
18140TIP3   OH275834   0.986   2.929   1.880 -0.1658  0.8166 -0.1260
18140TIP3    H175835   0.959   3.015   1.911 -1.5999  0.4045 -0.2000
18140TIP3    H275836   0.918   2.902   1.818  0.5435 -0.1409 -0.5258
18141TIP3   OH275837   0.128   1.753   4.793 -0.3118  0.0273  0.2482
18141TIP3    H175838   0.157   1.723   4.707 -1.0823 -1.3065  0.4214
18141TIP3    H275839   0.062   1.689   4.820 -1.0697  1.1793  1.2430
18142TIP3   OH275840   6.011   1.299  10.468  0.3466 -0.5070  0.6372
18142TIP3    H175841   6.074   1.227  10.478  2.6378  1.5567  2.5586
18142TIP3    H275842   6.064   1.374  10.440 -2.0267  0.4145 -1.8426
18143TIP3   OH275843   0.553   2.672   0.888 -0.6760 -0.1359 -0.2374
18143TIP3    H175844   0.535   2.631   0.973 -0.6416  0.1690 -0.0809
18143TIP3    H275845   0.648   2.669   0.879 -0.4159  2.1778  0.9501
18144TIP3   OH275846   0.399   2.481  16.840 -0.6185  0.4524 -0.4415
18144TIP3    H175847   0.492   2.501  16.828 -0.5083  0.7739  0.8076
18144TIP3    H275848   0.395   2.386  16.850 -0.6657  0.2136 -2.3197
18145TIP3   OH275849   3.128   4.603  13.644  0.3359  0.0482  0.4062
18145TIP3    H175850   3.101   4.678  13.697  1.1973  1.7847 -1.4734
18145TIP3    H275851   3.223   4.607  13.643  0.3988 -1.1637  0.3713
18146TIP3   OH275852   4.236   3.510   4.777  0.1940  0.5706  0.7732
18146TIP3    H175853   4.141   3.508   4.787  0.1345  1.5478  0.4431
18146TIP3    H275854   4.251   3.496   4.683  0.3757  0.5344  0.8069
18147TIP3   OH275855   6.584   2.852  14.255  0.0099 -0.2768 -0.2555
18147TIP3    H175856   6.576   2.861  14.160  0.4813 -0.8983 -0.3645
18147TIP3    H275857   6.655   2.912  14.279 -0.2249  0.0070 -0.2699
18148TIP3   OH275858   6.174   5.665   0.015  0.1757  0.0616 -0.4640
18148TIP3    H175859   6.270   5.671   0.016  0.1966  0.3502  1.7553
18148TIP3    H275860   6.156   5.581  -0.026  1.2945  0.5294 -2.0375
18149TIP3   OH275861   4.487   2.126   1.391  0.0424 -0.5830  0.5657
18149TIP3    H175862   4.573   2.099   1.424  1.0247 -0.8229 -1.9900
18149TIP3    H275863   4.428   2.055   1.415  1.1612 -1.7523 -0.0446
18150TIP3   OH275864   3.648   1.938  13.214  0.0730 -0.5946  0.4809
18150TIP3    H175865   3.587   1.926  13.142  1.4827 -0.8521 -0.7256
18150TIP3    H275866   3.708   2.007  13.185 -0.4477  0.6725  2.2160
18151TIP3   OH275867   0.570   4.550  16.988 -0.0390 -0.8990 -0.1367
18151TIP3    H175868   0.600   4.533  17.077  0.1767  0.1493 -0.0037
18151TIP3    H275869   0.649   4.573  16.940 -0.3368 -0.1186 -0.2652
18152TIP3   OH275870   0.893   6.077  15.328 -0.7513  0.7390  0.0947
18152TIP3    H175871   0.839   5.998  15.327  1.0943 -0.6786  1.8942
18152TIP3    H275872   0.967   6.056  15.271 -0.7157  1.5545 -0.1698
18153TIP3   OH275873   1.603   6.104   0.935 -0.1607  0.2164 -0.4061
18153TIP3    H175874   1.586   6.169   0.867  1.4354 -0.0789 -1.1334
18153TIP3    H275875   1.641   6.154   1.007 -0.1989  0.2822 -0.4315
18154TIP3   OH275876   1.620   0.952   1.769  1.2195 -0.3262 -0.7737
18154TIP3    H175877   1.682   0.913   1.707  1.6759  0.8451 -1.0669
18154TIP3    H275878   1.610   1.042   1.741  1.4793  0.2615  0.8766
18155TIP3   OH275879   0.365   6.512   2.909  1.1775  0.4625 -0.4507
18155TIP3    H175880   0.375   6.607   2.904  2.8549  0.3405 -0.1044
18155TIP3    H275881   0.329   6.497   2.997  1.9220  0.7379 -0.0836
18156TIP3   OH275882   5.482   5.171   4.365  0.1663 -0.0111 -0.0800
18156TIP3    H175883   5.543   5.245   4.372  0.3572 -0.2771  1.3352
18156TIP3    H275884   5.499   5.118   4.443 -0.7132 -0.9871 -0.5256
18157TIP3   OH275885   4.813   2.823   4.088 -0.0183  0.4647 -0.3717
18157TIP3    H175886   4.748   2.882   4.128 -0.1449  0.4714 -0.5823
18157TIP3    H275887   4.882   2.882   4.056  0.0118  0.4720 -0.2913
18158TIP3   OH275888   0.105   1.143  16.512 -0.4408 -0.4289  0.2918
18158TIP3    H175889   0.104   1.214  16.576 -3.4430  0.3449 -0.4400
18158TIP3    H275890   0.193   1.106  16.518  0.7431  2.3524  1.7791
18159TIP3   OH275891   4.991   1.353   5.624 -0.3519  0.1518  0.0248
18159TIP3    H175892   4.913   1.353   5.679 -0.8945 -0.5831 -0.7115
18159TIP3    H275893   4.996   1.263   5.591  1.9702 -0.4335  1.6777
18160TIP3   OH275894   1.908   2.206   1.166  0.6336 -0.1646 -0.2140
18160TIP3    H175895   1.848   2.276   1.141 -0.4114 -1.4413 -1.4135
18160TIP3    H275896   1.993   2.232   1.130  0.5978  1.1416  0.5860
18161TIP3   OH275897   4.843   1.911   2.223 -0.2707  0.0367  0.7772
18161TIP3    H175898   4.792   1.945   2.296  0.9012  1.8247  0.8359
18161TIP3    H275899   4.870   1.989   2.174  0.7481 -0.9773 -0.3581
18162TIP3   OH275900   3.709   2.591   0.707  0.0885 -0.5699  0.3697
18162TIP3    H175901   3.793   2.575   0.664  0.3291  0.2101  0.5439
18162TIP3    H275902   3.710   2.533   0.783  0.9990  0.3082  1.0559
18163TIP3   OH275903   6.227   0.866   3.788 -0.4085  0.3309 -0.0357
18163TIP3    H175904   6.223   0.810   3.710 -2.3775  0.9166 -0.4144
18163TIP3    H275905   6.142   0.852   3.830  1.1316 -1.0908  2.8566
18164TIP3   OH275906   5.316   2.472  11.726  0.5154 -0.2677 -0.2894
18164TIP3    H175907   5.365   2.553  11.745  0.3237 -0.3359  0.5470
18164TIP3    H275908   5.284   2.484  11.637 -1.8925  1.8332  0.7448
18165TIP3   OH275909   2.402   2.069   3.566  0.2563  0.2622 -0.4427
18165TIP3    H175910   2.429   2.144   3.513 -0.2771  1.1020  0.4373
18165TIP3    H275911   2.319   2.041   3.529  0.7831 -0.3538 -1.2030
18166TIP3   OH275912   2.194   5.191   1.533  0.2121 -0.5656 -0.2069
18166TIP3    H175913   2.139   5.128   1.488  0.5710 -1.0323 -0.0014
18166TIP3    H275914   2.263   5.213   1.470  0.1674 -0.4842 -0.2280
18167TIP3   OH275915   3.504   3.155   6.556  0.2057 -0.1899  0.0515
18167TIP3    H175916   3.424   3.115   6.523  0.6201 -0.4863 -0.6189
18167TIP3    H275917   3.552   3.181   6.478  1.1429 -0.7703  0.4158
18168TIP3   OH275918   3.231   6.096  16.552  0.2752  0.2136  0.0261
18168TIP3    H175919   3.163   6.148  16.594  0.2277 -0.2756  0.5603
18168TIP3    H275920   3.312   6.142  16.572  0.1268  0.7529 -0.5429
18169TIP3   OH275921   0.904   3.188   1.891  0.3888 -0.0352 -0.2977
18169TIP3    H175922   0.853   3.243   1.950 -0.4666 -1.8764  0.7674
18169TIP3    H275923   0.966   3.248   1.849 -1.7158  2.0527 -0.6211
18170TIP3   OH275924   2.417   2.279   4.976 -0.0804  0.7914  1.2556
18170TIP3    H175925   2.373   2.310   5.055  1.4872  0.0593  2.4819
18170TIP3    H275926   2.451   2.193   4.999  0.1057  0.3933 -0.3537
18171TIP3   OH275927   4.387   0.608   4.273 -0.0580  0.2740  0.3462
18171TIP3    H175928   4.299   0.570   4.272  0.2867 -0.6452 -1.9733
18171TIP3    H275929   4.372   0.702   4.263 -0.7985  0.0564 -0.8105
18172TIP3   OH275930   0.735   4.835   2.901 -0.3942 -0.2729  0.1556
18172TIP3    H175931   0.710   4.865   2.814 -0.9540 -1.2785 -0.0408
18172TIP3    H275932   0.830   4.844   2.904 -0.4376  0.3992 -0.3120
18173TIP3   OH275933   0.195   4.781  16.201  0.2286  0.1997 -0.7191
18173TIP3    H175934   0.257   4.762  16.272  0.8093  1.1480 -0.9619
18173TIP3    H275935   0.174   4.695  16.164 -0.4116 -0.3601  0.8581
18174TIP3   OH275936   6.384   0.384   5.148  0.5587  0.1225  0.3891
18174TIP3    H175937   6.397   0.312   5.210 -1.4262 -0.0006  0.7324
18174TIP3    H275938   6.322   0.442   5.192  0.4079  0.8876 -0.8066
18175TIP3   OH275939   1.183   3.682   0.905  0.3273 -0.2415 -0.1479
18175TIP3    H175940   1.092   3.686   0.876  0.7248 -1.6485 -1.7202
18175TIP3    H275941   1.184   3.732   0.987 -1.6263  0.6784 -0.6270
18176TIP3   OH275942   0.548   2.545   4.980 -0.3499  1.1852  0.2407
18176TIP3    H175943   0.548   2.477   5.047  0.8708  1.5620  0.6426
18176TIP3    H275944   0.640   2.556   4.957 -0.4719  3.0420  0.5408
18177TIP3   OH275945   0.703   1.574   2.672  0.5107 -0.0384  0.5094
18177TIP3    H175946   0.665   1.539   2.591 -0.5181  1.0569  0.4866
18177TIP3    H275947   0.748   1.500   2.712 -0.4853 -1.0459 -0.1860
18178TIP3   OH275948   0.013   5.646   1.084  0.5019 -0.1169 -0.9035
18178TIP3    H175949   0.041   5.555   1.071  1.0856 -0.0926  0.1447
18178TIP3    H275950  -0.070   5.652   1.036 -0.2018 -1.5678  0.0578
18179TIP3   OH275951   1.202   2.575  15.496  0.1154  0.1286 -0.3198
18179TIP3    H175952   1.194   2.670  15.506 -2.3977  0.3198 -2.9649
18179TIP3    H275953   1.230   2.562  15.405 -2.8106 -1.6426 -1.0914
18180TIP3   OH275954   2.063   1.670   4.745 -0.7764 -0.4002  0.9615
18180TIP3    H175955   2.094   1.752   4.784 -0.0709 -0.5656  0.7731
18180TIP3    H275956   2.077   1.604   4.814 -0.7743 -0.4611  0.9032
18181TIP3   OH275957   0.754   5.800   2.045 -0.7001 -0.2509  0.0336
18181TIP3    H175958   0.756   5.769   1.955 -0.7184  0.4832 -0.2315
18181TIP3    H275959   0.782   5.725   2.098  0.4263 -0.3618 -0.6768
18182TIP3   OH275960   1.468   4.734   2.886  0.8428 -0.4500  0.0035
18182TIP3    H175961   1.518   4.802   2.929  1.2462 -1.0374  0.4738
18182TIP3    H275962   1.517   4.714   2.806  1.7100 -1.4393  0.7512
18183TIP3   OH275963   6.238   5.913   0.407  0.2579  0.0525  0.3354
18183TIP3    H175964   6.257   5.903   0.314  0.2004 -0.7155  0.3944
18183TIP3    H275965   6.322   5.898   0.451  0.3252  0.6018  0.4029
18184TIP3   OH275966   2.724   4.053  13.714  0.0561 -0.7610 -0.3757
18184TIP3    H175967   2.726   4.083  13.623 -1.1091 -1.8534 -0.7874
18184TIP3    H275968   2.773   4.120  13.762  3.3133 -1.6400 -2.2088
18185TIP3   OH275969   0.964   1.038  15.809 -0.2427 -0.5245 -0.1203
18185TIP3    H175970   0.945   0.963  15.753 -1.5678  0.3075 -0.8424
18185TIP3    H275971   0.963   1.003  15.898  1.3251 -1.7625 -0.5347
18186TIP3   OH275972   4.292   5.961   4.013 -0.2957 -0.1276 -0.1228
18186TIP3    H175973   4.225   6.026   4.037  1.4794  1.3144  1.1961
18186TIP3    H275974   4.300   5.970   3.918 -1.7901 -0.1667 -0.2793
18187TIP3   OH275975   5.759   4.201  12.751  0.3624  0.0916 -0.5687
18187TIP3    H175976   5.727   4.209  12.841  2.3310  1.9199  0.0393
18187TIP3    H275977   5.768   4.107  12.738 -0.6700 -0.2511  0.8592
18188TIP3   OH275978   4.166   4.342  11.815 -0.1609  0.0934 -0.2527
18188TIP3    H175979   4.133   4.319  11.728  0.2791 -1.0087 -0.1362
18188TIP3    H275980   4.260   4.326  11.810  0.0372  1.0614  0.1102
18189TIP3   OH275981   3.250   3.586   3.809 -0.3946 -0.3566 -0.4945
18189TIP3    H175982   3.222   3.494   3.816 -0.1555 -0.4542 -0.7749
18189TIP3    H275983   3.200   3.620   3.735 -2.4962  0.5137  1.2054
18190TIP3   OH275984   2.562   5.255   0.421 -0.5482 -0.1734  0.1495
18190TIP3    H175985   2.593   5.167   0.444  0.3135  0.3501  1.0860
18190TIP3    H275986   2.484   5.240   0.368  1.3193 -1.5817 -2.3996
18191TIP3   OH275987   4.167   4.211  13.212 -0.3226 -0.1244  0.0373
18191TIP3    H175988   4.252   4.196  13.171 -1.7210 -0.4541 -2.9976
18191TIP3    H275989   4.159   4.306  13.217  0.1151 -0.0898  0.1519
18192TIP3   OH275990   3.070   2.405   4.129  0.0433 -0.1829  0.1745
18192TIP3    H175991   3.039   2.336   4.071  0.3664  0.7718 -1.1862
18192TIP3    H275992   3.059   2.369   4.217  0.6970 -2.1676 -0.4952
18193TIP3   OH275993   3.558   4.801  10.840 -0.3872  0.1219  0.0756
18193TIP3    H175994   3.549   4.719  10.888 -1.1961  0.6260  0.8227
18193TIP3    H275995   3.587   4.865  10.905 -0.6190  0.6185 -0.2953
18194TIP3   OH275996   4.207   2.703  15.362 -0.1262 -0.1131  0.3081
18194TIP3    H175997   4.250   2.717  15.277 -1.7911 -1.5078 -0.8427
18194TIP3    H275998   4.169   2.788  15.384 -0.5304  0.0321 -0.8778
18195TIP3   OH275999   3.886   1.859  15.574  0.0719  0.1465 -0.3769
18195TIP3    H176000   3.958   1.920  15.557 -0.3532  0.6493 -0.3895
18195TIP3    H276001   3.929   1.775  15.589  0.6148  0.2384 -1.3282
18196TIP3   OH276002   5.172   4.365   3.931  0.0312 -0.0948 -0.5367
18196TIP3    H176003   5.244   4.329   3.983 -1.3991 -1.6588  0.4581
18196TIP3    H276004   5.211   4.382   3.845  1.3710 -1.8895 -0.3436
18197TIP3   OH276005   1.524   4.015   2.912 -0.2968  0.5901  1.0127
18197TIP3    H176006   1.534   3.921   2.901 -0.4783  0.4885  1.6716
18197TIP3    H276007   1.437   4.025   2.950 -0.7911  1.1156 -0.2207
18198TIP3   OH276008   2.692   1.341   4.149  0.4484  0.2824 -0.2615
18198TIP3    H176009   2.688   1.262   4.096  0.5582  0.0826  0.0236
18198TIP3    H276010   2.740   1.315   4.228  0.7092  0.6964 -0.2762
18199TIP3   OH276011   6.686   5.350  14.294  0.2707 -0.4204  0.0423
18199TIP3    H176012   6.631   5.376  14.368  2.1819  0.4806  1.2246
18199TIP3    H276013   6.648   5.267  14.265 -1.8073  0.2440  0.6353
18200TIP3   OH276014   4.071   1.489  11.695 -0.3985 -0.3589 -0.1270
18200TIP3    H176015   4.010   1.451  11.759  0.6189 -2.0840 -0.1179
18200TIP3    H276016   4.108   1.565  11.740 -1.2497 -0.3211  0.5327
18201TIP3   OH276017   3.563   2.430  14.397 -0.5107  0.0042  0.9437
18201TIP3    H176018   3.582   2.502  14.457  1.0497  0.1117  0.3644
18201TIP3    H276019   3.593   2.461  14.312  0.2025 -1.3077  0.6796
18202TIP3   OH276020   5.978   3.973  16.475  0.2444  0.0406 -0.2396
18202TIP3    H176021   5.891   4.001  16.504 -0.1870 -1.6925  0.2334
18202TIP3    H276022   5.963   3.929  16.392  0.3326 -2.1326  0.8437
18203TIP3   OH276023   5.855   1.841  11.447  0.7547  1.0540 -0.1233
18203TIP3    H176024   5.846   1.851  11.541 -0.1093  0.1948 -0.1001
18203TIP3    H276025   5.839   1.748  11.431 -1.7008  1.5963 -1.3569
18204TIP3   OH276026   5.146   5.429   1.993 -0.0059 -0.2227  0.8082
18204TIP3    H176027   5.094   5.400   1.918 -1.2522 -0.8713  1.8780
18204TIP3    H276028   5.108   5.514   2.017  1.4097  0.7622 -0.1999
18205TIP3   OH276029   5.490   1.512  15.352  0.4340  0.9533 -0.1700
18205TIP3    H176030   5.419   1.561  15.393 -0.3398 -1.7917  2.0570
18205TIP3    H276031   5.564   1.573  15.352 -0.3321  2.0653  2.8523
18206TIP3   OH276032   0.160   0.905  11.831  0.4367 -0.1036  0.2123
18206TIP3    H176033   0.087   0.926  11.888  0.3756  2.1774 -0.6224
18206TIP3    H276034   0.198   0.990  11.807  2.4295 -1.1446 -0.5714
18207TIP3   OH276035   2.549   5.063  15.845 -0.4785 -0.2393  0.1281
18207TIP3    H176036   2.511   4.981  15.877  2.0888 -2.2317 -1.4585
18207TIP3    H276037   2.601   5.037  15.769  1.4796  2.6769  0.2839
18208TIP3   OH276038   5.798   3.264  14.252 -0.0656 -0.5024 -0.1164
18208TIP3    H176039   5.781   3.241  14.343 -0.4768 -1.1528 -0.3484
18208TIP3    H276040   5.795   3.360  14.250  0.8075 -0.4493  0.7111
18209TIP3   OH276041   6.050   3.628   1.245  0.6467  0.0163  0.1928
18209TIP3    H176042   6.063   3.602   1.154  2.7151  0.9643  0.1387
18209TIP3    H276043   6.131   3.600   1.290  0.1585  0.5771  1.4844
18210TIP3   OH276044   4.580   0.224   0.220 -0.1246  0.3970  0.5046
18210TIP3    H176045   4.619   0.272   0.147 -1.6216  2.8022  1.1607
18210TIP3    H276046   4.543   0.145   0.181  0.3773  0.9037 -1.0565
18211TIP3   OH276047   2.171   6.460  15.395  0.5064  0.2620  0.2648
18211TIP3    H176048   2.142   6.530  15.337 -0.8889 -0.1909  0.3799
18211TIP3    H276049   2.265   6.451  15.377  0.6701  1.9975  0.0982
18212TIP3   OH276050   6.488   4.098   0.424 -0.0377 -0.0390  0.6652
18212TIP3    H176051   6.465   4.170   0.483  1.1476  1.1104 -0.2228
18212TIP3    H276052   6.504   4.140   0.340 -2.1186 -1.6990 -0.6591
18213TIP3   OH276053   1.956   3.663  12.311 -0.5212  0.3296  0.0157
18213TIP3    H176054   2.018   3.654  12.383  1.1478 -0.5168 -1.4494
18213TIP3    H276055   1.882   3.609  12.336 -0.4398  0.8830  1.5541
18214TIP3   OH276056   5.745   3.572   0.697  0.5039  0.4416 -0.6396
18214TIP3    H176057   5.737   3.590   0.603  2.5187  2.9583 -0.4413
18214TIP3    H276058   5.721   3.655   0.739 -1.9987 -1.0988  1.2628
18215TIP3   OH276059   1.945   0.284  11.550  0.0840  0.6699  0.0638
18215TIP3    H176060   1.870   0.225  11.543  1.1297 -0.6185 -0.7143
18215TIP3    H276061   2.014   0.240  11.501  1.7988  1.0927  2.0016
18216TIP3   OH276062   0.952   5.005  11.356 -0.0814 -0.1578 -0.1254
18216TIP3    H176063   0.935   4.912  11.342 -0.2586  0.0605 -1.4479
18216TIP3    H276064   0.872   5.038  11.396  0.1448 -0.6518  0.7564
18217TIP3   OH276065   4.405   6.318  14.792  0.3040 -0.3209  0.3373
18217TIP3    H176066   4.458   6.242  14.815  0.3981  0.2075  1.9890
18217TIP3    H276067   4.385   6.360  14.876 -0.4201  1.0318 -0.4739
18218TIP3   OH276068   5.292   4.954   1.040  0.6624 -0.3256 -0.2145
18218TIP3    H176069   5.258   4.905   1.115 -2.7930 -0.7447 -1.8734
18218TIP3    H276070   5.387   4.957   1.055  0.5636 -3.6077  2.2392
18219TIP3   OH276071   2.010   1.337   4.074 -0.0984 -0.3525 -0.3156
18219TIP3    H176072   1.985   1.393   4.001  0.1030  0.5105  0.2569
18219TIP3    H276073   1.935   1.341   4.133 -0.8415 -2.1560 -1.0786
18220TIP3   OH276074   0.033   4.929  14.840 -0.1028 -0.3507 -0.1258
18220TIP3    H176075   0.026   4.925  14.745  1.2839  0.0258 -0.2725
18220TIP3    H276076   0.036   5.023  14.859  1.4937 -0.4164  0.0907
18221TIP3   OH276077   3.707   3.830   0.551  0.1495  0.4112 -0.4436
18221TIP3    H176078   3.763   3.781   0.492 -0.7328 -0.5947 -0.4645
18221TIP3    H276079   3.631   3.853   0.498 -0.1276  0.4939 -0.0134
18222TIP3   OH276080   6.410   1.882  12.067  0.1644  0.1913 -0.1127
18222TIP3    H176081   6.318   1.876  12.094  0.0290  1.4965 -0.2075
18222TIP3    H276082   6.459   1.844  12.140 -0.3886  0.5949  0.4853
18223TIP3   OH276083   4.733   3.145  15.102  0.6741 -0.1762 -0.0824
18223TIP3    H176084   4.652   3.188  15.075 -0.2416 -2.1517 -0.7069
18223TIP3    H276085   4.751   3.180  15.189 -1.5391 -0.5247  0.5888
18224TIP3   OH276086   1.744   5.294   3.426  0.2021 -0.0822 -0.3949
18224TIP3    H176087   1.778   5.360   3.365 -3.5142  1.9808 -0.5505
18224TIP3    H276088   1.773   5.324   3.512 -2.5990  2.9017 -0.2801
18225TIP3   OH276089   0.304   6.731   3.941 -0.3056 -0.2384  0.3432
18225TIP3    H176090   0.314   6.711   3.848  0.5778  0.3888  0.2858
18225TIP3    H276091   0.210   6.742   3.954 -0.6087 -1.9803 -0.1090
18226TIP3   OH276092   5.387   3.534   3.458  0.1610  0.5531 -0.4829
18226TIP3    H176093   5.421   3.545   3.369  2.7968 -2.1707 -0.0150
18226TIP3    H276094   5.446   3.587   3.512 -0.3306  0.8177 -0.2076
18227TIP3   OH276095   6.698   3.717  12.435 -0.2308 -0.3329  0.5619
18227TIP3    H176096   6.604   3.722  12.419 -0.2527  1.1904  0.9622
18227TIP3    H276097   6.737   3.763  12.360  0.0695  0.6174  1.2820
18228TIP3   OH276098   6.258   2.391  11.923 -0.6684  0.2430 -0.0621
18228TIP3    H176099   6.278   2.301  11.896 -1.1266  0.1691 -0.1707
18228TIP3    H276100   6.336   2.420  11.969 -0.2262  0.0427 -0.6657
18229TIP3   OH276101   3.091   4.833   1.484 -0.1527 -0.5958 -0.5017
18229TIP3    H176102   3.052   4.920   1.482 -0.4221 -0.7245 -0.7751
18229TIP3    H276103   3.156   4.834   1.413 -1.5367 -1.2690 -1.8193
18230TIP3   OH276104   3.676   1.071   3.596 -0.3465  0.1669 -0.3051
18230TIP3    H176105   3.595   1.042   3.554 -0.6962  0.0910  0.4047
18230TIP3    H276106   3.733   1.095   3.524 -1.0809  0.4245 -0.8124
18231TIP3   OH276107   4.179   4.406   6.643 -0.0491  0.1388  0.5964
18231TIP3    H176108   4.208   4.328   6.690  0.0179  1.2702  2.5479
18231TIP3    H276109   4.097   4.430   6.685 -0.8392  0.2987 -0.9799
18232TIP3   OH276110   4.281   3.661   5.468  0.3485 -0.8408  0.6680
18232TIP3    H176111   4.197   3.704   5.485 -0.2541 -1.9164  0.4534
18232TIP3    H276112   4.295   3.604   5.543  0.1443 -1.7846  0.0147
18233TIP3   OH276113   5.819   4.820   4.955 -0.1070 -1.0740 -0.3947
18233TIP3    H176114   5.845   4.801   5.045 -2.7089  0.5008  0.7977
18233TIP3    H276115   5.770   4.742   4.927  0.7803 -1.6015 -0.5318
18234TIP3   OH276116   3.308   0.565  16.099  0.3733 -0.0550 -1.1766
18234TIP3    H176117   3.237   0.501  16.095  0.8511 -0.7177  0.4085
18234TIP3    H276118   3.367   0.539  16.028  1.1891 -2.1990  0.2085
18235TIP3   OH276119   0.060   1.201   4.699  0.1540  0.2923 -0.1590
18235TIP3    H176120   0.059   1.106   4.687 -0.8969  0.0759  1.4386
18235TIP3    H276121  -0.004   1.218   4.767 -0.0444  2.2251 -0.7590
18236TIP3   OH276122   3.668   3.817   2.559 -0.3423  0.1645  0.1903
18236TIP3    H176123   3.636   3.769   2.635  1.4582 -2.5681 -0.6560
18236TIP3    H276124   3.737   3.873   2.594 -0.5063  0.0179  0.7621
18237TIP3   OH276125   5.054   0.060  17.194  0.2071  0.4594  0.4708
18237TIP3    H176126   5.131   0.019  17.233  1.0530  2.0460  0.5737
18237TIP3    H276127   4.980   0.014  17.233  1.0801 -0.5606  0.9919
18238TIP3   OH276128   3.054   5.501  15.500  0.6168  0.1770  0.1297
18238TIP3    H176129   3.082   5.433  15.439 -0.1041  1.5943 -1.9070
18238TIP3    H276130   3.076   5.583  15.455 -1.2603  1.2852  1.1246
18239TIP3   OH276131   0.925   5.015   6.032  0.0145 -1.0880 -0.0844
18239TIP3    H176132   1.020   5.028   6.039 -0.0882 -0.5007  0.2633
18239TIP3    H276133   0.912   4.985   5.942  0.2656  1.4857 -1.0681
18240TIP3   OH276134   3.406   4.369  17.177 -0.4048 -0.0832 -0.4505
18240TIP3    H176135   3.329   4.319  17.148 -1.8482  1.6501  0.1876
18240TIP3    H276136   3.442   4.406  17.096 -0.9014 -0.0349 -0.6548
18241TIP3   OH276137   1.979   1.898   4.282  0.7035  0.0510 -0.4212
18241TIP3    H176138   2.000   1.882   4.374 -0.3676  0.3550 -0.0994
18241TIP3    H276139   2.062   1.891   4.236  1.3650  0.5146  0.6581
18242TIP3   OH276140   3.205   4.333  11.791  0.3256  0.2785 -0.1337
18242TIP3    H176141   3.289   4.322  11.834  1.0866 -1.0715 -1.8244
18242TIP3    H276142   3.222   4.311  11.699 -1.7261  0.6426 -0.6592
18243TIP3   OH276143   6.294   4.718  16.210  0.2570 -0.8177 -0.0811
18243TIP3    H176144   6.372   4.665  16.191  1.2200  0.4216  0.2590
18243TIP3    H276145   6.243   4.665  16.271 -0.3027 -2.6108 -1.9864
18244TIP3   OH276146   6.385   0.282  13.294 -0.6731  0.2896  0.0168
18244TIP3    H176147   6.404   0.233  13.374  1.8948  0.6796 -0.2676
18244TIP3    H276148   6.419   0.227  13.223  0.2330  1.4465 -0.4834
18245TIP3   OH276149   0.151   2.419   5.251  0.0985  0.1944 -0.6708
18245TIP3    H176150   0.068   2.381   5.277 -0.5564  1.7961 -0.2829
18245TIP3    H276151   0.155   2.408   5.156 -0.7855  0.5325 -0.7510
18246TIP3   OH276152   5.620   3.007   0.060  0.2487  0.2992 -0.3661
18246TIP3    H176153   5.645   3.079   0.117 -0.7094 -0.2705  0.8060
18246TIP3    H276154   5.560   3.047  -0.004 -0.9063  0.4282  0.7562
18247TIP3   OH276155   1.137   3.500  14.481 -0.2801  0.3432  0.2297
18247TIP3    H176156   1.084   3.563  14.529 -0.3815  1.3053 -1.0752
18247TIP3    H276157   1.076   3.430  14.458 -1.3835  1.9628 -2.2213
18248TIP3   OH276158   6.036   2.679  14.918 -0.1201 -0.0800 -0.0472
18248TIP3    H176159   6.082   2.649  14.996 -0.8866 -0.9146  0.0992
18248TIP3    H276160   6.094   2.658  14.845  0.2168 -0.0900  0.2221
18249TIP3   OH276161   2.174   2.817   2.842  0.1285  0.6376  0.0315
18249TIP3    H176162   2.247   2.837   2.900  0.1767  0.4900  0.0208
18249TIP3    H276163   2.203   2.847   2.756 -0.6749  2.6148  0.3978
18250TIP3   OH276164   1.408   5.308   5.821 -0.3503  0.6423 -0.5197
18250TIP3    H176165   1.320   5.291   5.856 -0.1595 -0.5776 -0.5889
18250TIP3    H276166   1.407   5.269   5.733  1.0705 -1.9433  0.4745
18251TIP3   OH276167   1.367   3.577  10.147 -0.1687 -0.1222 -0.7883
18251TIP3    H176168   1.337   3.491  10.176 -0.3481  0.3312  0.4602
18251TIP3    H276169   1.461   3.576  10.165  0.1315 -0.6063 -2.2609
18252TIP3   OH276170   0.357   5.543   2.282  0.6713 -0.0518  0.1294
18252TIP3    H176171   0.390   5.539   2.371 -0.8893  1.7316  0.8461
18252TIP3    H276172   0.308   5.625   2.277  0.5592 -0.1708 -2.3203
18253TIP3   OH276173   4.070   4.387   5.729  0.5313  0.8207  0.2065
18253TIP3    H176174   4.084   4.297   5.702  2.6754  0.7553  1.3067
18253TIP3    H276175   4.137   4.437   5.683 -0.4994  1.8521 -0.2398
18254TIP3   OH276176   0.339   1.572   3.500  0.0088  0.1868 -0.1400
18254TIP3    H176177   0.384   1.633   3.441 -1.4778  1.2052 -0.2617
18254TIP3    H276178   0.364   1.600   3.588  0.3393  0.1584 -0.2225
18255TIP3   OH276179   3.745   3.601   2.407 -0.1940 -0.1282  0.6876
18255TIP3    H176180   3.744   3.682   2.459  0.3057  0.1847  0.2249
18255TIP3    H276181   3.826   3.557   2.435 -0.6056 -0.6053  1.1381
18256TIP3   OH276182   4.340   1.991   3.419 -0.2129 -0.3551  0.1208
18256TIP3    H176183   4.331   2.019   3.510 -0.4426 -1.6407  0.5095
18256TIP3    H276184   4.289   2.054   3.369  1.1681  1.2993  0.6813
18257TIP3   OH276185   3.675   4.927  16.068 -0.0427 -0.1353 -0.3929
18257TIP3    H176186   3.671   4.831  16.061  0.4061 -0.2273  0.4616
18257TIP3    H276187   3.759   4.945  16.110  0.0808  0.6669 -0.9591
18258TIP3   OH276188   1.849   5.168   1.646  0.7902  0.1352  0.5647
18258TIP3    H176189   1.898   5.158   1.728  2.2490 -0.2616 -0.3297
18258TIP3    H276190   1.872   5.255   1.615  0.9644 -0.0627  0.1312
18259TIP3   OH276191   3.117   2.822  16.469  0.1342 -0.2266 -0.0639
18259TIP3    H176192   3.134   2.765  16.543  0.8439 -0.3846 -0.3385
18259TIP3    H276193   3.093   2.763  16.398  1.4387 -0.2591 -0.5111
18260TIP3   OH276194   1.205   3.641   5.178  0.4268 -0.4670  0.3294
18260TIP3    H176195   1.259   3.698   5.232 -0.5401 -1.1473  2.1259
18260TIP3    H276196   1.132   3.697   5.150  0.5619 -0.2911  0.3286
18261TIP3   OH276197   1.673   4.529   0.441 -0.4641 -0.8055  0.2213
18261TIP3    H176198   1.698   4.586   0.368  0.3835 -0.3677  0.8310
18261TIP3    H276199   1.647   4.447   0.400 -1.6668 -0.0140 -0.6804
18262TIP3   OH276200   2.547   1.699  16.170 -0.3179  0.2184 -0.4731
18262TIP3    H176201   2.626   1.728  16.215  0.0634 -1.0108 -0.3098
18262TIP3    H276202   2.484   1.681  16.240 -0.1416 -0.4920 -0.4878
18263TIP3   OH276203   6.066   3.519  12.203 -0.0627 -0.0282 -0.2094
18263TIP3    H176204   6.033   3.430  12.189 -0.4437  0.2625 -1.2881
18263TIP3    H276205   6.012   3.574  12.145  1.6806  0.5902 -1.3353
18264TIP3   OH276206   3.465   6.631  11.994  0.1185  0.0810  0.0901
18264TIP3    H176207   3.435   6.575  12.065  1.6242 -0.5373  0.2789
18264TIP3    H276208   3.555   6.656  12.019  1.8760 -2.5454 -2.8583
18265TIP3   OH276209   5.375   3.700  14.327  0.3835  0.3275  0.3620
18265TIP3    H176210   5.373   3.626  14.388 -1.4448 -0.4259 -0.5421
18265TIP3    H276211   5.380   3.659  14.240  1.0342  1.3360 -0.0936
18266TIP3   OH276212   6.218   4.836  14.662 -0.1754 -0.4531 -0.2292
18266TIP3    H176213   6.303   4.793  14.654 -0.3876 -0.9158  0.0189
18266TIP3    H276214   6.171   4.787  14.729 -0.7635 -0.4027 -0.5888
18267TIP3   OH276215   2.886   6.398  11.696  0.8118 -0.0822 -0.4032
18267TIP3    H176216   2.974   6.428  11.717  0.3810  0.5432  0.6152
18267TIP3    H276217   2.889   6.303  11.708  1.1216  0.0388  0.5511
18268TIP3   OH276218   0.288   1.560  11.561 -0.2092 -0.2082 -0.1768
18268TIP3    H176219   0.243   1.615  11.497  0.0716 -0.5092 -0.6419
18268TIP3    H276220   0.244   1.475  11.554 -0.1928 -0.2357  0.0479
18269TIP3   OH276221   0.640   2.588  11.684  0.2867  0.2798 -0.0283
18269TIP3    H176222   0.643   2.507  11.734  2.4499 -1.4225 -2.6236
18269TIP3    H276223   0.554   2.587  11.641  0.0928 -0.3556  0.3627
18270TIP3   OH276224   3.963   0.194  14.992  0.2128  0.1757  0.1582
18270TIP3    H176225   3.961   0.215  14.899  0.3247  1.8024  0.4918
18270TIP3    H276226   3.987   0.101  14.995 -0.5560 -0.1130 -1.4403
18271TIP3   OH276227   0.293   5.474   5.274  0.5200  0.7704 -0.3489
18271TIP3    H176228   0.354   5.401   5.278 -0.7978 -0.4480 -1.5462
18271TIP3    H276229   0.334   5.536   5.213  0.6192  0.0236 -1.0495
18272TIP3   OH276230   3.023   2.239  16.909 -0.4728 -0.6995 -0.1445
18272TIP3    H176231   3.017   2.148  16.939 -0.2920 -0.5557  0.3357
18272TIP3    H276232   3.117   2.257  16.905 -0.5131 -0.1705  0.8934
18273TIP3   OH276233   5.058   6.297   0.366  0.1138 -0.3603  0.6321
18273TIP3    H176234   4.988   6.246   0.326 -1.8815  0.8922  2.3297
18273TIP3    H276235   5.042   6.387   0.338  1.9683 -0.1963 -0.1122
18274TIP3   OH276236   1.732   4.085   3.319  0.1205  0.5935 -0.5606
18274TIP3    H176237   1.656   4.139   3.298  0.6210  1.4827 -0.1248
18274TIP3    H276238   1.791   4.143   3.367  1.2722  0.0500 -1.2576
18275TIP3   OH276239   5.533   6.713  17.221 -0.4608 -0.0724  0.2113
18275TIP3    H176240   5.500   6.719  17.131 -0.6282 -0.9991  0.2030
18275TIP3    H276241   5.581   6.795  17.234 -0.0950 -0.0936 -0.8674
18276TIP3   OH276242   0.232   2.140   0.399 -0.3789  0.6402 -0.4361
18276TIP3    H176243   0.197   2.060   0.439 -1.8493  2.1911  1.6209
18276TIP3    H276244   0.325   2.139   0.421 -0.5173 -0.1812  0.1512
18277TIP3   OH276245   1.104   6.715   0.969 -0.0636  0.5434  0.3413
18277TIP3    H176246   1.138   6.650   0.908 -0.6636 -0.1660  0.7509
18277TIP3    H276247   1.147   6.797   0.943  1.1308 -0.1094  0.1732
18278TIP3   OH276248   1.483   3.730   4.365  0.2904 -0.0072 -0.5474
18278TIP3    H176249   1.539   3.781   4.307  0.6220 -1.7006 -1.7864
18278TIP3    H276250   1.537   3.714   4.442  0.7410  0.1690 -0.8226
18279TIP3   OH276251   3.558   2.550   4.397 -0.0360 -0.1023  0.4780
18279TIP3    H176252   3.525   2.598   4.473  1.3638 -0.4795  1.3594
18279TIP3    H276253   3.569   2.618   4.330 -0.7158  0.3402  0.8022
18280TIP3   OH276254   5.031   1.691  10.337 -0.1262  0.7266 -0.6305
18280TIP3    H176255   4.976   1.618  10.309  2.5369 -1.3594 -0.8029
18280TIP3    H276256   5.049   1.741  10.257 -0.5092  0.5405 -0.8338
18281TIP3   OH276257   0.795   3.853   2.591 -0.5282  0.0933  0.0582
18281TIP3    H176258   0.831   3.879   2.506  1.2283 -0.2960  0.6352
18281TIP3    H276259   0.703   3.878   2.587 -0.2192  1.1180 -1.5301
18282TIP3   OH276260   4.897   4.254   4.777  0.3983 -0.1706  0.0426
18282TIP3    H176261   4.877   4.346   4.760 -0.9209 -0.5317 -0.4747
18282TIP3    H276262   4.846   4.206   4.713 -0.8452 -1.3719  1.8221
18283TIP3   OH276263   3.104   4.431   1.998  0.0926 -0.2773  0.0524
18283TIP3    H176264   3.051   4.365   1.953  0.3680  1.0322 -2.3545
18283TIP3    H276265   3.043   4.502   2.019  0.5556  0.5407 -1.2843
18284TIP3   OH276266   4.458   1.065  13.836  0.0044  0.6363  0.5721
18284TIP3    H176267   4.446   1.006  13.911 -0.8722  1.8936  1.4757
18284TIP3    H276268   4.537   1.114  13.857  1.0301 -0.5339 -0.4286
18285TIP3   OH276269   4.208   0.254  12.337  0.4922  0.7200 -0.2793
18285TIP3    H176270   4.301   0.254  12.362  0.3703 -0.7775  0.2632
18285TIP3    H276271   4.209   0.238  12.243  0.7619 -2.3317  0.1537
18286TIP3   OH276272   2.351   4.136   5.595 -0.0642 -0.1285  0.3563
18286TIP3    H176273   2.383   4.226   5.609  2.0972 -0.1663 -3.1920
18286TIP3    H276274   2.258   4.141   5.616  0.6591  1.8677  4.0592
18287TIP3   OH276275   6.403   4.234   2.202  0.3578 -0.4573  0.2957
18287TIP3    H176276   6.385   4.232   2.296 -1.7167 -1.7044 -0.0651
18287TIP3    H276277   6.474   4.171   2.190  0.3736 -0.5778  0.9811
18288TIP3   OH276278   6.464   1.720  12.307  0.4964 -0.3119 -0.2190
18288TIP3    H176279   6.383   1.669  12.307  0.8830 -0.9358 -0.2637
18288TIP3    H276280   6.528   1.663  12.265  0.4739  0.9691 -2.0992
18289TIP3   OH276281   6.658   3.183   1.437 -0.5194 -0.1813  0.5197
18289TIP3    H176282   6.650   3.088   1.435  0.5357 -0.3194  1.3636
18289TIP3    H276283   6.746   3.198   1.472 -0.3988  1.1034 -0.2817
18290TIP3   OH276284   2.586   3.416  14.443  0.1922 -0.0989 -0.1752
18290TIP3    H176285   2.601   3.390  14.534 -0.2027  0.7652  0.1426
18290TIP3    H276286   2.580   3.511  14.446  0.8415 -0.0149 -1.2104
18291TIP3   OH276287   4.750   3.111  13.214 -0.2060  0.3006  0.1699
18291TIP3    H176288   4.798   3.151  13.142 -2.3906 -0.4181 -1.8303
18291TIP3    H276289   4.782   3.020  13.216  0.8117  0.6574  1.0514
18292TIP3   OH276290   0.800   1.729  16.270  0.3054  0.2794  0.2355
18292TIP3    H176291   0.713   1.691  16.262  0.6220 -0.6052  0.8653
18292TIP3    H276292   0.786   1.823  16.264 -0.5150  0.0935 -1.2086
18293TIP3   OH276293   0.134   4.079  16.886 -0.0464  0.2188  0.0091
18293TIP3    H176294   0.055   4.030  16.863 -0.0980  0.4404 -0.2987
18293TIP3    H276295   0.205   4.033  16.842  0.6134 -2.3194  3.3393
18294TIP3   OH276296   6.647   1.242   1.561  0.1047  0.4134  0.0742
18294TIP3    H176297   6.696   1.208   1.636 -0.1885  0.7399  0.4188
18294TIP3    H276298   6.691   1.204   1.485 -0.5078 -1.1426  0.4576
18295TIP3   OH276299   0.936   0.148   3.003  0.1329  0.5996  0.5803
18295TIP3    H176300   1.008   0.123   3.060 -0.1481  0.3126  0.8102
18295TIP3    H276301   0.904   0.231   3.038 -1.1102 -0.3698  1.8597
18296TIP3   OH276302   6.478   2.921   2.654 -0.0135  0.0272 -0.1751
18296TIP3    H176303   6.544   2.878   2.708  1.3088  0.4858 -1.3491
18296TIP3    H276304   6.451   2.997   2.706  0.6476  0.0204  0.1969
18297TIP3   OH276305   3.799   6.006   0.398  0.2738  0.4844 -0.5323
18297TIP3    H176306   3.883   6.043   0.369  0.4727  0.0514 -0.5099
18297TIP3    H276307   3.773   6.061   0.472  0.9759  0.0799  0.0262
18298TIP3   OH276308   3.965   1.448   2.959 -0.0838  0.5694 -0.2005
18298TIP3    H176309   4.057   1.431   2.975 -0.0640  1.2369  0.4565
18298TIP3    H276310   3.922   1.427   3.042 -0.4043  1.0313 -0.2416
18299TIP3   OH276311   1.271   5.987   1.506 -0.0494  0.2147 -0.5561
18299TIP3    H176312   1.230   6.057   1.557  1.9399  1.0640 -0.0121
18299TIP3    H276313   1.311   5.930   1.572  0.0238 -0.3554 -1.0793
18300TIP3   OH276314   4.532   2.378   1.518  0.2049 -0.2803 -0.0142
18300TIP3    H176315   4.607   2.334   1.559 -0.9029 -0.3080  2.1102
18300TIP3    H276316   4.492   2.310   1.463  0.9902 -0.6535 -0.1383
18301TIP3   OH276317   4.361   1.251  13.014 -0.1994 -0.0583 -0.3497
18301TIP3    H176318   4.287   1.239  12.954 -0.4357  0.0784 -0.0883
18301TIP3    H276319   4.387   1.162  13.038 -0.7776 -0.0966  0.1603
18302TIP3   OH276320   6.321   4.086   4.849 -0.0541  0.1298  0.0964
18302TIP3    H176321   6.350   3.995   4.836  0.0385 -0.0085  1.2246
18302TIP3    H276322   6.227   4.079   4.862 -0.3386  0.3896 -1.6056
18303TIP3   OH276323   2.740   2.341   3.146 -0.5020 -0.0119 -0.5687
18303TIP3    H176324   2.800   2.301   3.082  1.5912  1.3469  0.4150
18303TIP3    H276325   2.745   2.283   3.222  0.8852  0.9218  0.0920
18304TIP3   OH276326   5.017   1.015  16.009  0.1003 -0.1191  0.0776
18304TIP3    H176327   5.069   1.092  16.032 -1.7531  1.4682 -0.7769
18304TIP3    H276328   4.980   1.035  15.923 -1.3749 -1.4490  0.3435
18305TIP3   OH276329   1.171   2.200   3.729 -0.2653 -0.5324  0.3005
18305TIP3    H176330   1.157   2.275   3.786 -0.3616  0.7568 -1.3683
18305TIP3    H276331   1.210   2.134   3.786 -0.6340  0.5903  1.9133
18306TIP3   OH276332   1.392   1.575   0.838 -0.2700  0.2739  0.0358
18306TIP3    H176333   1.384   1.512   0.767 -1.2395  0.1240  0.2645
18306TIP3    H276334   1.305   1.615   0.844 -0.1966  0.2843  1.1355
18307TIP3   OH276335   0.660   3.082  15.709  0.5286  0.0775  0.2719
18307TIP3    H176336   0.731   3.101  15.648  1.7768  0.3692  1.7686
18307TIP3    H276337   0.655   3.158  15.766 -0.1777 -0.4522  0.9510
18308TIP3   OH276338   1.041   5.371   2.686 -0.0554  0.0211  0.9763
18308TIP3    H176339   1.049   5.456   2.645  0.1704  0.6092  2.1814
18308TIP3    H276340   0.947   5.351   2.680 -0.1244  0.3928  0.7628
18309TIP3   OH276341   1.943   4.697  12.436  0.0951  0.2901  0.0262
18309TIP3    H176342   1.904   4.610  12.436 -0.5896  0.4917  2.8012
18309TIP3    H276343   1.868   4.757  12.428  0.4147  0.6439 -0.3549
18310TIP3   OH276344   6.664   6.060   2.811 -0.5719  0.0899 -0.6788
18310TIP3    H176345   6.743   6.028   2.853 -0.0897  3.3973  1.3382
18310TIP3    H276346   6.605   6.084   2.883 -2.4299  0.0070 -2.0724
18311TIP3   OH276347   5.138   3.437   6.140 -0.1751  0.1592  0.8083
18311TIP3    H176348   5.197   3.399   6.075  0.6976  1.3837  0.8471
18311TIP3    H276349   5.156   3.388   6.220 -0.2568 -0.4319  0.4733
18312TIP3   OH276350   5.122   1.253  14.869  0.4217 -0.9340 -0.0735
18312TIP3    H176351   5.215   1.232  14.858  0.3896 -0.5627 -1.2680
18312TIP3    H276352   5.113   1.342  14.834 -0.4640 -1.1477 -0.4178
18313TIP3   OH276353   3.974   2.952   1.509  1.0968  0.8607 -0.1214
18313TIP3    H176354   3.995   2.869   1.551 -0.1366  0.1757 -0.7900
18313TIP3    H276355   3.884   2.971   1.536  0.3226  0.4877 -2.2438
18314TIP3   OH276356   5.588   3.919   2.557  0.8663 -0.2050 -0.1893
18314TIP3    H176357   5.667   3.898   2.606  0.4520  0.3757  0.7549
18314TIP3    H276358   5.611   3.995   2.504  0.7161  0.4878  0.7153
18315TIP3   OH276359   0.444   3.330   1.094 -0.3739 -0.4886  0.2760
18315TIP3    H176360   0.472   3.320   1.185  0.9053 -0.4344 -0.0891
18315TIP3    H276361   0.402   3.247   1.072  0.1546 -0.8516  0.6348
18316TIP3   OH276362   2.311   0.880  13.474  0.6121  0.3786  0.3350
18316TIP3    H176363   2.293   0.807  13.415 -1.1241  0.3976  0.7774
18316TIP3    H276364   2.281   0.958  13.426  2.0491  0.7654  0.0385
18317TIP3   OH276365   6.475   0.833   0.012  0.0340  0.0742 -0.3666
18317TIP3    H176366   6.387   0.868   0.027  0.1715  0.5663 -0.7156
18317TIP3    H276367   6.481   0.824  -0.083  0.0466 -0.7879 -0.2988
18318TIP3   OH276368   1.636   4.596  15.250 -0.1880 -0.8239 -0.8557
18318TIP3    H176369   1.580   4.652  15.304  0.5927 -0.1910 -0.6761
18318TIP3    H276370   1.682   4.540  15.314 -1.4955 -2.2114 -1.0748
18319TIP3   OH276371   4.015   5.138  15.014 -0.2056 -0.1858  0.1468
18319TIP3    H176372   3.957   5.215  15.015 -0.2861 -0.2482  0.9690
18319TIP3    H276373   4.103   5.174  15.027 -0.4071 -0.3425  2.2043
18320TIP3   OH276374   2.763   5.915  13.983  0.2637 -0.5598  0.1520
18320TIP3    H176375   2.728   5.947  14.065  0.4297 -0.5725  0.2290
18320TIP3    H276376   2.688   5.910  13.924  0.2863  0.2431  0.0524
18321TIP3   OH276377   0.313   2.595   5.810 -0.2310  0.0618  0.4732
18321TIP3    H176378   0.299   2.660   5.878 -0.7245  0.6303 -0.1554
18321TIP3    H276379   0.409   2.590   5.800 -0.1995  1.5530 -0.2649
18322TIP3   OH276380   1.383   1.638  11.701 -0.3552  0.3347 -0.3427
18322TIP3    H176381   1.442   1.621  11.774  0.7684  0.0259 -1.2936
18322TIP3    H276382   1.346   1.552  11.680 -0.5751  0.4005 -0.2241
18323TIP3   OH276383   1.632   5.048  13.388  0.1150 -0.1399  0.5358
18323TIP3    H176384   1.722   5.059  13.417 -0.2728  0.0322  1.7026
18323TIP3    H276385   1.601   4.970  13.434 -0.3551 -0.1703  0.1780
18324TIP3   OH276386   1.540   4.182  13.247 -0.0116 -0.5253  0.0547
18324TIP3    H176387   1.557   4.149  13.159 -1.0005 -1.3931  0.1752
18324TIP3    H276388   1.625   4.217  13.276  0.1675  0.4304 -1.4932
18325TIP3   OH276389   4.884   2.536  11.643  0.0409  0.6304  0.5565
18325TIP3    H176390   4.885   2.599  11.715  1.6572  0.2266  0.9112
18325TIP3    H276391   4.912   2.587  11.567  1.3468  0.3652  0.8436
18326TIP3   OH276392   3.989   1.463  13.798 -0.0154  0.7653 -0.0929
18326TIP3    H176393   4.039   1.529  13.750  1.7568  0.5152  1.3115
18326TIP3    H276394   4.042   1.384  13.795 -1.8136 -0.4807 -1.1885
18327TIP3   OH276395   5.792   1.239  15.811  0.0319 -0.5815  0.0400
18327TIP3    H176396   5.813   1.169  15.874 -1.5966 -2.2725 -1.2101
18327TIP3    H276397   5.766   1.193  15.732 -0.4916  1.4824 -1.0472
18328TIP3   OH276398   3.856   5.076   1.761 -0.1720  0.0241 -0.1488
18328TIP3    H176399   3.850   5.150   1.821  2.7000 -0.2798  0.6566
18328TIP3    H276400   3.811   5.005   1.806  0.9188  0.1186  1.1313
18329TIP3   OH276401   5.131   0.698   2.739 -0.6408  0.4891 -0.5622
18329TIP3    H176402   5.204   0.640   2.763 -2.3968 -1.8124 -0.3835
18329TIP3    H276403   5.086   0.652   2.669 -1.0057  2.6806 -1.8591
18330TIP3   OH276404   5.549   1.600  11.173  0.1407  0.0490 -0.2821
18330TIP3    H176405   5.571   1.691  11.193  3.0510 -0.5057 -0.5127
18330TIP3    H276406   5.527   1.600  11.080  3.9393  0.0670 -1.3302
18331TIP3   OH276407   4.893   4.508   4.164 -0.2250  0.6893  0.5005
18331TIP3    H176408   4.937   4.494   4.248  0.1008 -0.8703  0.0997
18331TIP3    H276409   4.836   4.431   4.154 -2.2379  2.1078  0.4926
18332TIP3   OH276410   2.136   4.489   0.911  0.0219  0.1784 -0.5096
18332TIP3    H176411   2.061   4.540   0.940  2.1272  2.6377  1.1555
18332TIP3    H276412   2.133   4.409   0.963 -0.0824  1.4471  1.5409
18333TIP3   OH276413   0.221   5.379   0.031  0.0816 -0.3796 -0.2114
18333TIP3    H176414   0.170   5.409  -0.043  1.1410  0.1366 -0.7586
18333TIP3    H276415   0.224   5.284   0.022  0.6487 -0.2827 -1.1415
18334TIP3   OH276416   3.329   4.773  11.981  0.3455 -0.1037 -0.2977
18334TIP3    H176417   3.262   4.837  11.954 -1.3799 -1.6060  0.2704
18334TIP3    H276418   3.348   4.795  12.072 -0.5711 -0.6452  0.0329
18335TIP3   OH276419   0.774   4.398   3.154  0.6309  0.0426  0.1024
18335TIP3    H176420   0.734   4.458   3.092  1.3314 -0.3537 -0.7501
18335TIP3    H276421   0.840   4.350   3.103  0.3332 -1.2026  0.8326
18336TIP3   OH276422   4.698   3.011  13.903  0.4256  0.2944  0.9081
18336TIP3    H176423   4.668   3.101  13.897 -1.0644 -0.1907  0.4862
18336TIP3    H276424   4.767   3.003  13.837 -0.3961  0.7746 -0.0174
18337TIP3   OH276425   2.319   2.307   0.220  0.0278 -0.2339  0.3863
18337TIP3    H176426   2.368   2.238   0.263  0.4759  0.0668  0.3671
18337TIP3    H276427   2.260   2.341   0.287 -0.7118 -1.1136  0.1947
18338TIP3   OH276428   0.384   2.118   1.749 -0.0539  0.1516  0.6554
18338TIP3    H176429   0.366   2.138   1.841  3.3886  1.6119  1.1385
18338TIP3    H276430   0.467   2.071   1.750  0.7219  1.3005 -1.7773
18339TIP3   OH276431   5.013   3.768  12.407  0.5453 -0.2820  0.0232
18339TIP3    H176432   5.005   3.863  12.422  0.5271 -0.3568  0.4938
18339TIP3    H276433   4.934   3.731  12.446  1.3780 -0.6626  1.4559
18340TIP3   OH276434   3.963   1.380   5.614  0.1129 -0.3713 -0.1101
18340TIP3    H176435   3.895   1.443   5.589  0.5701  0.1310 -0.0821
18340TIP3    H276436   4.033   1.394   5.551  0.7277  0.0007  0.6450
18341TIP3   OH276437   2.458   2.430  12.879  0.1422  0.0083  0.6053
18341TIP3    H176438   2.499   2.422  12.965  0.3685 -0.2762  0.4730
18341TIP3    H276439   2.432   2.522  12.873 -0.0631 -0.0202  1.0607
18342TIP3   OH276440   5.710   0.379  11.828  0.0270  0.1947  0.3814
18342TIP3    H176441   5.665   0.360  11.746 -0.7062 -0.5575  0.9527
18342TIP3    H276442   5.641   0.383  11.893  0.7140 -0.2647  1.1529
18343TIP3   OH276443   3.476   1.837  16.742 -0.0684 -0.0144  0.2101
18343TIP3    H176444   3.435   1.847  16.828  1.0339  0.7784  0.6785
18343TIP3    H276445   3.567   1.863  16.756  0.2483 -0.3342 -1.1001
18344TIP3   OH276446   3.514   1.358   2.984 -0.0318  0.0092  0.0379
18344TIP3    H176447   3.427   1.337   3.018 -0.6790  1.9821 -0.2623
18344TIP3    H276448   3.505   1.347   2.890  0.2344 -0.4020  0.0610
18345TIP3   OH276449   6.488   2.435   5.964  0.3566 -0.1777  0.4568
18345TIP3    H176450   6.464   2.473   6.049  0.3389  1.4842 -0.2758
18345TIP3    H276451   6.579   2.407   5.975 -0.1681 -1.6094  1.5505
18346TIP3   OH276452   5.034   4.045   4.420 -0.1151 -0.1082 -0.2071
18346TIP3    H176453   5.080   4.058   4.337  0.5174 -1.1354 -0.0358
18346TIP3    H276454   5.036   3.950   4.433 -2.4584 -0.2200 -0.2914
18347TIP3   OH276455   6.611   0.351  15.449  0.1213  0.2444  0.0456
18347TIP3    H176456   6.603   0.294  15.526 -0.3093 -0.0216 -0.1906
18347TIP3    H276457   6.673   0.306  15.393  2.4601  1.6907  1.3320
18348TIP3   OH276458   3.278   1.400   1.914 -0.4651  0.8527 -0.4029
18348TIP3    H176459   3.199   1.380   1.965 -0.5882  0.3278 -0.7853
18348TIP3    H276460   3.277   1.495   1.905 -0.9414  0.8708 -0.2166
18349TIP3   OH276461   0.847   2.491  13.277 -0.7697 -0.3472  0.1182
18349TIP3    H176462   0.912   2.440  13.229 -1.1822 -0.2295 -0.5813
18349TIP3    H276463   0.887   2.508  13.362 -0.7246 -2.0810  0.4817
18350TIP3   OH276464   1.661   0.947   3.795  0.0437  0.2217  0.7813
18350TIP3    H176465   1.603   0.871   3.791 -0.2384  0.2984  2.5174
18350TIP3    H276466   1.620   1.012   3.737 -0.3464 -0.5241  0.2077
18351TIP3   OH276467   3.903   1.784   1.812  0.3238  0.9425  0.0699
18351TIP3    H176468   3.879   1.693   1.795  0.4784  0.7507  0.8209
18351TIP3    H276469   3.919   1.821   1.726  1.1371  0.0133 -0.1950
18352TIP3   OH276470   1.842   6.600  14.235 -0.2854  0.0800  0.1648
18352TIP3    H176471   1.748   6.614  14.239 -0.6074 -0.7302 -2.5375
18352TIP3    H276472   1.880   6.687  14.246 -1.2276  0.2798  2.3783
18353TIP3   OH276473   2.377   0.050   5.037 -0.5562  0.0320  0.2062
18353TIP3    H176474   2.425   0.024   5.115 -0.8188 -1.6046 -0.1522
18353TIP3    H276475   2.365   0.145   5.047  1.9386  0.3567  0.7331
18354TIP3   OH276476   3.658   3.937   5.296  0.2539  0.2977  0.3407
18354TIP3    H176477   3.696   3.856   5.329  0.4937  0.8139  1.3570
18354TIP3    H276478   3.732   3.986   5.261  0.0414 -0.1176 -0.7350
18355TIP3   OH276479   4.832   6.404  14.257 -0.7722 -0.0074 -0.3970
18355TIP3    H176480   4.834   6.331  14.318 -0.7086 -0.4736 -0.9462
18355TIP3    H276481   4.888   6.377  14.184 -0.2291  0.8546 -0.3176
18356TIP3   OH276482   2.674   2.554  12.267 -0.4069 -0.5899  0.0963
18356TIP3    H176483   2.716   2.557  12.181  3.1556  1.2753  1.6775
18356TIP3    H276484   2.739   2.513  12.324 -1.0890  1.4507  2.5640
18357TIP3   OH276485   2.972   3.895  13.021 -0.0159 -0.1208 -0.5983
18357TIP3    H176486   3.053   3.859  13.056  0.7489  0.2448 -1.9260
18357TIP3    H276487   2.931   3.821  12.976 -1.3231 -0.7636  1.5162
18358TIP3   OH276488   5.147   5.197   3.941 -0.4886 -1.1890 -0.4731
18358TIP3    H176489   5.236   5.226   3.960 -0.8455  1.4097 -2.2294
18358TIP3    H276490   5.158   5.121   3.884  0.5153 -2.8139  1.7487
18359TIP3   OH276491   2.300   1.313  13.994  0.0999  0.0789 -0.0243
18359TIP3    H176492   2.204   1.321  13.997 -0.1009 -1.6292 -0.6761
18359TIP3    H276493   2.320   1.242  14.054  0.9318  0.1937 -0.1526
18360TIP3   OH276494   2.639   5.077   1.481  0.2347 -0.6397  0.8169
18360TIP3    H176495   2.610   5.013   1.545 -0.9819 -0.6106  0.3054
18360TIP3    H276496   2.707   5.032   1.431  0.1374 -1.1637  1.1525
18361TIP3   OH276497   3.090   3.697   1.449  0.0925  0.2691  0.1334
18361TIP3    H176498   3.020   3.761   1.459 -0.1991  0.1308 -0.8416
18361TIP3    H276499   3.170   3.746   1.463 -0.1712  0.6149  0.4357
18362TIP3   OH276500   0.335   4.982   0.714 -0.8437 -0.2514 -0.4497
18362TIP3    H176501   0.351   5.044   0.643 -1.3954 -1.6554 -1.8662
18362TIP3    H276502   0.343   4.896   0.672 -2.4939 -1.1095  0.8975
18363TIP3   OH276503   2.518   0.065  12.122  0.2972  0.8236 -0.2481
18363TIP3    H176504   2.479  -0.021  12.104  1.1663  0.5943 -1.1669
18363TIP3    H276505   2.480   0.092  12.205  0.0477 -0.4861  0.0885
18364TIP3   OH276506   3.045   1.552  12.913  0.7291  0.4120 -1.1034
18364TIP3    H176507   2.960   1.557  12.957 -0.1517  2.6051 -2.8650
18364TIP3    H276508   3.101   1.506  12.975 -2.2353 -3.2240 -0.7763
18365TIP3   OH276509   2.482   3.060  15.521  0.0177 -0.4247  0.2802
18365TIP3    H176510   2.479   3.023  15.610 -3.8798 -1.3625 -0.0624
18365TIP3    H276511   2.421   3.133  15.523 -0.7007 -0.9122 -1.7815
18366TIP3   OH276512   1.516   0.949  13.101 -0.7241  0.0338  0.4366
18366TIP3    H176513   1.468   0.871  13.071 -0.4083  0.2170 -0.5735
18366TIP3    H276514   1.451   1.019  13.097 -1.0845 -0.2065  1.6041
18367TIP3   OH276515   1.828   2.675  13.524 -0.0572 -0.3589  0.3174
18367TIP3    H176516   1.737   2.704  13.514 -0.0909  0.7568  3.1100
18367TIP3    H276517   1.846   2.682  13.618  3.3532  0.8742 -0.2604
18368TIP3   OH276518   5.797   5.659  12.099  0.0090  0.1127  0.0349
18368TIP3    H176519   5.762   5.721  12.163 -0.1316 -0.6335  0.6970
18368TIP3    H276520   5.725   5.644  12.038  0.5618  1.8688 -1.1370
18369TIP3   OH276521   5.951   5.478  14.505  0.6283 -0.4914  0.4768
18369TIP3    H176522   5.953   5.500  14.598 -2.2255 -0.0214  0.5116
18369TIP3    H276523   5.858   5.470  14.484  1.1446  0.1922 -2.5318
18370TIP3   OH276524   5.159   2.292  17.185 -0.7620  0.0881  0.3420
18370TIP3    H176525   5.090   2.301  17.250 -1.6895 -1.8025 -0.3198
18370TIP3    H276526   5.175   2.198  17.179  2.3640  0.4851  0.9250
18371TIP3   OH276527   5.427   4.890   3.209 -0.1308  0.7783  0.2382
18371TIP3    H176528   5.409   4.847   3.125  1.0426  0.0531  0.3442
18371TIP3    H276529   5.462   4.976   3.185 -1.1907  1.1777  0.0227
18372TIP3   OH276530   0.509   2.304  11.664  1.1222 -0.4836 -0.3336
18372TIP3    H176531   0.545   2.319  11.576 -0.7993  1.8045 -0.8254
18372TIP3    H276532   0.479   2.213  11.662  0.8443 -0.3924 -2.1463
18373TIP3   OH276533   1.619   4.577   2.382  0.0319 -0.4008  0.1231
18373TIP3    H176534   1.704   4.539   2.405 -0.5103 -0.3912  2.3839
18373TIP3    H276535   1.607   4.648   2.445 -2.6204 -1.8324  1.3943
18374TIP3   OH276536   5.561   2.654  15.367  0.4473 -0.4848 -0.3000
18374TIP3    H176537   5.589   2.714  15.298 -1.2637  0.9078  0.1563
18374TIP3    H276538   5.625   2.667  15.437  0.7730 -0.0792 -0.6681
18375TIP3   OH276539   0.488   1.362   5.508 -0.6576  0.0970 -0.4977
18375TIP3    H176540   0.560   1.396   5.456 -0.7164  0.0473 -0.6112
18375TIP3    H276541   0.464   1.435   5.566 -1.4107  0.5870 -1.3948
18376TIP3   OH276542   2.696   2.552   5.168 -0.3250 -0.1598 -0.5851
18376TIP3    H176543   2.725   2.566   5.258  1.1354 -1.4505 -0.8148
18376TIP3    H276544   2.707   2.638   5.126 -1.0304  0.4536  0.4476
18377TIP3   OH276545   3.016   3.336   3.517 -0.0726 -0.0998 -0.1471
18377TIP3    H176546   2.960   3.335   3.440 -1.8350  0.5464  1.0397
18377TIP3    H276547   3.003   3.250   3.557 -1.0715  0.3886  0.6503
18378TIP3   OH276548   6.218   0.924   0.015  0.5495 -0.3174  0.3131
18378TIP3    H176549   6.210   0.974  -0.065  1.8742  0.1201  0.4292
18378TIP3    H276550   6.176   0.840  -0.004  0.3920 -0.0207 -0.6560
18379TIP3   OH276551   4.402   3.665  11.184  0.2555  0.5280  0.1819
18379TIP3    H176552   4.411   3.663  11.279 -3.0685  0.6043  0.6214
18379TIP3    H276553   4.354   3.746  11.166  0.6230  0.3971 -1.5238
18380TIP3   OH276554   4.534   2.295  13.023 -0.1484 -0.4909  0.4564
18380TIP3    H176555   4.593   2.227  12.992  0.8385  1.1270 -1.5030
18380TIP3    H276556   4.474   2.310  12.950  1.4846  2.6151 -0.4818
18381TIP3   OH276557   6.202   3.307   5.118  0.2013  0.5386  0.0554
18381TIP3    H176558   6.241   3.249   5.184 -1.9091 -1.1835 -0.1146
18381TIP3    H276559   6.233   3.394   5.142 -1.2806  0.1846  4.0613
18382TIP3   OH276560   0.913   0.426   1.868 -0.4600 -0.5168 -0.1495
18382TIP3    H176561   0.819   0.441   1.861 -0.5652 -0.4647  1.1692
18382TIP3    H276562   0.947   0.505   1.910 -0.1652 -1.4253  1.3986
18383TIP3   OH276563   5.493   2.177   1.942  0.5476 -0.1225 -0.1465
18383TIP3    H176564   5.573   2.146   1.983  0.6841  1.1841  0.5972
18383TIP3    H276565   5.468   2.255   1.991 -1.5266 -0.8293  0.0385
18384TIP3   OH276566   0.958   4.157   1.954 -0.4170 -0.0135 -0.3382
18384TIP3    H176567   0.888   4.216   1.924 -0.1467  0.5474  0.1023
18384TIP3    H276568   0.931   4.131   2.042  1.0547  2.1465  0.8441
18385TIP3   OH276569   6.592   0.555  16.555 -0.2978  0.4923 -0.5211
18385TIP3    H176570   6.526   0.492  16.526  0.6804 -1.1789  0.7121
18385TIP3    H276571   6.562   0.639  16.521 -2.5753 -0.3565 -0.7608
18386TIP3   OH276572   3.857   3.649   3.088 -0.2813 -0.5754 -0.2713
18386TIP3    H176573   3.932   3.611   3.042 -1.3441 -0.0682 -2.5923
18386TIP3    H276574   3.816   3.575   3.133  0.6533 -1.1554 -0.3504
18387TIP3   OH276575   3.232   0.480   3.470 -0.3969  0.7539  0.1084
18387TIP3    H176576   3.201   0.544   3.405  2.2851 -0.0089 -2.1123
18387TIP3    H276577   3.157   0.422   3.483 -0.8911  0.5338 -2.9533
18388TIP3   OH276578   4.763   4.770  14.340 -0.0575  0.4571  0.6901
18388TIP3    H176579   4.772   4.827  14.264 -1.8595  2.6357  1.9984
18388TIP3    H276580   4.839   4.792  14.395 -0.8729  1.8844  1.3049
18389TIP3   OH276581   1.710   3.125  11.175 -0.2981  0.2706  0.1609
18389TIP3    H176582   1.706   3.218  11.153 -0.1003  0.2625  0.0868
18389TIP3    H276583   1.649   3.083  11.115  0.6829  0.1730 -0.7829
18390TIP3   OH276584   0.979   6.365  15.389  0.3751 -0.1061  0.0246
18390TIP3    H176585   0.969   6.275  15.358 -0.8081  0.3459 -0.9787
18390TIP3    H276586   0.952   6.363  15.481 -0.6836 -0.5772 -0.2929
18391TIP3   OH276587   2.325   4.680   5.595 -0.1252  0.0334  0.1541
18391TIP3    H176588   2.322   4.615   5.525  1.6719  1.8711 -1.7874
18391TIP3    H276589   2.257   4.743   5.571  1.2964  1.3038 -0.6970
18392TIP3   OH276590   4.533   2.344  15.163 -0.5452  0.6887  0.3376
18392TIP3    H176591   4.552   2.256  15.196  1.5831  0.5041 -1.1364
18392TIP3    H276592   4.617   2.375  15.129 -2.0671  1.6708 -2.8950
18393TIP3   OH276593   4.015   3.169  16.791  0.0131  0.0721 -0.0147
18393TIP3    H176594   4.109   3.186  16.802  0.3111 -1.5912  0.3618
18393TIP3    H276595   3.986   3.140  16.877 -0.9854  1.0786  0.0053
18394TIP3   OH276596   6.029   1.026  12.201 -0.1340 -0.4645  0.0408
18394TIP3    H176597   6.028   1.002  12.108  0.2366  0.9682 -0.3545
18394TIP3    H276598   5.965   0.967  12.241  0.1273 -1.5008 -1.0096
18395TIP3   OH276599   5.452   0.513   4.178 -0.0681 -0.0308  0.0942
18395TIP3    H176600   5.486   0.435   4.222 -0.1973 -0.0169  0.2181
18395TIP3    H276601   5.528   0.549   4.132  0.5176  0.9499  1.7564
18396TIP3   OH276602   0.751   6.377   2.761  0.5450 -0.2117  0.5751
18396TIP3    H176603   0.682   6.369   2.828  1.6556 -3.3692  1.5230
18396TIP3    H276604   0.755   6.291   2.721  1.1728  1.0992 -2.4163
18397TIP3   OH276605   0.293   3.568   3.330 -0.4448  0.1456  0.1043
18397TIP3    H176606   0.202   3.558   3.355 -0.1873 -1.2429  0.5688
18397TIP3    H276607   0.292   3.630   3.258 -1.7571  0.0987  0.0719
18398TIP3   OH276608   3.737   5.949  11.893  0.6437 -0.3869 -0.2427
18398TIP3    H176609   3.705   5.894  11.965  0.7302 -0.1549 -0.0237
18398TIP3    H276610   3.809   5.999  11.932 -0.0957  0.6419 -0.1435
18399TIP3   OH276611   2.455   3.515  15.391  0.3401 -0.1397  0.4361
18399TIP3    H176612   2.504   3.452  15.444 -0.4753  0.0714  1.4839
18399TIP3    H276613   2.522   3.563  15.342  1.1578 -0.0843  1.5656
18400TIP3   OH276614   0.730   0.935  14.657 -0.2648 -0.1280 -0.2049
18400TIP3    H176615   0.779   0.949  14.575  1.2282 -1.9344  0.3212
18400TIP3    H276616   0.781   0.870  14.705 -2.0485 -0.4190  1.4089
18401TIP3   OH276617   3.894   5.399   3.825 -0.3087  0.1226  0.1874
18401TIP3    H176618   3.803   5.377   3.842  0.3154 -2.2528  0.9307
18401TIP3    H276619   3.932   5.318   3.789  1.8665  0.4897  1.4551
18402TIP3   OH276620   1.594   1.397  15.135 -0.2313  0.2692 -0.6040
18402TIP3    H176621   1.558   1.432  15.054 -0.0861 -0.4578 -0.9930
18402TIP3    H276622   1.517   1.383  15.191 -0.2397  1.6946 -0.2343
18403TIP3   OH276623   1.462   0.069   3.833  0.2164 -0.2078 -0.2837
18403TIP3    H176624   1.378   0.065   3.789 -0.9507 -2.3327  1.8975
18403TIP3    H276625   1.447   0.127   3.909  0.7381 -0.5186  0.0642
18404TIP3   OH276626   0.306   3.904   0.650  0.1642  0.1003  0.0443
18404TIP3    H176627   0.215   3.933   0.665 -0.2335 -0.6555 -0.8572
18404TIP3    H276628   0.338   3.881   0.737 -0.9650 -0.9220  0.2085
18405TIP3   OH276629   5.731   3.410   4.598 -0.4274 -0.3472  0.5552
18405TIP3    H176630   5.749   3.353   4.673  0.6288 -0.8405 -0.0526
18405TIP3    H276631   5.813   3.456   4.583 -0.7975  0.1531  0.0422
18406TIP3   OH276632   2.209   0.852   6.644  0.1041 -0.3696  0.5740
18406TIP3    H176633   2.148   0.816   6.579 -1.3468  0.3379  1.4887
18406TIP3    H276634   2.209   0.947   6.626  1.7090 -0.4645 -0.0305
18407TIP3   OH276635   4.346   6.062  13.570 -0.0059  0.1536 -0.2636
18407TIP3    H176636   4.340   6.042  13.476 -0.8992 -0.0545 -0.1662
18407TIP3    H276637   4.256   6.081  13.596  0.1245 -0.5394  0.7276
18408TIP3   OH276638   5.986   5.980   1.659 -0.2137  0.0153 -0.2335
18408TIP3    H176639   5.929   5.990   1.736 -0.0533  3.5485 -0.4043
18408TIP3    H276640   5.930   5.939   1.593 -2.0491  1.6294  0.2127
18409TIP3   OH276641   1.818   1.699   4.169 -0.3624 -0.7707 -1.0211
18409TIP3    H176642   1.782   1.737   4.089 -0.4089  1.2308 -0.1192
18409TIP3    H276643   1.869   1.770   4.208 -1.6509 -1.1069  1.5086
18410TIP3   OH276644   6.489   6.724  11.362  0.0523 -0.7626  0.1105
18410TIP3    H176645   6.545   6.675  11.302  0.4765 -1.1043  0.7709
18410TIP3    H276646   6.417   6.756  11.308 -0.2154 -2.0891 -0.3341
18411TIP3   OH276647   4.829   2.065   2.649  0.3912  0.2283  0.4776
18411TIP3    H176648   4.740   2.080   2.682 -0.7144 -0.9798 -1.7629
18411TIP3    H276649   4.837   1.970   2.642  1.4963  0.3509 -0.2947
18412TIP3   OH276650   4.697   1.972   4.096 -0.3789 -0.0728 -0.5046
18412TIP3    H176651   4.766   2.026   4.058  0.2685  1.3475  2.4383
18412TIP3    H276652   4.722   1.882   4.074  1.4492  0.5076 -0.9560
18413TIP3   OH276653   3.183   6.234  15.141 -0.3106  0.1708  0.0801
18413TIP3    H176654   3.199   6.310  15.197 -2.5104  0.9863 -0.2838
18413TIP3    H276655   3.160   6.164  15.202 -1.0584  0.5975  0.3017
18414TIP3   OH276656   4.142   1.543   4.106  0.0635  0.0559 -0.0602
18414TIP3    H176657   4.150   1.465   4.160  0.4547 -0.3379 -0.6788
18414TIP3    H276658   4.081   1.519   4.037  0.2913  0.2521 -0.3328
18415TIP3   OH276659   1.567   2.347  11.025  0.0530 -0.2451  0.5507
18415TIP3    H176660   1.643   2.336  10.968  0.8533 -1.1224  1.7405
18415TIP3    H276661   1.530   2.260  11.033 -2.9123  0.5779 -2.3447
18416TIP3   OH276662   1.644   2.187  15.545  0.2814 -0.6784 -0.4949
18416TIP3    H176663   1.611   2.210  15.632 -0.0139  1.3858 -1.0964
18416TIP3    H276664   1.733   2.154  15.561  0.9465  1.3970  0.5017
18417TIP3   OH276665   0.951   5.338   5.875  0.7879  0.2967  0.3034
18417TIP3    H176666   0.955   5.372   5.964  1.3203  1.2715 -0.0757
18417TIP3    H276667   1.036   5.296   5.861  0.0013 -1.6150  0.8996
18418TIP3   OH276668   3.469   2.311  15.110 -0.2810  0.0011  0.0258
18418TIP3    H176669   3.493   2.380  15.172  0.9400 -0.8094  0.4894
18418TIP3    H276670   3.457   2.356  15.026  0.4845  0.7802  0.3256
18419TIP3   OH276671   1.944   4.119  14.504 -0.5793  0.0774 -0.3831
18419TIP3    H176672   2.031   4.081  14.517 -0.5654 -0.0493 -0.8226
18419TIP3    H276673   1.944   4.149  14.413 -0.6327  1.0337 -0.0848
18420TIP3   OH276674   4.428   6.632   1.706 -0.2605  0.5257  0.1779
18420TIP3    H176675   4.499   6.576   1.735  0.2618  0.2393 -1.5157
18420TIP3    H276676   4.467   6.719   1.698 -0.6981  0.8515  1.4004
18421TIP3   OH276677   2.098   3.516  13.538  0.1852 -0.2693 -0.2641
18421TIP3    H176678   2.178   3.527  13.590  0.5583 -0.6736 -0.7405
18421TIP3    H276679   2.027   3.543  13.597  0.6839  0.2565  0.1058
18422TIP3   OH276680   5.527   1.927   0.568 -0.0094  0.0053  0.0266
18422TIP3    H176681   5.536   1.960   0.657  0.7471 -0.9655  0.3295
18422TIP3    H276682   5.520   2.005   0.513  1.6298  0.6749  0.7111
18423TIP3   OH276683   1.551   1.784  13.371 -0.0765  0.6654 -0.3804
18423TIP3    H176684   1.550   1.872  13.409 -1.1147  0.5110 -0.0365
18423TIP3    H276685   1.628   1.785  13.313  0.6738  1.3767  0.5876
18424TIP3   OH276686   4.113   6.341   0.914 -0.2539  0.3358  0.1694
18424TIP3    H176687   4.114   6.284   0.991 -2.8854 -0.8848 -0.5794
18424TIP3    H276688   4.036   6.396   0.927 -0.0671  0.9014 -1.0469
18425TIP3   OH276689   6.755   2.461  15.305  0.6471 -1.0117 -0.1205
18425TIP3    H176690   6.816   2.407  15.356 -0.8895 -2.0770  0.6685
18425TIP3    H276691   6.671   2.417  15.314 -0.6334  1.3691  0.3251
18426TIP3   OH276692   5.253   3.752   4.705 -0.3340  0.2774  0.0699
18426TIP3    H176693   5.300   3.741   4.622  0.8738  2.1945  0.4446
18426TIP3    H276694   5.163   3.770   4.679  0.0981  1.1927 -0.8700
18427TIP3   OH276695   1.717   6.018  16.740  0.5351 -0.4931  0.1582
18427TIP3    H176696   1.755   5.990  16.823 -0.0995 -3.4010 -0.4220
18427TIP3    H276697   1.786   6.068  16.697  2.2689 -2.2205  0.8226
18428TIP3   OH276698   4.928   2.219  15.090 -0.5309 -0.1136 -0.0944
18428TIP3    H176699   4.896   2.299  15.047  0.1883 -0.3970 -1.1955
18428TIP3    H276700   4.983   2.251  15.161 -0.3896  0.3730 -0.4187
18429TIP3   OH276701   3.663   0.446  14.564  0.4301 -0.2484  0.5055
18429TIP3    H176702   3.689   0.486  14.647 -0.0807  1.1118  0.0502
18429TIP3    H276703   3.734   0.469  14.503 -0.8890  1.9652 -0.3071
18430TIP3   OH276704   1.077   3.942   3.104  0.0627  0.4889 -0.3831
18430TIP3    H176705   1.001   3.985   3.142 -0.4746 -0.0997 -0.7850
18430TIP3    H276706   1.059   3.849   3.111  0.8441  0.3354 -0.2825
18431TIP3   OH276707   0.277   1.732   3.769  0.3721 -0.1087 -0.2350
18431TIP3    H176708   0.365   1.763   3.746  0.1404  0.5679 -0.2540
18431TIP3    H276709   0.226   1.813   3.779  0.2616 -0.3810  1.9012
18432TIP3   OH276710   6.281   4.005   3.019  0.3418  0.4343 -0.2666
18432TIP3    H176711   6.284   3.922   2.970  3.5565  2.0230 -3.1657
18432TIP3    H276712   6.358   4.001   3.077 -1.3221  0.1754  2.0860
18433TIP3   OH276713   1.698   1.398  14.836  0.5715  0.3062 -0.2395
18433TIP3    H176714   1.771   1.457  14.853  0.6848 -0.3065  1.8003
18433TIP3    H276715   1.736   1.327  14.784  0.9286  0.9725 -0.9015
18434TIP3   OH276716   2.162   5.561  17.134  0.1361 -0.3330 -0.2589
18434TIP3    H176717   2.146   5.540  17.226  1.0407 -1.1022 -0.2567
18434TIP3    H276718   2.244   5.611  17.135 -0.8857  1.4313 -0.4791
18435TIP3   OH276719   3.016   4.459   3.854 -0.5159  0.4167 -0.0906
18435TIP3    H176720   3.059   4.541   3.829 -0.9473  0.7287  0.1820
18435TIP3    H276721   3.065   4.391   3.807  0.4048  0.7473  0.3624
18436TIP3   OH276722   6.326   5.341  17.161 -0.3020  0.5076  0.8875
18436TIP3    H176723   6.329   5.246  17.173  1.2251  0.2800 -0.8867
18436TIP3    H276724   6.414   5.371  17.184 -0.1191  1.1946 -0.6235
18437TIP3   OH276725   0.008   0.579  12.583 -0.0499 -0.0878  0.0790
18437TIP3    H176726  -0.026   0.546  12.500  0.1129 -0.8952  0.3188
18437TIP3    H276727  -0.071   0.597  12.635 -0.1483  0.2067 -0.1758
18438TIP3   OH276728   3.373   4.709   0.435  0.4405 -0.2038 -0.5524
18438TIP3    H176729   3.280   4.695   0.455  0.1287 -0.1198 -1.8512
18438TIP3    H276730   3.374   4.783   0.375  1.5475  1.1547  1.0677
18439TIP3   OH276731   2.805   0.699   1.279 -0.4266  0.1635  0.1923
18439TIP3    H176732   2.831   0.635   1.212 -0.0147 -0.5326  1.0048
18439TIP3    H276733   2.710   0.690   1.285 -0.5294  0.5617 -0.6189
18440TIP3   OH276734   5.274   2.759   1.798 -0.0148  0.3283  0.0765
18440TIP3    H176735   5.263   2.708   1.878 -1.0720 -1.1970 -0.9850
18440TIP3    H276736   5.365   2.745   1.772 -0.4095 -1.5409 -0.4751
18441TIP3   OH276737   2.438   0.351  16.029  0.0531  0.4663 -0.3479
18441TIP3    H176738   2.529   0.361  16.057  0.4005  2.1677 -1.8707
18441TIP3    H276739   2.386   0.381  16.104  0.8203  1.3541 -0.1565
18442TIP3   OH276740   2.716   3.123   1.227  0.1925  0.5604 -0.0871
18442TIP3    H176741   2.782   3.062   1.192  0.4167  1.4610 -1.3402
18442TIP3    H276742   2.766   3.202   1.246 -0.5244  1.3200 -1.2359
18443TIP3   OH276743   1.670   1.245  14.391  0.2540  0.1516 -0.0126
18443TIP3    H176744   1.718   1.166  14.417  0.4361  0.7700  1.6723
18443TIP3    H276745   1.664   1.296  14.471 -2.0231  0.7409 -0.4796
18444TIP3   OH276746   5.088   3.304  12.085  0.2759 -1.0978 -0.1377
18444TIP3    H176747   5.028   3.310  12.159  1.0393 -3.5253  0.7974
18444TIP3    H276748   5.034   3.324  12.009 -0.5563  1.3832  1.0009
18445TIP3   OH276749   4.528   2.118   3.937 -0.4834  0.7821  0.3049
18445TIP3    H176750   4.556   2.048   3.995 -1.0252  0.3876  0.1032
18445TIP3    H276751   4.592   2.119   3.866 -0.4740  0.4938  0.3102
18446TIP3   OH276752   4.189   5.551  15.606  0.5526  0.1085 -0.3880
18446TIP3    H176753   4.195   5.618  15.537  0.5590  1.1515  0.5865
18446TIP3    H276754   4.221   5.471  15.565  2.2858  1.1018 -1.1124
18447TIP3   OH276755   3.117   5.926  13.014  1.0483 -0.0777 -0.7663
18447TIP3    H176756   3.160   5.991  13.069 -0.4894 -0.2665  0.7484
18447TIP3    H276757   3.140   5.842  13.053  1.6688 -0.3697 -1.7197
18448TIP3   OH276758   2.015   3.892  16.009  0.0119 -0.6212  0.3778
18448TIP3    H176759   2.099   3.846  16.015  0.0765 -0.7421 -0.9958
18448TIP3    H276760   2.030   3.959  15.942 -0.7194 -0.0091  0.8142
18449TIP3   OH276761   2.044   2.740  11.796 -0.5244  0.4302  0.6516
18449TIP3    H176762   2.084   2.760  11.881  1.9380 -0.6428 -0.1781
18449TIP3    H276763   2.019   2.648  11.802  1.5000 -0.2378 -0.3926
18450TIP3   OH276764   4.373   5.538   1.971 -0.6867  0.5809 -0.3002
18450TIP3    H176765   4.458   5.583   1.977 -0.6490  0.4525  0.2368
18450TIP3    H276766   4.395   5.452   1.936 -0.7956  1.0692 -1.6014
18451TIP3   OH276767   1.946   0.935  15.254  0.0790  0.0843 -0.1132
18451TIP3    H176768   1.967   0.923  15.347 -0.6884  0.1726  0.0720
18451TIP3    H276769   1.965   1.028  15.237  0.4338  0.0147 -0.1026
18452TIP3   OH276770   3.568   5.597  11.961  0.1435 -0.2932 -0.2038
18452TIP3    H176771   3.662   5.594  11.980  0.1767 -1.7054 -0.4680
18452TIP3    H276772   3.528   5.626  12.042  0.6893 -1.2007  0.4022
18453TIP3   OH276773   2.258   5.038   4.808 -0.1246 -0.6526 -0.4356
18453TIP3    H176774   2.279   5.093   4.883 -0.6419  1.3085 -1.6423
18453TIP3    H276775   2.343   5.006   4.778  0.2813  0.1167 -0.1446
18454TIP3   OH276776   2.382   2.009  16.706 -0.3000 -0.4885 -0.0475
18454TIP3    H176777   2.438   2.051  16.770 -0.5378 -0.6972  0.2990
18454TIP3    H276778   2.361   1.923  16.743  0.5657 -1.1202 -0.9632
18455TIP3   OH276779   1.376   0.427  11.666  0.1867  0.5660  0.2803
18455TIP3    H176780   1.334   0.345  11.639  0.2334  0.0663  1.6578
18455TIP3    H276781   1.309   0.494  11.650 -0.4897  0.0222  0.7490
18456TIP3   OH276782   1.540   4.120  12.052  0.4381 -0.4619 -0.0468
18456TIP3    H176783   1.541   4.025  12.057 -0.3034 -0.4356  0.6634
18456TIP3    H276784   1.631   4.146  12.067  0.1547 -0.9220  2.8918
18457TIP3   OH276785   1.646   0.079  12.793  0.6177  0.1008  0.3114
18457TIP3    H176786   1.620   0.045  12.708  1.4991 -1.1820  0.5340
18457TIP3    H276787   1.703   0.153  12.773 -0.8084  1.1305 -0.1761
18458TIP3   OH276788   2.847   1.386   1.691  0.1562  0.4395  0.3607
18458TIP3    H176789   2.876   1.295   1.695  0.8803  0.5593 -1.2018
18458TIP3    H276790   2.842   1.414   1.782 -1.4696 -1.5612  0.9481
18459TIP3   OH276791   0.295   5.899   3.408  0.4720  0.3203  0.0694
18459TIP3    H176792   0.300   5.992   3.389 -0.0047  0.5778  1.1161
18459TIP3    H276793   0.339   5.890   3.493 -0.4010 -0.2341  0.4741
18460TIP3   OH276794   6.319   3.750   2.951 -0.0833 -0.2796 -0.1687
18460TIP3    H176795   6.283   3.678   2.899 -0.2917  0.0522 -0.4901
18460TIP3    H276796   6.370   3.707   3.020 -0.5342 -0.7425 -0.1190
18461TIP3   OH276797   5.255   0.631  14.038 -0.7347  0.0184  0.2871
18461TIP3    H176798   5.312   0.564  14.000 -0.6926  0.1964  0.0344
18461TIP3    H276799   5.283   0.713  13.997 -1.4861  0.0426 -0.2047
18462TIP3   OH276800   6.269   3.497  12.628 -0.3217  0.6036 -0.1188
18462TIP3    H176801   6.289   3.470  12.538  1.6551  0.9392  0.1702
18462TIP3    H276802   6.184   3.458  12.647  0.2455 -1.3625 -1.3579
18463TIP3   OH276803   6.177   2.263   3.158  0.2444 -0.3275 -0.4214
18463TIP3    H176804   6.263   2.244   3.194 -0.0945 -2.2220 -0.4960
18463TIP3    H276805   6.190   2.264   3.063 -0.0898 -2.4669 -0.5358
18464TIP3   OH276806   1.430   5.012  14.498 -0.6006 -0.2626 -0.3300
18464TIP3    H176807   1.440   5.067  14.575 -3.0080  1.4635 -1.1554
18464TIP3    H276808   1.480   4.933  14.519  0.8831  1.1529  1.9315
18465TIP3   OH276809   6.409   5.423  10.774 -0.0147  0.0121 -0.6242
18465TIP3    H176810   6.501   5.408  10.751  0.3338 -1.0383  1.2176
18465TIP3    H276811   6.366   5.340  10.758 -0.4055  0.1763 -0.4527
18466TIP3   OH276812   4.233   4.035  11.881  0.0555  0.4470  0.6992
18466TIP3    H176813   4.311   4.081  11.851 -0.0999  0.5361  0.4333
18466TIP3    H276814   4.200   4.088  11.953  0.5882  0.0865  1.2254
18467TIP3   OH276815   1.875   4.298  12.142  0.2068 -0.1070  0.0300
18467TIP3    H176816   1.863   4.218  12.091  1.3329  0.5009 -1.2511
18467TIP3    H276817   1.889   4.366  12.077  0.2247  0.9781  1.1276
18468TIP3   OH276818   4.450   3.110   5.893  0.5133 -0.7024  0.2469
18468TIP3    H176819   4.421   3.019   5.885  2.5292 -1.7508  3.1711
18468TIP3    H276820   4.417   3.139   5.978  0.2790  1.2166 -0.4301
18469TIP3   OH276821   5.428   5.574   5.840  0.9985  0.8608  0.1931
18469TIP3    H176822   5.377   5.618   5.909 -0.6410  1.0157 -1.0402
18469TIP3    H276823   5.381   5.594   5.759  2.6519  0.3685 -0.9454
18470TIP3   OH276824   0.455   3.269  11.976  0.0539 -0.1532 -0.1663
18470TIP3    H176825   0.520   3.339  11.972  0.9024 -0.9654 -0.7648
18470TIP3    H276826   0.500   3.192  11.943 -1.2731 -0.6857 -0.8007
18471TIP3   OH276827   3.531   3.085   0.583  0.2548 -0.2240 -0.3805
18471TIP3    H176828   3.448   3.098   0.536  0.8022  0.8407 -1.0805
18471TIP3    H276829   3.505   3.040   0.663 -1.3283  1.9543  0.4489
18472TIP3   OH276830   2.403   5.835  14.045 -0.3161 -0.1403  0.1067
18472TIP3    H176831   2.373   5.746  14.029 -0.3029 -0.0912 -0.1857
18472TIP3    H276832   2.443   5.863  13.963 -2.0723  0.8489 -0.4600
18473TIP3   OH276833   5.448   3.868  17.156  0.0484  0.4702 -0.0051
18473TIP3    H176834   5.466   3.856  17.249  1.8748 -1.0541 -0.5117
18473TIP3    H276835   5.512   3.933  17.127 -0.5690  1.0033 -0.2005
18474TIP3   OH276836   4.402   4.299  11.520  0.0319 -0.2752  0.1134
18474TIP3    H176837   4.459   4.288  11.444  0.5690  2.4575 -0.0044
18474TIP3    H276838   4.314   4.286  11.486  0.1680  1.9609 -1.3615
18475TIP3   OH276839   5.212   1.918   3.653 -0.5086  0.0774  0.5781
18475TIP3    H176840   5.140   1.951   3.599 -0.4864  0.4041  0.7459
18475TIP3    H276841   5.193   1.824   3.663  0.0715 -0.2118 -0.8996
18476TIP3   OH276842   5.983   4.220   3.367  0.2982  0.4609 -0.3156
18476TIP3    H176843   5.927   4.154   3.326 -0.5202  0.4267  0.8391
18476TIP3    H276844   5.952   4.303   3.331 -2.5023  0.7583  2.4057
18477TIP3   OH276845   3.022   5.173  16.984 -0.1590 -0.4284 -0.0368
18477TIP3    H176846   3.052   5.194  17.072 -0.8987  0.4112  0.0359
18477TIP3    H276847   3.031   5.256  16.936  2.5886 -1.4194 -1.4857
18478TIP3   OH276848   1.526   0.987   4.262 -0.7363 -0.1522 -0.5124
18478TIP3    H176849   1.460   1.020   4.201 -1.8511 -0.3826  0.5290
18478TIP3    H276850   1.595   0.952   4.206 -1.1200  0.8088 -1.6326
18479TIP3   OH276851   5.386   1.968   4.544  0.1025  0.0196 -0.0127
18479TIP3    H176852   5.391   2.015   4.460 -0.8804  0.1124 -0.0292
18479TIP3    H276853   5.421   1.881   4.525 -2.0389 -0.6756 -1.0798
18480TIP3   OH276854   1.879   0.362   0.424 -1.1497  0.0311 -0.2127
18480TIP3    H176855   1.830   0.334   0.502  0.3290  1.9794  1.5211
18480TIP3    H276856   1.879   0.457   0.429  1.8243  0.1510 -0.7045
18481TIP3   OH276857   1.287   5.621  11.247  0.4407  0.1485 -0.0277
18481TIP3    H176858   1.250   5.601  11.161 -0.7357 -1.7307  0.8518
18481TIP3    H276859   1.379   5.598  11.239  0.1664 -0.7972 -0.5483
18482TIP3   OH276860   1.070   1.634  15.078  0.2609  0.0174  0.1435
18482TIP3    H176861   1.060   1.552  15.126 -0.3186 -0.2758 -0.4650
18482TIP3    H276862   1.009   1.626  15.004  1.5479  0.2005 -0.9764
18483TIP3   OH276863   5.200   1.525   3.339 -0.5299  0.3241 -0.0665
18483TIP3    H176864   5.125   1.569   3.380  0.4188  0.8677  1.1130
18483TIP3    H276865   5.185   1.536   3.245 -1.5292  1.0947  0.1688
18484TIP3   OH276866   4.882   3.676  12.179  0.0807 -0.2415 -0.1718
18484TIP3    H176867   4.813   3.699  12.242 -0.3653  1.7088 -1.2691
18484TIP3    H276868   4.963   3.704  12.221  0.0569 -1.2350  0.5448
18485TIP3   OH276869   2.115   1.721   2.057  0.7272  0.0686 -0.5975
18485TIP3    H176870   2.074   1.781   2.120  1.3572  0.0784 -0.1899
18485TIP3    H276871   2.042   1.691   2.002  0.5203  1.8433 -1.3403
18486TIP3   OH276872   2.264   4.978   5.198  0.9907  0.6768  0.1096
18486TIP3    H176873   2.343   4.927   5.181  0.9994  0.1489  1.5632
18486TIP3    H276874   2.285   5.029   5.277 -0.3846 -0.0777  1.0004
18487TIP3   OH276875   6.417   5.948   1.897 -0.1566  0.3647 -0.2262
18487TIP3    H176876   6.339   5.987   1.936  0.3300  0.7761  0.3594
18487TIP3    H276877   6.465   5.910   1.971 -0.3239 -0.8384 -0.7107
18488TIP3   OH276878   5.843   0.181  12.182 -0.1820  0.2440  0.3454
18488TIP3    H176879   5.875   0.255  12.130  1.4416  0.1911  1.1924
18488TIP3    H276880   5.748   0.193  12.186  0.0693  2.6442  0.9431
18489TIP3   OH276881   0.124   2.160   0.834 -0.0559 -0.5307 -0.6356
18489TIP3    H176882   0.164   2.229   0.781  0.4585 -1.4963 -1.5520
18489TIP3    H276883   0.198   2.116   0.876 -0.1676 -1.8851 -1.7890
18490TIP3   OH276884   6.015   0.467  11.160 -0.1211 -0.1779  0.6236
18490TIP3    H176885   6.037   0.486  11.251 -1.6781  0.5703  0.8827
18490TIP3    H276886   5.979   0.549  11.127  1.1725 -0.1909 -0.9375
18491TIP3   OH276887   2.691   0.810   6.184  0.1495  0.3018  0.5402
18491TIP3    H176888   2.745   0.861   6.244  1.2608 -0.5281  0.2852
18491TIP3    H276889   2.715   0.844   6.097  2.2799 -1.7648  0.1986
18492TIP3   OH276890   1.763   2.096  15.808  0.2780  0.2144  0.3086
18492TIP3    H176891   1.750   2.009  15.846 -1.6346 -0.4678 -1.7261
18492TIP3    H276892   1.707   2.154  15.860 -1.6295 -0.5498 -0.7985
18493TIP3   OH276893   4.864   4.228  10.814 -0.2928  0.1088 -0.4211
18493TIP3    H176894   4.912   4.187  10.741 -0.1296  0.8029 -0.7111
18493TIP3    H276895   4.926   4.228  10.886 -0.8768 -1.7713  0.1427
18494TIP3   OH276896   6.650   0.735  15.694  0.6869 -0.0028  0.3935
18494TIP3    H176897   6.727   0.783  15.726 -0.0651  0.2303  1.9336
18494TIP3    H276898   6.576   0.794  15.712  0.0172 -0.7195  0.0325
18495TIP3   OH276899   2.900   6.755  15.615 -0.0878  0.8113 -0.1730
18495TIP3    H176900   2.991   6.728  15.622 -0.5893 -0.6649  1.1500
18495TIP3    H276901   2.875   6.733  15.525  0.3020 -0.6820  0.0657
18496TIP3   OH276902   6.357   3.240  16.960  0.3382 -0.4535  0.2070
18496TIP3    H176903   6.446   3.272  16.975  1.2031 -2.7685  0.4522
18496TIP3    H276904   6.309   3.263  17.040  0.9462  0.0559  0.4302
18497TIP3   OH276905   3.578   1.916  14.277  0.4389 -0.2640 -0.4316
18497TIP3    H176906   3.498   1.869  14.256  0.6406 -1.3282  1.0509
18497TIP3    H276907   3.550   2.007  14.291 -0.5087 -0.6214  0.0680
18498TIP3   OH276908   5.025   6.350  15.089  0.1217  0.3899  0.1212
18498TIP3    H176909   5.048   6.262  15.058 -1.1658 -0.2567  0.9280
18498TIP3    H276910   4.946   6.373  15.041  0.7838  1.3879 -0.5296
18499TIP3   OH276911   0.450   6.388   5.380 -0.0439  0.1642  0.0001
18499TIP3    H176912   0.454   6.468   5.328  1.0667  0.9508  1.2214
18499TIP3    H276913   0.528   6.392   5.436 -0.7895 -0.9982  1.1820
18500TIP3   OH276914   5.159   1.198   1.056 -0.5546 -0.2045 -0.0663
18500TIP3    H176915   5.181   1.170   1.145  0.0398 -1.0903 -0.4744
18500TIP3    H276916   5.071   1.163   1.041 -0.9368  0.5419  0.4150
18501TIP3   OH276917   1.418   4.655   1.247 -0.5588  0.0041 -0.3422
18501TIP3    H176918   1.358   4.582   1.257  0.1300 -0.3160  2.3064
18501TIP3    H276919   1.368   4.731   1.277  0.2358 -0.2688  1.9078
18502TIP3   OH276920   1.519   3.846   1.638 -0.4763 -0.2086  0.3230
18502TIP3    H176921   1.424   3.844   1.651 -0.6436  0.0483 -0.7553
18502TIP3    H276922   1.552   3.774   1.692 -1.5153 -1.7164 -0.9661
18503TIP3   OH276923   1.931   5.728   3.918 -0.2226 -0.8631  0.5916
18503TIP3    H176924   1.919   5.724   3.823 -1.9545  2.1789  0.5265
18503TIP3    H276925   1.865   5.668   3.953 -2.1030  0.6132 -0.1918
18504TIP3   OH276926   6.228   5.508   1.938 -0.0935 -0.2781  0.1055
18504TIP3    H176927   6.229   5.571   1.865 -2.9355  0.1081  0.3020
18504TIP3    H276928   6.309   5.526   1.985  0.1903  1.8171 -1.0289
18505TIP3   OH276929   4.131   0.037   3.413  0.1827 -0.1128 -0.4546
18505TIP3    H176930   4.223   0.015   3.429 -0.2867 -0.5661  2.0192
18505TIP3    H276931   4.115   0.009   3.323  2.3263 -0.4903 -0.7659
18506TIP3   OH276932   3.230   4.771   5.376  0.5893 -0.4598 -0.2379
18506TIP3    H176933   3.156   4.738   5.326 -0.3670 -0.8913  1.4112
18506TIP3    H276934   3.252   4.855   5.334 -0.4193 -0.6295 -1.1263
18507TIP3   OH276935   0.999   2.732  14.399  0.2469 -0.0359 -0.3575
18507TIP3    H176936   0.956   2.800  14.345 -1.5351 -2.1654 -1.8073
18507TIP3    H276937   1.091   2.737  14.374 -0.5526 -1.3857 -4.4156
18508TIP3   OH276938   1.316   4.028  15.189  0.1210  0.0931  0.4498
18508TIP3    H176939   1.290   4.095  15.125 -1.8458  0.5919  1.6662
18508TIP3    H276940   1.410   4.020  15.178 -0.1548 -0.0819 -2.6911
18509TIP3   OH276941   2.336   0.426   4.183  0.1385 -0.2298  0.4682
18509TIP3    H176942   2.329   0.521   4.188  0.0751 -0.2705  1.3582
18509TIP3    H276943   2.258   0.399   4.134  1.3434  0.3253 -1.8563
18510TIP3   OH276944   2.951   0.383  11.341  0.3318  0.2565  0.2574
18510TIP3    H176945   2.947   0.325  11.265  2.4130  1.7459 -1.1168
18510TIP3    H276946   3.011   0.340  11.401 -2.2808 -1.5607  1.8057
18511TIP3   OH276947   6.391   4.764   6.947 -0.2185  0.3960 -0.1090
18511TIP3    H176948   6.352   4.834   6.895 -0.8216 -0.8984 -1.4692
18511TIP3    H276949   6.433   4.707   6.883 -0.5964 -0.9995  0.8462
18512TIP3   OH276950   5.890   3.155   6.028  0.1928 -0.2433  0.2266
18512TIP3    H176951   5.922   3.153   6.118  0.6204  1.1650  0.1371
18512TIP3    H276952   5.798   3.179   6.036  0.8370  2.5708  0.2374
18513TIP3   OH276953   6.680   5.826   0.101 -0.6813  0.3234 -0.9359
18513TIP3    H176954   6.756   5.779   0.068 -1.2301  0.0618 -1.8758
18513TIP3    H276955   6.687   5.914   0.063  1.0515  1.5505  1.8571
18514TIP3   OH276956   5.064   4.551   3.574 -0.1584  0.0152 -0.0579
18514TIP3    H176957   5.098   4.526   3.660 -2.3481  0.9581  1.1500
18514TIP3    H276958   4.991   4.491   3.558 -1.0358  1.1085 -0.3176
18515TIP3   OH276959   4.036   5.107   5.496 -0.1201 -0.2620  0.1689
18515TIP3    H176960   4.120   5.151   5.484 -1.3182  1.8099 -1.4559
18515TIP3    H276961   4.004   5.140   5.580  0.0566  0.1139  0.0921
18516TIP3   OH276962   2.840   4.017  15.799  0.2036 -0.1078 -0.8395
18516TIP3    H176963   2.887   3.939  15.829  1.3871  1.3566  1.3796
18516TIP3    H276964   2.801   3.990  15.715 -0.8370 -3.5889  0.5658
18517TIP3   OH276965   4.640   6.386   0.058 -0.3910 -0.6908 -0.1231
18517TIP3    H176966   4.563   6.425   0.098  0.7439  1.3183  0.2342
18517TIP3    H276967   4.646   6.428  -0.028  0.8169 -0.0969  0.2355
18518TIP3   OH276968   3.955   1.162  13.433 -0.3699 -0.6979 -0.4127
18518TIP3    H176969   4.042   1.141  13.465 -0.0150  0.4259 -0.5912
18518TIP3    H276970   3.896   1.109  13.486  0.4067 -1.3139 -0.1529
18519TIP3   OH276971   3.906   1.244   4.828  0.6807 -0.0330 -0.1916
18519TIP3    H176972   3.846   1.287   4.766 -1.1321 -2.8934 -0.6493
18519TIP3    H276973   3.965   1.193   4.772  1.0208 -0.2288  0.3418
18520TIP3   OH276974   6.491   3.331  13.567 -0.1321 -0.0980 -0.3563
18520TIP3    H176975   6.415   3.328  13.509 -1.0219  0.7982  0.7213
18520TIP3    H276976   6.517   3.239  13.578 -0.7444 -0.3724 -1.1239
18521TIP3   OH276977   5.400   5.729  14.717 -0.1274 -0.4521 -0.3433
18521TIP3    H176978   5.424   5.809  14.764  1.9069 -0.3920 -1.3462
18521TIP3    H276979   5.325   5.755  14.662  0.0881  0.5908 -0.1647
18522TIP3   OH276980   5.130   4.980  13.511  0.1492  0.1135 -0.9451
18522TIP3    H176981   5.069   5.031  13.564 -0.1051 -0.4159 -0.7163
18522TIP3    H276982   5.212   5.028  13.515  0.7092 -0.8923  1.5466
18523TIP3   OH276983   1.138   0.775  15.038  0.5914  0.1590  0.1201
18523TIP3    H176984   1.164   0.852  15.088  1.1797 -0.5518  0.9570
18523TIP3    H276985   1.103   0.809  14.956 -0.3077  1.3721  0.9698
18524TIP3   OH276986   4.209   3.681  16.117  0.0023  0.2314  0.5801
18524TIP3    H176987   4.252   3.596  16.112  1.3815  0.9576 -0.2912
18524TIP3    H276988   4.247   3.723  16.195  0.5706  0.6978  0.0611
18525TIP3   OH276989   5.491   3.282   2.649  0.5642  0.3972 -0.3743
18525TIP3    H176990   5.567   3.335   2.625  1.9040 -0.7138  1.2025
18525TIP3    H276991   5.516   3.192   2.628 -1.2312  0.2146 -1.9573
18526TIP3   OH276992   2.439   3.115   1.115 -0.5566 -0.2463 -0.8024
18526TIP3    H176993   2.435   3.041   1.054  0.6965 -0.0690 -1.1417
18526TIP3    H276994   2.507   3.090   1.177 -0.0318  0.6620 -0.9908
18527TIP3   OH276995   6.300   4.861  13.283 -0.1390  0.0564 -0.5578
18527TIP3    H176996   6.291   4.766  13.281 -0.2192  0.0482  0.0179
18527TIP3    H276997   6.386   4.876  13.323 -0.4711  0.2307  0.1168
18528TIP3   OH276998   1.596   6.636  11.240  0.0876  0.1619 -0.0099
18528TIP3    H176999   1.619   6.726  11.264 -0.4075  0.3325 -0.1738
18528TIP3    H277000   1.503   6.630  11.257  0.3193 -0.6563  1.0492
18529TIP3   OH277001   6.474   0.098  14.809 -0.5204  0.5680  0.0511
18529TIP3    H177002   6.383   0.123  14.792 -0.1778  0.1970 -2.9802
18529TIP3    H277003   6.494   0.034  14.740  2.0407  0.6738  0.6039
18530TIP3   OH277004   0.432   6.727   1.139 -0.4431  0.2499  0.3074
18530TIP3    H177005   0.344   6.757   1.116 -0.7867 -1.9105 -1.5490
18530TIP3    H277006   0.491   6.778   1.083 -0.8605 -0.9677 -1.3134
18531TIP3   OH277007   4.646   2.168  15.440 -0.0521  0.0910 -0.1405
18531TIP3    H177008   4.638   2.227  15.516 -0.4261 -0.5525  0.3360
18531TIP3    H277009   4.589   2.094  15.462  1.1852 -0.9263 -0.2641
18532TIP3   OH277010   4.399   0.195  16.244  0.3179 -0.1689  0.0975
18532TIP3    H177011   4.375   0.249  16.168  2.7374  0.9350  0.0365
18532TIP3    H277012   4.328   0.210  16.306  0.3139  2.2694 -0.3681
18533TIP3   OH277013   0.668   5.987  12.539  0.4807 -0.2175 -0.0169
18533TIP3    H177014   0.674   6.074  12.500 -1.1079  1.3353  2.8814
18533TIP3    H277015   0.576   5.963  12.532  0.3977 -0.4682  1.4720
18534TIP3   OH277016   1.710   5.507   0.336 -0.1926  0.4437  0.0658
18534TIP3    H177017   1.623   5.536   0.312 -0.3313 -1.3851 -1.9566
18534TIP3    H277018   1.734   5.560   0.412 -3.1659  0.7557  0.8749
18535TIP3   OH277019   0.748   0.181  17.046  0.0529 -0.2391 -0.5131
18535TIP3    H177020   0.653   0.186  17.039  0.0941  2.2656 -0.4335
18535TIP3    H277021   0.778   0.267  17.015  2.3516 -1.2481 -1.3137
18536TIP3   OH277022   2.546   0.026   6.606 -0.0087  0.2649  0.0537
18536TIP3    H177023   2.556   0.115   6.572 -0.9716  0.5826  0.5861
18536TIP3    H277024   2.452   0.014   6.615 -0.0416 -1.4995 -1.8192
18537TIP3   OH277025   1.269   5.922   4.504 -0.3892  0.0649 -0.4283
18537TIP3    H177026   1.277   5.889   4.415 -0.9603  1.0426 -0.8570
18537TIP3    H277027   1.309   6.008   4.501 -0.1039 -0.0341  0.3496
18538TIP3   OH277028   3.681   4.582  16.492 -0.2476  0.4312 -0.1153
18538TIP3    H177029   3.611   4.645  16.505 -0.5145  0.1416 -0.1531
18538TIP3    H277030   3.761   4.630  16.515 -0.2851  1.2709 -1.5850
18539TIP3   OH277031   2.184   0.018   1.241 -0.9188 -0.0484 -0.6684
18539TIP3    H177032   2.161   0.110   1.253 -0.8451 -0.1431  0.2461
18539TIP3    H277033   2.103  -0.030   1.260 -0.4042 -0.2909  1.0258
18540TIP3   OH277034   1.601   2.248   0.697  0.2266  0.2456  0.1106
18540TIP3    H177035   1.507   2.235   0.709  0.0184 -2.5313 -2.8866
18540TIP3    H277036   1.608   2.331   0.651 -0.9155  0.0008 -0.5510
18541TIP3   OH277037   2.251   4.501   1.202  0.0958  0.1320 -0.0641
18541TIP3    H177038   2.158   4.496   1.178  0.0879  0.7676 -0.1851
18541TIP3    H277039   2.251   4.544   1.288  0.2430 -0.4404  0.2265
18542TIP3   OH277040   0.244   2.338  14.783  0.6198  0.2823 -0.1437
18542TIP3    H177041   0.153   2.368  14.782  0.3159 -0.6163 -0.4876
18542TIP3    H277042   0.295   2.416  14.758  0.0535  1.0861  1.1122
18543TIP3   OH277043   0.779   1.871  14.603  0.2087  0.2979  0.2078
18543TIP3    H177044   0.854   1.926  14.582  1.0738 -0.3897  1.3143
18543TIP3    H277045   0.770   1.878  14.698  0.5702 -1.6819  0.4430
18544TIP3   OH277046   4.361   2.215  16.022  0.4183  0.1001 -0.2284
18544TIP3    H177047   4.308   2.262  15.958  0.7483  1.8336  0.7170
18544TIP3    H277048   4.407   2.149  15.970 -1.0985 -0.1096 -1.3804
18545TIP3   OH277049   5.686   0.663  15.640  0.1942  0.2025  0.1054
18545TIP3    H177050   5.606   0.620  15.610  0.0797  0.3336  0.2220
18545TIP3    H277051   5.750   0.592  15.646 -0.2247 -0.1057  1.1491
18546TIP3   OH277052   1.718   0.743  13.553  0.6240 -0.0748  0.9787
18546TIP3    H177053   1.777   0.818  13.552 -0.5863  0.9040  0.6144
18546TIP3    H277054   1.679   0.742  13.465  1.5269 -1.9019  0.5381
18547TIP3   OH277055   4.658   0.264  16.300  0.7455 -0.3892 -0.1994
18547TIP3    H177056   4.565   0.253  16.319  0.9766 -0.2104  1.1851
18547TIP3    H277057   4.702   0.245  16.383  2.0751 -2.0297 -1.2043
18548TIP3   OH277058   4.106   2.522   2.887 -0.3388 -0.1977  0.6738
18548TIP3    H177059   4.064   2.542   2.803  0.2021 -0.1148  0.4180
18548TIP3    H277060   4.036   2.486   2.941 -0.6754 -0.3293  0.1548
18549TIP3   OH277061   4.312   2.837   3.979  0.7004  0.8643 -0.5650
18549TIP3    H177062   4.363   2.757   3.988 -2.1258 -1.0973 -0.5009
18549TIP3    H277063   4.329   2.867   3.890  1.0749 -0.3668 -0.9202
18550TIP3   OH277064   6.277   3.354  13.379  0.0606 -0.6811 -0.2298
18550TIP3    H177065   6.206   3.408  13.411  1.2646  1.5259 -1.0778
18550TIP3    H277066   6.248   3.325  13.292  0.4738  0.9245 -0.9419
18551TIP3   OH277067   4.325   0.272   4.325 -0.4835 -0.2474 -0.3066
18551TIP3    H177068   4.320   0.301   4.416  0.5873  0.7080 -0.5257
18551TIP3    H277069   4.257   0.323   4.281 -1.9756 -1.7423  0.1775
18552TIP3   OH277070   2.880   5.834   3.500 -0.2268 -0.1552 -0.3821
18552TIP3    H177071   2.861   5.774   3.572 -0.5756 -0.2126 -0.5167
18552TIP3    H277072   2.900   5.917   3.543 -0.7019 -0.1179 -0.2262
18553TIP3   OH277073   3.890   0.518   6.488  0.2237  0.2193  0.1122
18553TIP3    H177074   3.836   0.474   6.423  0.5465 -0.0057 -0.0054
18553TIP3    H277075   3.979   0.510   6.455  0.3996  0.0354  0.6200
18554TIP3   OH277076   3.989   4.059  12.969 -0.1053 -0.4779 -0.2550
18554TIP3    H177077   4.075   4.084  13.004 -0.7182  2.2549 -0.4653
18554TIP3    H277078   4.005   4.046  12.875 -0.0507  1.0720 -0.4920
18555TIP3   OH277079   5.493   0.103  16.113 -0.4361  0.2608 -0.1140
18555TIP3    H177080   5.437   0.071  16.042  0.3270  1.0643 -1.1224
18555TIP3    H277081   5.471   0.195  16.121  1.5077  0.9129 -1.3716
18556TIP3   OH277082   2.249   4.180  13.133  0.3521  0.0993 -0.0429
18556TIP3    H177083   2.153   4.185  13.132  0.2681 -1.1295 -0.8995
18556TIP3    H277084   2.276   4.240  13.203 -1.1289 -1.0169  1.5632
18557TIP3   OH277085   6.613   6.483   1.024 -0.0934 -0.3251 -0.0169
18557TIP3    H177086   6.665   6.522   1.094  0.8149 -0.5142 -0.5709
18557TIP3    H277087   6.552   6.552   0.998  1.4162  0.7302 -0.9135
18558TIP3   OH277088   3.495   5.998  15.901  0.3587 -0.7587 -0.7349
18558TIP3    H177089   3.472   5.978  15.992 -1.3381 -0.5071 -1.0633
18558TIP3    H277090   3.554   5.927  15.875 -0.3670 -1.7160  0.1068
18559TIP3   OH277091   6.454   2.687  17.205  0.2561 -0.6295  0.4245
18559TIP3    H177092   6.444   2.763  17.148  0.3758  0.2747  1.5736
18559TIP3    H277093   6.490   2.723  17.287  0.0274 -1.8750  1.0926
18560TIP3   OH277094   3.532   6.498   1.165  0.1456 -0.2878  0.1023
18560TIP3    H177095   3.509   6.405   1.156  0.5450 -0.5835  1.7663
18560TIP3    H277096   3.471   6.532   1.230  0.9732  0.2122  0.6441
18561TIP3   OH277097   6.141   4.185  16.489  0.3625  0.3278  0.0035
18561TIP3    H177098   6.063   4.135  16.468  0.3147  0.1525  0.5838
18561TIP3    H277099   6.182   4.137  16.561 -1.3318  2.6806  2.8305
18562TIP3   OH277100   2.528   4.527   0.575  0.2329 -0.1399 -0.0988
18562TIP3    H177101   2.504   4.439   0.545 -0.1860 -0.4545  1.1153
18562TIP3    H277102   2.446   4.566   0.604  0.7422 -0.2367  1.5788
18563TIP3   OH277103   6.647   6.232   1.157 -0.8543 -0.4455  0.3736
18563TIP3    H177104   6.637   6.317   1.115 -1.2240  0.1806  1.6586
18563TIP3    H277105   6.708   6.248   1.229 -1.3436 -1.1307  0.9631
18564TIP3   OH277106   2.903   3.314  15.710  0.4903  0.0873  0.6353
18564TIP3    H177107   2.949   3.238  15.745  0.6245 -0.7395 -1.2282
18564TIP3    H277108   2.879   3.289  15.621 -0.4798  1.8139  0.3642
18565TIP3   OH277109   5.154   0.695  15.269  0.1266 -0.7340 -0.3596
18565TIP3    H177110   5.201   0.629  15.320 -2.1810 -2.2840 -0.0502
18565TIP3    H277111   5.145   0.770  15.327 -0.3960 -1.5799  0.6861
18566TIP3   OH277112   2.578   2.806   4.196 -0.1960 -0.2402 -0.2302
18566TIP3    H177113   2.522   2.760   4.259  0.7181  0.0872  0.8473
18566TIP3    H277114   2.644   2.850   4.250 -1.2270  2.6758 -1.1429
18567TIP3   OH277115   1.712   2.102   1.690 -0.0066  0.2523 -0.4188
18567TIP3    H177116   1.637   2.156   1.665  1.9818  3.7594  0.5106
18567TIP3    H277117   1.735   2.132   1.778  3.5162  0.6854 -1.3401
18568TIP3   OH277118   2.771   4.277   4.619 -0.3042 -0.1803  0.1956
18568TIP3    H177119   2.774   4.191   4.578 -1.2543 -0.1223 -0.0090
18568TIP3    H277120   2.743   4.336   4.548 -1.0490  0.0656  0.6864
18569TIP3   OH277121   3.467   2.953   4.903  0.7319 -0.7836  0.3575
18569TIP3    H177122   3.453   2.978   4.994  0.4266 -2.2169  0.7377
18569TIP3    H277123   3.392   2.990   4.857 -0.4248 -2.0630  1.1253
18570TIP3   OH277124   5.459   0.910   1.695 -0.3159 -0.2464  0.3461
18570TIP3    H177125   5.523   0.868   1.637  0.8264 -0.2739  1.5546
18570TIP3    H277126   5.375   0.898   1.652  0.4487 -0.5256 -1.1359
18571TIP3   OH277127   0.815   4.646  11.757  0.0456 -0.5713  0.1557
18571TIP3    H177128   0.791   4.714  11.819  0.0572 -0.1396 -0.3100
18571TIP3    H277129   0.744   4.645  11.693  0.0492 -0.9889  0.1555
18572TIP3   OH277130   4.935   4.611  11.232 -0.3807 -0.0722 -0.6608
18572TIP3    H177131   4.907   4.619  11.323  0.6918  0.4191 -0.3427
18572TIP3    H277132   4.930   4.701  11.198  1.1134  0.1136 -0.4661
18573TIP3   OH277133   3.205   2.821  17.052  0.1131 -0.6173  0.0853
18573TIP3    H177134   3.234   2.790  17.138  0.8392 -1.3207 -0.4006
18573TIP3    H277135   3.272   2.884  17.026  0.0488 -0.6219 -0.0920
18574TIP3   OH277136   5.215   0.567  11.944 -0.1264  0.0742 -0.4520
18574TIP3    H177137   5.294   0.538  11.989 -0.4687 -1.2105 -0.6424
18574TIP3    H277138   5.143   0.532  11.998 -0.5458 -0.2831 -1.2279
18575TIP3   OH277139   1.907   5.403   3.214  0.0903 -0.5601  0.0593
18575TIP3    H177140   1.841   5.384   3.147  1.3296 -2.4641 -0.7009
18575TIP3    H277141   1.990   5.383   3.173  0.9681 -0.8738  1.8767
18576TIP3   OH277142   4.746   4.334  13.558 -0.3238 -0.0364  1.0065
18576TIP3    H177143   4.741   4.427  13.580  1.8165  0.4094 -0.0994
18576TIP3    H277144   4.839   4.312  13.568 -0.3077 -1.3413 -1.3348
18577TIP3   OH277145   6.708   1.813  11.361 -0.2786 -0.3879  0.5384
18577TIP3    H177146   6.794   1.844  11.334 -0.2327 -0.0552  1.0473
18577TIP3    H277147   6.724   1.728  11.401 -0.2464 -0.5279  0.2294
18578TIP3   OH277148   5.216   2.005  12.809 -0.1373  0.5905  0.0407
18578TIP3    H177149   5.252   1.987  12.722 -1.2853 -0.5642 -0.2349
18578TIP3    H277150   5.184   1.920  12.839 -0.7058  1.1752  1.1453
18579TIP3   OH277151   2.521   1.660   1.508 -0.6259  0.7236 -0.5484
18579TIP3    H177152   2.425   1.664   1.502 -0.6835 -0.2632 -0.4660
18579TIP3    H277153   2.538   1.606   1.586 -0.0358 -0.7167 -1.6212
18580TIP3   OH277154   0.656   4.436  12.122 -0.1151 -0.3853  0.3544
18580TIP3    H177155   0.745   4.439  12.088 -0.4956  0.8167 -0.5745
18580TIP3    H277156   0.612   4.370  12.068 -0.3393  0.5170 -0.5834
18581TIP3   OH277157   1.694   4.000   1.004  0.6317 -0.0122 -0.1609
18581TIP3    H177158   1.652   3.917   0.981 -1.1039  0.6351  0.5312
18581TIP3    H277159   1.675   4.057   0.929 -0.8383  0.6496  0.6852
18582TIP3   OH277160   5.169   2.469  13.803  0.2116  0.0205 -0.2179
18582TIP3    H177161   5.162   2.398  13.739  1.7597 -0.3615 -0.0077
18582TIP3    H277162   5.114   2.441  13.876 -0.6474 -0.0827 -0.8921
18583TIP3   OH277163   0.891   4.385  17.180  0.1038 -0.0598 -0.1526
18583TIP3    H177164   0.916   4.425  17.097 -0.1291 -0.3734 -0.3760
18583TIP3    H277165   0.802   4.416  17.196  0.2736  0.2781  0.1549
18584TIP3   OH277166   0.210   5.414   6.186  0.0873  0.2715  0.2577
18584TIP3    H177167   0.114   5.409   6.186  0.1094 -0.3658  0.8538
18584TIP3    H277168   0.236   5.366   6.265  0.8582  1.2971  0.6574
18585TIP3   OH277169   4.042   5.277  15.606  0.0527  0.1196  0.1134
18585TIP3    H177170   4.002   5.346  15.659  1.2263  0.2259  0.9126
18585TIP3    H277171   3.997   5.282  15.522 -2.1136 -0.2676  1.1829
18586TIP3   OH277172   5.873   0.868  12.367  0.0793  0.1721  0.1026
18586TIP3    H177173   5.948   0.822  12.402 -2.5298 -3.3834  1.5737
18586TIP3    H277174   5.837   0.809  12.301 -3.1584  0.1545  1.7013
18587TIP3   OH277175   4.542   6.735  16.464 -0.0359  0.1379  0.7330
18587TIP3    H177176   4.465   6.703  16.417  1.1453 -1.0434 -0.4503
18587TIP3    H277177   4.594   6.779  16.397  0.9538 -0.2599  1.2264
18588TIP3   OH277178   4.798   0.726   2.150  0.3341 -0.0731  0.1788
18588TIP3    H177179   4.714   0.685   2.172  1.0121 -1.3332  0.5564
18588TIP3    H277180   4.816   0.785   2.223 -0.1790  0.1446  0.1355
18589TIP3   OH277181   1.452   1.996   1.168  0.2085 -0.0671 -0.5312
18589TIP3    H177182   1.492   2.080   1.192 -0.8270  1.0000 -2.3484
18589TIP3    H277183   1.502   1.967   1.092  1.3915 -1.8078  0.8313
18590TIP3   OH277184   3.493   2.725   0.293  0.1254  0.0642 -0.0581
18590TIP3    H177185   3.571   2.778   0.311  0.7587 -0.3173 -1.4763
18590TIP3    H277186   3.481   2.672   0.371  0.9817  0.5092  0.3916
18591TIP3   OH277187   5.439   4.506   2.049 -0.0342  0.9596 -0.2528
18591TIP3    H177188   5.370   4.507   2.116 -1.3121 -1.0889 -1.4316
18591TIP3    H277189   5.392   4.495   1.966  1.6600 -2.3630 -0.9508
18592TIP3   OH277190   2.004   1.043   1.655  0.0528  0.0936 -0.3879
18592TIP3    H177191   2.037   0.976   1.596  1.8826  0.0727  0.5849
18592TIP3    H277192   1.921   1.071   1.617 -0.1281 -1.8148 -1.4899
18593TIP3   OH277193   3.140   2.178  13.287 -0.2842 -0.7131 -0.6626
18593TIP3    H177194   3.231   2.189  13.261 -0.0167  1.5584  0.9507
18593TIP3    H277195   3.115   2.093  13.250  2.1421 -0.9411 -2.0101
18594TIP3   OH277196   4.021   6.692  16.335  0.0764 -0.2308 -0.6088
18594TIP3    H177197   3.930   6.663  16.341  0.0606 -0.0603  0.0611
18594TIP3    H277198   4.033   6.713  16.242 -0.8778  0.7233 -0.5395
18595TIP3   OH277199   3.711   1.673  14.272  0.4545 -0.4268  0.1571
18595TIP3    H177200   3.702   1.617  14.194  1.3009 -0.4310  0.0560
18595TIP3    H277201   3.686   1.760  14.242  0.1560 -0.5472  0.0478
18596TIP3   OH277202   2.448   0.570   3.208 -0.1410  0.4817  0.7432
18596TIP3    H177203   2.453   0.642   3.271  0.3026 -0.3791  1.7224
18596TIP3    H277204   2.529   0.521   3.221 -1.3299 -1.3971  1.6235
18597TIP3   OH277205   0.121   0.902   3.658  0.0011  0.4873  0.0727
18597TIP3    H177206   0.168   0.825   3.689  1.0729  0.7185 -0.8971
18597TIP3    H277207   0.075   0.936   3.735  1.0306 -0.0325  0.9356
18598TIP3   OH277208   4.595   2.597  13.384  0.0249 -0.4010  0.1842
18598TIP3    H177209   4.573   2.666  13.321  0.8126 -0.0882  0.2395
18598TIP3    H277210   4.534   2.610  13.456 -1.5497 -1.3662 -0.9074
18599TIP3   OH277211   2.303   1.753   6.080 -0.3917 -0.0705 -0.0257
18599TIP3    H177212   2.247   1.740   6.004 -0.6810 -2.1838  0.4876
18599TIP3    H277213   2.244   1.746   6.155  0.3334 -1.1200  0.4806
18600TIP3   OH277214   2.617   3.719   0.520  0.6317 -0.0969  0.4321
18600TIP3    H177215   2.700   3.695   0.560  0.4908  2.0757  2.1689
18600TIP3    H277216   2.552   3.705   0.589 -0.3370 -0.7491 -0.5710
18601TIP3   OH277217   5.148   5.973  11.571 -0.1258  0.7768  0.3961
18601TIP3    H177218   5.240   5.960  11.546 -0.4375 -0.7029 -0.0952
18601TIP3    H277219   5.113   6.032  11.505  0.4183  1.2223  0.4916
18602TIP3   OH277220   3.129   3.559  13.321 -0.1556 -0.6742  0.1254
18602TIP3    H177221   3.078   3.533  13.244 -0.1786 -0.0988 -0.0599
18602TIP3    H277222   3.064   3.573  13.389 -0.5568  2.2265 -0.6880
18603TIP3   OH277223   1.637   4.079  12.431 -0.3790 -0.1893 -0.1060
18603TIP3    H177224   1.544   4.096  12.447 -0.8801  0.3978 -2.9376
18603TIP3    H277225   1.681   4.162  12.453 -0.7715  0.0614 -0.2527
18604TIP3   OH277226   6.312   4.107  13.766  0.3069 -0.2615  0.1588
18604TIP3    H177227   6.339   4.168  13.835 -0.0577 -0.9736  0.9423
18604TIP3    H277228   6.222   4.084  13.788  0.0588 -0.2069 -0.7770
18605TIP3   OH277229   4.275   6.080  12.454  0.1160  0.5149 -0.5190
18605TIP3    H177230   4.254   6.052  12.543 -0.6584  1.7255 -0.3022
18605TIP3    H277231   4.304   6.171  12.464  1.9837  0.0484 -1.2660
18606TIP3   OH277232   5.985   3.565   0.380 -0.6333 -0.1980 -0.2605
18606TIP3    H177233   5.973   3.492   0.441 -1.7375  1.2657  1.3695
18606TIP3    H277234   6.007   3.639   0.436  0.9744  0.6567 -1.9149
18607TIP3   OH277235   0.454   5.450   1.092  0.3858  0.2003 -0.1282
18607TIP3    H177236   0.440   5.544   1.089  0.8969  0.2785 -0.1566
18607TIP3    H277237   0.411   5.421   1.172  1.3751  0.6545  0.5744
18608TIP3   OH277238   1.776   4.882   0.054 -0.1386 -0.0121 -0.2928
18608TIP3    H177239   1.739   4.952   0.000  2.5892  1.4358 -0.4567
18608TIP3    H277240   1.870   4.884   0.036  0.4486 -1.7019  2.0165
18609TIP3   OH277241   2.928   3.086   2.606  0.4902 -0.9587 -0.2614
18609TIP3    H177242   3.001   3.105   2.547  1.1438 -0.2812  0.7483
18609TIP3    H277243   2.960   3.108   2.693 -1.6816  1.7799  0.0083
18610TIP3   OH277244   3.820   6.602   5.593  0.1043  0.1339 -0.1088
18610TIP3    H177245   3.873   6.620   5.670  1.2696 -0.4884 -0.7419
18610TIP3    H277246   3.841   6.672   5.532 -0.7687  0.5878  0.0907
18611TIP3   OH277247   3.069   3.547   0.456  0.3951 -0.2859 -0.1375
18611TIP3    H177248   3.090   3.618   0.395  0.0302 -0.1731 -0.1349
18611TIP3    H277249   2.996   3.581   0.508 -0.1148 -0.8602 -0.4745
18612TIP3   OH277250   1.757   3.885  17.214 -0.5513 -0.2297  0.8967
18612TIP3    H177251   1.677   3.841  17.243 -0.6473 -0.3838  0.4038
18612TIP3    H277252   1.828   3.825  17.239 -0.4525  0.5152  2.5839
18613TIP3   OH277253   0.924   0.468   2.839 -0.0706  0.0244 -0.0490
18613TIP3    H177254   0.838   0.463   2.799 -0.1215 -0.3761  0.1026
18613TIP3    H277255   0.909   0.444   2.931  0.3297 -0.9218 -0.2159
18614TIP3   OH277256   6.500   4.908  15.719  0.1145 -0.9365  0.8933
18614TIP3    H177257   6.483   4.850  15.645  0.6109  0.8096 -0.6737
18614TIP3    H277258   6.592   4.892  15.742 -0.1106 -1.6554  1.3131
18615TIP3   OH277259   6.141   6.621  15.772  0.1861 -0.5158  0.3109
18615TIP3    H177260   6.162   6.554  15.837 -1.8676 -0.4547  1.1094
18615TIP3    H277261   6.122   6.572  15.692 -1.5186 -0.9634  0.9483
18616TIP3   OH277262   3.153   1.705  14.963  0.1607 -0.6615 -0.1990
18616TIP3    H177263   3.243   1.730  14.982  0.0365  0.2692 -0.7379
18616TIP3    H277264   3.156   1.676  14.871 -0.3632  0.9838 -0.7755
18617TIP3   OH277265   5.682   6.423  13.575  0.1601 -0.5087 -0.9059
18617TIP3    H177266   5.689   6.452  13.484 -0.4946  1.3836 -0.3960
18617TIP3    H277267   5.768   6.441  13.613 -0.1110  0.3785 -0.7039
18618TIP3   OH277268   5.804   6.563   4.771  0.6495  0.0731 -0.3253
18618TIP3    H177269   5.785   6.532   4.860 -0.3575 -0.0809 -0.5859
18618TIP3    H277270   5.725   6.609   4.744  0.2719 -1.3329 -1.7817
18619TIP3   OH277271   2.204   2.357   3.836  0.7151 -0.3949 -0.2476
18619TIP3    H177272   2.153   2.303   3.896 -0.1757 -0.2339 -0.8332
18619TIP3    H277273   2.289   2.315   3.832  1.3609  0.4643  2.3436
18620TIP3   OH277274   4.667   4.683   2.203 -0.2384 -0.1288  0.4928
18620TIP3    H177275   4.682   4.777   2.191  0.7849 -0.4167 -0.6040
18620TIP3    H277276   4.607   4.679   2.278 -1.7175  1.4704 -0.5237
18621TIP3   OH277277   3.270   5.907   4.862 -0.3168 -0.0496 -0.0312
18621TIP3    H177278   3.259   5.979   4.800  1.3732  0.2053 -0.0870
18621TIP3    H277279   3.301   5.949   4.942  3.4776 -0.8336 -0.8857
18622TIP3   OH277280   2.090   3.013   6.245 -0.3542  0.4137  0.1386
18622TIP3    H177281   2.055   3.023   6.156  0.5989  2.8898 -0.0579
18622TIP3    H277282   2.019   3.045   6.302 -1.2580 -1.8794  0.4055
18623TIP3   OH277283   1.202   0.443  17.197 -0.8897  0.6307  0.0236
18623TIP3    H177284   1.271   0.459  17.133 -1.6696 -0.1487 -1.0477
18623TIP3    H277285   1.156   0.527  17.205  1.4735  1.8548  2.4510
18624TIP3   OH277286   0.803   0.754   0.992  0.0447 -0.1806  0.4892
18624TIP3    H177287   0.720   0.712   1.015 -0.6303  1.2327  0.7756
18624TIP3    H277288   0.852   0.756   1.075  0.9786 -2.2356  0.0428
18625TIP3   OH277289   1.635   4.886   5.697 -0.0749 -0.4852  0.0846
18625TIP3    H177290   1.599   4.946   5.632  1.1663  0.9330  0.6613
18625TIP3    H277291   1.621   4.799   5.659 -2.4849  0.0876 -0.4871
18626TIP3   OH277292   5.166   1.477   1.719 -0.0312  0.1295  0.4625
18626TIP3    H177293   5.214   1.556   1.696 -1.2826  0.4012 -1.5685
18626TIP3    H277294   5.186   1.461   1.811  2.8624  0.8986  0.0596
18627TIP3   OH277295   5.801   2.593   6.033 -0.3693  0.3580 -0.1004
18627TIP3    H177296   5.809   2.528   6.103  0.3450 -1.1721 -1.5296
18627TIP3    H277297   5.864   2.661   6.056  0.3234 -0.4457  0.4292
18628TIP3   OH277298   5.462   5.671   5.395  0.3902  0.0048  0.3893
18628TIP3    H177299   5.444   5.582   5.424  0.2917  0.3025  1.2558
18628TIP3    H277300   5.552   5.688   5.422  0.9538 -0.3743 -1.1643
18629TIP3   OH277301   5.057   5.000   4.167 -0.0892  0.0475  0.2014
18629TIP3    H177302   4.991   5.060   4.133  0.2132 -0.3296 -1.1010
18629TIP3    H277303   5.109   4.976   4.091 -1.5132 -3.5721  0.1638
18630TIP3   OH277304   4.698   5.520   4.480  0.0012  0.8199 -0.1668
18630TIP3    H177305   4.621   5.566   4.446  1.0681  1.8661 -1.2359
18630TIP3    H277306   4.693   5.433   4.440 -0.2881  1.0849 -0.7145
18631TIP3   OH277307   6.453   5.685  14.322  0.2887  0.1333  0.2556
18631TIP3    H177308   6.470   5.665  14.230 -2.0888 -0.6479 -0.0909
18631TIP3    H277309   6.457   5.599  14.366  1.7241  0.5400  0.9608
18632TIP3   OH277310   2.356   3.151   1.743  0.2902 -0.1976  0.1041
18632TIP3    H177311   2.406   3.178   1.821  0.3983  0.9458 -0.3395
18632TIP3    H277312   2.321   3.233   1.707 -1.4667 -0.9129  0.0827
18633TIP3   OH277313   0.002   0.914  13.413 -0.1882  0.4062 -0.3159
18633TIP3    H177314   0.077   0.857  13.430 -1.0166 -0.5153  0.3879
18633TIP3    H277315  -0.074   0.860  13.436 -1.0911  1.1666 -1.4068
18634TIP3   OH277316   3.705   2.406   5.598 -0.5203  0.0853  0.1621
18634TIP3    H177317   3.727   2.473   5.663  1.1560 -1.3160  1.1085
18634TIP3    H277318   3.778   2.408   5.536 -0.5144 -0.7882  0.1367
18635TIP3   OH277319   3.408   3.279  11.665 -0.0684  0.2774  0.0727
18635TIP3    H177320   3.448   3.192  11.664 -0.4063  0.1080  0.8230
18635TIP3    H277321   3.326   3.267  11.616  1.1291  0.8192 -2.2144
18636TIP3   OH277322   2.937   6.634  13.080  0.0768  1.0519 -0.5408
18636TIP3    H177323   2.974   6.651  12.993 -0.9120  0.7096 -1.0347
18636TIP3    H277324   2.912   6.541  13.078  0.4802  0.9153  0.2777
18637TIP3   OH277325   6.216   5.037   5.037  0.2393 -0.2078  0.0222
18637TIP3    H177326   6.135   5.067   4.996  0.5990  2.2619  0.9243
18637TIP3    H277327   6.267   5.117   5.050  2.9919 -1.7058 -0.7909
18638TIP3   OH277328   0.850   4.726   4.642 -0.0141  0.2436  0.2441
18638TIP3    H177329   0.859   4.638   4.679 -0.2830  0.8412  1.8141
18638TIP3    H277330   0.838   4.783   4.718 -0.8071  1.5246 -0.7957
18639TIP3   OH277331   4.533   4.489  16.549 -0.6406 -0.2608  0.5972
18639TIP3    H177332   4.534   4.563  16.488 -1.5001 -0.0121  0.8856
18639TIP3    H277333   4.610   4.437  16.524 -0.6938  0.1085 -0.3662
18640TIP3   OH277334   3.421   2.545   2.639  0.0537 -0.4759 -0.0878
18640TIP3    H177335   3.397   2.638   2.631  1.3074 -0.2748 -3.0168
18640TIP3    H277336   3.500   2.545   2.693 -0.2917  0.0772  0.4347
18641TIP3   OH277337   1.812   0.998  11.911 -0.5002  0.9030 -0.7179
18641TIP3    H177338   1.824   0.927  11.849 -1.9009  0.7930 -0.9081
18641TIP3    H277339   1.829   1.078  11.861  0.1510  0.7448 -0.7523
18642TIP3   OH277340   6.370   5.712  10.764  0.1570 -0.0129  0.1702
18642TIP3    H177341   6.334   5.655  10.697  0.5529 -1.1073  0.8632
18642TIP3    H277342   6.459   5.731  10.735 -0.0174  0.3693 -0.1240
18643TIP3   OH277343   6.632   1.058  17.191 -0.1126  0.6523 -0.2445
18643TIP3    H177344   6.576   0.982  17.207 -1.1740  1.8250  2.1165
18643TIP3    H277345   6.715   1.035  17.232 -0.1506  0.4237 -0.2949
18644TIP3   OH277346   5.986   4.602   5.374 -0.2038  0.0861  0.3556
18644TIP3    H177347   5.978   4.582   5.467 -1.3988 -0.6997  0.1019
18644TIP3    H277348   6.008   4.518   5.333  0.9819  0.5511 -0.0161
18645TIP3   OH277349   2.598   4.730   5.812 -0.0773  0.1113  0.3373
18645TIP3    H177350   2.525   4.768   5.861  1.3343  2.1206  1.0133
18645TIP3    H277351   2.582   4.755   5.721 -0.6726 -0.1885  0.3622
18646TIP3   OH277352   4.987   1.718  11.248 -0.0347  0.4326 -0.1560
18646TIP3    H177353   5.050   1.652  11.220  0.4998  0.8572  0.0202
18646TIP3    H277354   4.988   1.783  11.178 -0.1254  0.5445 -0.0538
18647TIP3   OH277355   6.590   1.250   4.411  0.0468 -0.2039  0.6583
18647TIP3    H177356   6.528   1.247   4.484 -1.7216 -0.5549 -0.7894
18647TIP3    H277357   6.621   1.341   4.409 -1.5373  0.3530  0.5267
18648TIP3   OH277358   6.384   0.968  10.193 -0.4346 -0.4252 -0.6084
18648TIP3    H177359   6.433   1.042  10.230  0.0043 -1.9248  2.0812
18648TIP3    H277360   6.298   0.973  10.234  0.2197 -2.4141  1.1649
18649TIP3   OH277361   0.586   0.294  12.226  0.0680  0.0404 -0.1958
18649TIP3    H177362   0.635   0.252  12.156  3.1223  1.0514  1.1720
18649TIP3    H277363   0.522   0.349  12.180  0.5666 -0.8833 -2.1004
18650TIP3   OH277364   0.737   4.663  13.638  0.4666  0.0768 -0.3575
18650TIP3    H177365   0.683   4.585  13.642  0.8858 -0.4101 -2.6296
18650TIP3    H277366   0.687   4.730  13.685 -1.8279 -0.5172 -1.7885
18651TIP3   OH277367   3.466   6.756  12.286 -0.1917 -0.4610  0.4561
18651TIP3    H177368   3.515   6.751  12.204  0.3896  0.6408  0.7135
18651TIP3    H277369   3.519   6.707  12.349 -0.2322 -0.6360  0.3525
18652TIP3   OH277370   1.394   5.502  16.056 -0.1808  0.1653 -0.0555
18652TIP3    H177371   1.355   5.528  16.139  1.1537 -0.8034  0.9046
18652TIP3    H277372   1.421   5.584  16.016 -1.4800  0.7036  0.1007
18653TIP3   OH277373   5.923   2.293   0.574 -0.2172  0.4054 -0.4047
18653TIP3    H177374   5.881   2.355   0.514  1.2103  0.9751 -0.8647
18653TIP3    H277375   5.897   2.323   0.662 -0.9683  0.5792 -0.6827
18654TIP3   OH277376   0.267   2.613   4.953 -0.8637 -0.4894 -0.0616
18654TIP3    H177377   0.249   2.524   4.985  0.6468  0.2043  3.1454
18654TIP3    H277378   0.362   2.621   4.957 -1.0470  1.8079  1.4801
18655TIP3   OH277379   4.058   3.733   3.274  0.2597 -0.2091 -0.0049
18655TIP3    H177380   3.989   3.694   3.221  0.3623 -0.3686 -0.0197
18655TIP3    H277381   4.015   3.806   3.319  0.0693 -0.3437  0.0302
18656TIP3   OH277382   3.131   0.054  13.891  0.1767  0.0486 -0.2255
18656TIP3    H177383   3.136   0.148  13.872 -2.2271  0.3638  0.3858
18656TIP3    H277384   3.189   0.042  13.967 -1.2401  1.5319  1.1726
18657TIP3   OH277385   5.184   2.822  15.179 -0.0119 -0.9393 -0.4120
18657TIP3    H177386   5.238   2.891  15.218 -0.9366 -0.6450  0.4207
18657TIP3    H277387   5.100   2.865  15.162 -0.5854 -1.8435  0.0707
18658TIP3   OH277388   4.226   1.697  13.287  0.9208  0.4119 -0.2222
18658TIP3    H177389   4.257   1.608  13.302  0.8952  0.7312  2.0055
18658TIP3    H277390   4.138   1.699  13.324  0.4451  1.0638 -1.3284
18659TIP3   OH277391   4.299   3.986  16.884  0.1554  0.5391  0.0506
18659TIP3    H177392   4.311   3.967  16.977 -1.4768 -0.9068  0.0261
18659TIP3    H277393   4.387   3.980  16.847  0.7920  0.8305  1.4288
18660TIP3   OH277394   3.523   0.907   2.878  0.6339 -0.3142 -0.6054
18660TIP3    H177395   3.570   0.849   2.938  0.6279 -0.9054 -1.1666
18660TIP3    H277396   3.584   0.921   2.805  0.5914  0.2953 -0.5271
18661TIP3   OH277397   5.700   4.919  12.648  0.0139  0.5660 -0.1206
18661TIP3    H177398   5.788   4.927  12.684  0.5001 -2.8598 -0.2536
18661TIP3    H277399   5.642   4.919  12.725  0.6421 -2.0543  0.4419
18662TIP3   OH277400   2.556   1.371  14.349 -0.2201 -0.4136  0.1721
18662TIP3    H177401   2.546   1.307  14.421 -1.6911 -1.3433 -0.7938
18662TIP3    H277402   2.595   1.320  14.278  1.4831  0.5716  0.3752
18663TIP3   OH277403   2.776   2.777  11.134 -0.4332 -0.1471  0.9117
18663TIP3    H177404   2.796   2.820  11.050 -0.8246  0.3098  1.0427
18663TIP3    H277405   2.789   2.684  11.117  1.2803  0.0659  0.8511
18664TIP3   OH277406   3.617   4.595   6.001  0.3813  0.1078 -0.1251
18664TIP3    H177407   3.681   4.526   6.020 -1.7186 -1.5940  1.3412
18664TIP3    H277408   3.611   4.645   6.083 -2.1549 -1.5839  0.8399
18665TIP3   OH277409   2.319   0.636   6.352  0.1356  0.2382  0.4919
18665TIP3    H177410   2.320   0.546   6.385 -0.6300  0.2076  0.4453
18665TIP3    H277411   2.232   0.669   6.375  0.2931  0.8616  0.2162
18666TIP3   OH277412   6.146   5.281   2.319 -0.0619 -0.1643 -0.1986
18666TIP3    H177413   6.111   5.366   2.294  1.6573  0.5088 -0.4522
18666TIP3    H277414   6.103   5.261   2.403  0.8964  1.8670  0.8451
18667TIP3   OH277415   5.251   4.327   1.320 -0.3400  0.2150  0.2501
18667TIP3    H177416   5.340   4.345   1.350 -0.8236  3.5801 -0.0035
18667TIP3    H277417   5.241   4.232   1.330  2.3734  0.0628  2.6446
18668TIP3   OH277418   5.981   3.569  16.828 -0.0012 -0.2668 -0.2960
18668TIP3    H177419   5.916   3.638  16.815  0.5951  0.3837  0.0896
18668TIP3    H277420   6.015   3.550  16.740 -1.6460 -1.5797 -0.6989
18669TIP3   OH277421   3.218   5.640  13.834 -0.1190  0.7530 -0.8357
18669TIP3    H177422   3.146   5.701  13.849 -1.3286 -0.8045  0.1403
18669TIP3    H277423   3.175   5.560  13.802  1.1589 -0.2157 -0.2360
18670TIP3   OH277424   2.083   6.252   4.837 -0.0175 -0.0447 -0.5015
18670TIP3    H177425   2.160   6.216   4.881 -0.8335 -0.4692  0.6435
18670TIP3    H277426   2.073   6.200   4.758 -0.5912 -1.7123  0.6147
18671TIP3   OH277427   5.014   0.560   3.492 -0.1265 -0.2193 -0.2654
18671TIP3    H177428   4.927   0.553   3.453 -0.2690 -0.2292  0.0573
18671TIP3    H277429   4.998   0.575   3.585  0.1899  0.9512 -0.3752
18672TIP3   OH277430   5.133   5.086   5.161 -0.4236  0.0063  0.2103
18672TIP3    H177431   5.215   5.070   5.115 -0.7259  1.7920 -1.0388
18672TIP3    H277432   5.138   5.177   5.189 -1.1100 -0.4615  2.0044
18673TIP3   OH277433   5.909   0.133  14.145  0.0250 -0.0730 -0.7193
18673TIP3    H177434   5.930   0.042  14.124  0.6823 -0.2678  0.6615
18673TIP3    H277435   5.994   0.177  14.150 -0.1186  0.1007  0.7744
18674TIP3   OH277436   4.853   0.574   2.875  0.6593  0.7361 -0.8638
18674TIP3    H177437   4.938   0.531   2.869  0.4418  0.3124 -0.9531
18674TIP3    H277438   4.797   0.509   2.918  0.2149  0.7591 -1.4074
18675TIP3   OH277439   4.991   0.930  11.888 -0.0289 -0.2135  0.2527
18675TIP3    H177440   5.028   1.015  11.912 -1.4144  0.7365 -0.7665
18675TIP3    H277441   4.984   0.933  11.792  0.8149 -1.8927  0.1128
18676TIP3   OH277442   2.780   5.672  14.123 -0.2315 -0.2292 -0.3867
18676TIP3    H177443   2.801   5.739  14.058  1.2898 -2.3953 -2.2593
18676TIP3    H277444   2.858   5.669  14.179 -0.2932 -0.4604 -0.3158
18677TIP3   OH277445   1.110   3.844  14.080  0.0035  0.3965  0.4625
18677TIP3    H177446   1.162   3.855  14.159 -0.6034 -0.8472  1.0620
18677TIP3    H277447   1.019   3.857  14.109 -0.5076 -2.8164  0.6382
18678TIP3   OH277448   6.285   3.098  14.372 -0.5115  0.6565 -0.1586
18678TIP3    H177449   6.297   3.134  14.284 -0.4367 -0.4310 -0.6170
18678TIP3    H277450   6.204   3.136  14.404 -1.7488 -0.6606 -1.6149
18679TIP3   OH277451   1.034   0.652   0.069 -0.3082 -0.6570  0.1406
18679TIP3    H177452   0.983   0.727   0.037 -0.3700 -1.3018 -1.3588
18679TIP3    H277453   0.968   0.589   0.098 -0.2634 -0.2974  1.0641
18680TIP3   OH277454   5.600   0.178   3.958 -0.5598 -0.1464  0.1202
18680TIP3    H177455   5.557   0.092   3.959 -1.4302  0.2814  0.5563
18680TIP3    H277456   5.596   0.206   3.867 -1.2410 -0.0932  0.1666
18681TIP3   OH277457   6.158   5.685  14.605 -0.0561  0.0281 -0.5012
18681TIP3    H177458   6.068   5.708  14.626  0.9176  3.2026  0.7359
18681TIP3    H277459   6.187   5.629  14.677 -0.0416  1.9032  1.0128
18682TIP3   OH277460   2.685   2.116   2.778  0.3837 -0.1600  0.8346
18682TIP3    H177461   2.643   2.030   2.780 -2.5001  1.0477 -0.9013
18682TIP3    H277462   2.626   2.172   2.829 -0.1648  1.5817 -1.5081
18683TIP3   OH277463   0.304   3.535  16.726 -0.4123 -0.2972  0.0558
18683TIP3    H177464   0.335   3.621  16.699 -3.2109  1.0945  0.9137
18683TIP3    H277465   0.362   3.509  16.797  0.7419  0.6537 -0.5120
18684TIP3   OH277466   0.856   1.860   0.593  0.2759  0.1562 -0.5462
18684TIP3    H177467   0.941   1.823   0.571 -0.1701 -1.9592  0.9788
18684TIP3    H277468   0.860   1.874   0.688 -0.9630  0.3286 -0.4998
18685TIP3   OH277469   1.927   6.374  13.863  0.5736 -0.1600 -0.1974
18685TIP3    H177470   1.839   6.412  13.860 -0.1374 -1.7837 -1.9734
18685TIP3    H277471   1.912   6.281  13.879  2.1225 -0.1776  1.5018
18686TIP3   OH277472   5.964   0.483   4.114 -0.6645  0.3174  0.0896
18686TIP3    H177473   5.974   0.482   4.209  1.4824  0.3152 -0.0938
18686TIP3    H277474   5.944   0.392   4.091 -0.4108  0.1672  0.4565
18687TIP3   OH277475   2.956   1.138   1.483  0.1031 -0.1828 -0.4430
18687TIP3    H177476   2.895   1.168   1.416  1.7012 -0.0900 -1.9382
18687TIP3    H277477   2.949   1.043   1.482 -0.3202 -0.1559 -0.2884
18688TIP3   OH277478   0.067   5.708  13.692  0.4119 -0.1201 -0.4176
18688TIP3    H177479   0.043   5.653  13.618 -1.5008  1.0091 -0.6883
18688TIP3    H277480  -0.016   5.734  13.732  1.3574  0.2925  1.3928
18689TIP3   OH277481   1.076   6.139  12.316 -0.0250 -0.6339 -0.0159
18689TIP3    H177482   1.011   6.138  12.247  0.0237 -2.7358 -0.0949
18689TIP3    H277483   1.125   6.058  12.304  0.7428 -0.4847  1.7810
18690TIP3   OH277484   6.461   2.564   6.191 -0.5600  0.7282  0.6845
18690TIP3    H177485   6.372   2.588   6.216 -0.6494  1.5492 -0.3297
18690TIP3    H277486   6.503   2.540   6.273 -1.3103  1.7187  1.3928
18691TIP3   OH277487   3.068   4.260   3.033  0.2373  0.0011  0.1703
18691TIP3    H177488   3.128   4.204   2.984  0.1984  0.4538 -0.4038
18691TIP3    H277489   3.118   4.339   3.053 -0.5147  0.9003 -1.3726
18692TIP3   OH277490   5.833   1.863  12.950 -0.1806  0.0781 -0.7703
18692TIP3    H177491   5.773   1.924  12.991  0.9573 -0.7139  2.3827
18692TIP3    H277492   5.796   1.777  12.969  0.7878 -0.3364 -0.7073
18693TIP3   OH277493   2.665   4.812  13.502  0.2038 -0.4851  0.4476
18693TIP3    H177494   2.749   4.768  13.486  0.5929  0.6473 -0.8475
18693TIP3    H277495   2.602   4.762  13.451  0.4166 -0.3177  0.0129
18694TIP3   OH277496   0.283   4.444   2.491  0.0041  0.0904  0.1561
18694TIP3    H177497   0.281   4.537   2.471 -3.6019  0.4536  1.4280
18694TIP3    H277498   0.359   4.433   2.549  0.8504  2.0878 -0.4953
18695TIP3   OH277499   4.458   3.524   1.302 -0.6574  0.3496 -0.0015
18695TIP3    H177500   4.382   3.582   1.308 -1.0039  0.0595 -1.2442
18695TIP3    H277501   4.493   3.520   1.391 -0.1483  3.0947  0.0189
18696TIP3   OH277502   6.276   6.366  16.210  0.3844  1.3001 -0.5457
18696TIP3    H177503   6.253   6.458  16.223  0.4955  1.3199 -0.4948
18696TIP3    H277504   6.346   6.367  16.145  0.1507  1.2295 -0.8029
18697TIP3   OH277505   6.787   4.788   6.483 -0.3300  0.2230 -0.2904
18697TIP3    H177506   6.780   4.693   6.477 -1.7249  0.3010 -0.2532
18697TIP3    H277507   6.735   4.812   6.559 -0.3632  1.0576 -0.5557
18698TIP3   OH277508   0.757   3.340  15.256  0.2422  0.1067  0.0028
18698TIP3    H177509   0.822   3.347  15.186  0.6707  0.0893  0.3906
18698TIP3    H277510   0.688   3.401  15.232  0.1348 -0.2839 -0.7011
18699TIP3   OH277511   4.239   3.715   1.038 -0.0232 -0.1404  0.4402
18699TIP3    H177512   4.190   3.705   1.119  1.2800 -1.5132  1.0981
18699TIP3    H277513   4.275   3.628   1.021  0.9729  0.4850 -0.8028
18700TIP3   OH277514   1.081   6.772   0.335  0.5255  0.2224 -0.4941
18700TIP3    H177515   1.074   6.763   0.430  0.5815  0.5542 -0.4586
18700TIP3    H277516   1.005   6.824   0.311  0.7267  0.4726 -0.5853
18701TIP3   OH277517   1.697   4.988   3.528 -0.2847 -0.4586 -0.1272
18701TIP3    H177518   1.686   5.073   3.486  1.1925  0.2610  0.8177
18701TIP3    H277519   1.609   4.963   3.556 -0.8593  0.3761 -1.1121
18702TIP3   OH277520   2.740   3.181  11.117 -0.1967 -0.0634  0.1131
18702TIP3    H177521   2.828   3.194  11.082 -1.0014 -0.6616 -2.3444
18702TIP3    H277522   2.753   3.141  11.203  1.9049  0.0550 -0.1132
18703TIP3   OH277523   3.308   6.546  16.539 -0.3989  0.2341 -0.6476
18703TIP3    H177524   3.217   6.517  16.534 -0.3679  0.2032 -1.0635
18703TIP3    H277525   3.346   6.521  16.455 -0.1782  0.8143 -0.7299
18704TIP3   OH277526   3.527   3.926   1.970 -0.1145  0.4803  0.1320
18704TIP3    H177527   3.488   4.005   1.933  1.5030  1.6153  0.7159
18704TIP3    H277528   3.588   3.959   2.037 -0.9862 -1.3760  1.9150
18705TIP3   OH277529   0.510   0.616  16.709  0.2516 -0.2810 -0.1912
18705TIP3    H177530   0.572   0.587  16.642  0.5074  0.5531 -0.3274
18705TIP3    H277531   0.436   0.651  16.659 -0.8827 -2.3032 -0.0525
18706TIP3   OH277532   0.222   5.578  11.447  0.6073  0.0915 -0.2127
18706TIP3    H177533   0.200   5.589  11.354  1.5589  0.7917 -0.3707
18706TIP3    H277534   0.290   5.643  11.463  0.9119 -0.4634  0.8181
18707TIP3   OH277535   0.301   1.719  14.567  0.2534 -0.2455  0.7019
18707TIP3    H177536   0.249   1.684  14.639  0.5124 -0.7806  0.6360
18707TIP3    H277537   0.369   1.772  14.608 -1.0286  1.4420  0.7477
18708TIP3   OH277538   5.743   4.865   0.694  0.1863 -0.9273  0.4553
18708TIP3    H177539   5.778   4.861   0.605  0.2372 -1.4614  0.4998
18708TIP3    H277540   5.820   4.878   0.750 -0.0489  2.3920  0.2278
18709TIP3   OH277541   4.440   4.992  12.041  0.2629 -0.7887  0.2301
18709TIP3    H177542   4.438   5.011  11.947 -0.4439 -1.4973  0.0826
18709TIP3    H277543   4.532   4.980  12.061  0.5467  0.6401 -0.0908
18710TIP3   OH277544   5.741   1.867  14.246 -0.6987 -0.4959 -0.4748
18710TIP3    H177545   5.673   1.929  14.273 -1.4988 -1.1109 -1.0331
18710TIP3    H277546   5.772   1.829  14.328 -1.4920 -0.6816 -0.2524
18711TIP3   OH277547   1.464   5.185   5.226 -0.7878  0.1931  0.0316
18711TIP3    H177548   1.433   5.260   5.277 -1.8944 -0.8391  0.9707
18711TIP3    H277549   1.529   5.221   5.166 -1.3529  1.8997  0.3890
18712TIP3   OH277550   6.005   3.739  11.651  0.9113  0.2574  0.1956
18712TIP3    H177551   6.064   3.714  11.580  0.5233  0.6168 -0.2625
18712TIP3    H277552   6.046   3.816  11.689  0.9852  0.2230  0.1863
18713TIP3   OH277553   1.047   6.143   0.514  0.2039 -0.3289  0.2360
18713TIP3    H177554   0.958   6.119   0.542  0.5350 -2.3743 -0.3003
18713TIP3    H277555   1.090   6.170   0.595 -0.7960  0.3425  0.5639
18714TIP3   OH277556   5.398   4.865   0.379 -0.4636 -1.1243  0.2510
18714TIP3    H177557   5.469   4.928   0.379 -1.0659 -0.4130  1.4761
18714TIP3    H277558   5.405   4.820   0.294  0.1774  0.3537 -0.5073
18715TIP3   OH277559   0.354   6.686   5.484  0.0970 -0.3867 -1.2465
18715TIP3    H177560   0.328   6.689   5.576 -0.1872  1.7815 -1.3385
18715TIP3    H277561   0.299   6.619   5.445 -0.7500 -0.3806 -0.1064
18716TIP3   OH277562   4.039   5.928   2.395 -0.1473 -0.2921  0.0406
18716TIP3    H177563   4.121   5.967   2.428 -1.0193  0.6661  1.1855
18716TIP3    H277564   3.971   5.968   2.449 -1.4179 -0.7876 -1.1479
18717TIP3   OH277565   4.251   0.203   1.300 -0.3577 -0.1991 -0.4655
18717TIP3    H177566   4.181   0.189   1.236 -2.3167  0.1633  1.4653
18717TIP3    H277567   4.210   0.184   1.385  2.1947 -0.9199  0.6901
18718TIP3   OH277568   0.519   4.755   1.314 -1.2156  0.5621  0.0257
18718TIP3    H177569   0.579   4.707   1.258 -1.4201  0.1987  0.1129
18718TIP3    H277570   0.559   4.841   1.325 -0.9239  0.4629 -0.2588
18719TIP3   OH277571   3.431   0.940   1.646  0.2343  0.1586 -0.1349
18719TIP3    H177572   3.428   0.965   1.739  0.2191  0.1600 -0.1359
18719TIP3    H277573   3.343   0.910   1.626  0.3771 -0.3587 -0.0049
18720TIP3   OH277574   6.250   3.478  15.494 -0.2616  0.0001  0.0846
18720TIP3    H177575   6.198   3.444  15.421 -0.6397  1.5548 -0.4271
18720TIP3    H277576   6.337   3.492  15.457 -0.3761  0.5126 -0.0033
18721TIP3   OH277577   2.751   6.058  14.926  0.5729  0.2581  0.8204
18721TIP3    H177578   2.842   6.039  14.906  0.2203 -1.9856  1.1496
18721TIP3    H277579   2.754   6.113  15.004  1.6819  2.8855 -0.9066
18722TIP3   OH277580   0.885   2.040   2.947  0.4782  0.2286  0.3861
18722TIP3    H177581   0.874   1.945   2.939  0.2050  0.3679 -1.1084
18722TIP3    H277582   0.975   2.056   2.918  0.1669  0.5382 -0.4204
18723TIP3   OH277583   1.372   0.342  15.177  0.3418  0.4124 -0.1010
18723TIP3    H177584   1.446   0.355  15.236  0.9665  0.8390 -0.9516
18723TIP3    H277585   1.352   0.430  15.145 -0.1338  0.2164 -0.3503
18724TIP3   OH277586   2.984   2.371   4.624  0.0713  0.3458  0.9774
18724TIP3    H177587   2.891   2.358   4.604  0.4207 -1.2700  0.2744
18724TIP3    H277588   3.026   2.290   4.596  1.4898  0.4256  2.7195
18725TIP3   OH277589   0.278   5.118   0.000 -0.7916  0.4808 -0.7012
18725TIP3    H177590   0.347   5.065   0.039 -0.6906  1.4201  0.4298
18725TIP3    H277591   0.266   5.080  -0.087 -0.8124 -1.4925  0.0938
18726TIP3   OH277592   6.421   1.572  13.586  0.2384 -0.6042  0.4317
18726TIP3    H177593   6.347   1.564  13.646 -0.3771  0.2364 -0.1921
18726TIP3    H277594   6.400   1.514  13.513  0.4122 -0.6993  0.4554
18727TIP3   OH277595   2.151   5.701   5.193  0.1336 -0.0012  0.5477
18727TIP3    H177596   2.167   5.609   5.214  0.1543 -0.4244 -1.1309
18727TIP3    H277597   2.056   5.713   5.206 -0.2504 -0.8560 -1.1586
18728TIP3   OH277598   3.111   2.249  12.320 -0.4976 -0.5625 -0.6080
18728TIP3    H177599   3.187   2.284  12.273 -1.5174 -0.5492 -2.3201
18728TIP3    H277600   3.148   2.182  12.378  1.1907  1.5399  0.9450
18729TIP3   OH277601   6.607   2.421  10.220  0.0759  0.3309 -0.1810
18729TIP3    H177602   6.646   2.508  10.213  0.4275  0.2287  0.4199
18729TIP3    H277603   6.513   2.436  10.217  0.0375  1.0110  2.4724
18730TIP3   OH277604   5.303   3.591  10.593  0.3567  0.6010 -0.0065
18730TIP3    H177605   5.379   3.542  10.624 -0.7186 -0.6506  0.7321
18730TIP3    H277606   5.325   3.683  10.611  2.0412  0.3556 -0.6135
18731TIP3   OH277607   5.685   4.849   2.480  0.3140 -0.3114  0.0987
18731TIP3    H177608   5.614   4.906   2.450  1.6191  0.8778 -0.8478
18731TIP3    H277609   5.667   4.835   2.573 -0.1202  1.5426  0.3313
18732TIP3   OH277610   3.402   4.058  11.228 -0.4977 -0.3567 -0.5298
18732TIP3    H177611   3.411   4.108  11.147 -0.5614  0.9223  0.2272
18732TIP3    H277612   3.485   4.070  11.273  0.1468 -2.3780 -1.0923
18733TIP3   OH277613   3.029   4.661   5.229  0.4320  0.7290  0.4791
18733TIP3    H177614   2.982   4.723   5.174  1.1909  1.2385  0.3896
18733TIP3    H277615   2.961   4.607   5.269 -0.1154 -0.5567 -2.0012
18734TIP3   OH277616   5.428   1.793  15.707 -0.4412  0.1224  0.3274
18734TIP3    H177617   5.461   1.880  15.686 -1.2467  0.3530 -0.0341
18734TIP3    H277618   5.426   1.790  15.803 -0.9503  0.7165  0.3377
18735TIP3   OH277619   5.382   3.575  13.754  0.3863  0.4315  0.0716
18735TIP3    H177620   5.414   3.654  13.711  1.5581  0.9226  1.7424
18735TIP3    H277621   5.430   3.503  13.713  0.4667  0.7356 -0.3727
18736TIP3   OH277622   3.166   5.130   2.973 -0.3364  0.4471  0.2386
18736TIP3    H177623   3.158   5.122   2.878  0.7091  1.2736  0.0564
18736TIP3    H277624   3.079   5.156   3.003 -0.7245 -0.0176 -0.4569
18737TIP3   OH277625   1.468   0.159  12.998 -0.0637  0.1349  0.1548
18737TIP3    H177626   1.536   0.130  12.938 -1.3738 -1.9698 -0.4320
18737TIP3    H277627   1.485   0.252  13.011  2.1830 -0.0679 -0.8902
18738TIP3   OH277628   0.917   5.206  17.057 -0.1345 -0.3668  0.5875
18738TIP3    H177629   0.892   5.252  17.137  3.1698 -0.2609  1.7147
18738TIP3    H277630   0.910   5.273  16.989  1.2708  0.8967  1.6097
18739TIP3   OH277631   6.405   2.779  12.369  0.8757 -0.2103  0.7019
18739TIP3    H177632   6.423   2.795  12.461 -1.5453 -1.5185  1.4813
18739TIP3    H277633   6.321   2.823  12.353  1.0666 -0.3353 -0.7819
18740TIP3   OH277634   4.838   1.996   0.414 -0.0788 -0.1304  0.0925
18740TIP3    H177635   4.765   1.955   0.368  0.4626 -1.1662  0.1386
18740TIP3    H277636   4.843   1.950   0.498  1.3623 -0.8867 -0.3854
18741TIP3   OH277637   5.578   5.524   0.246  0.5245 -0.3168 -0.3339
18741TIP3    H177638   5.625   5.442   0.229 -0.9063 -0.7314 -2.8327
18741TIP3    H277639   5.492   5.510   0.205 -0.1317  2.0379  0.1419
18742TIP3   OH277640   2.096   4.968  12.024 -0.0669  0.6559 -0.2042
18742TIP3    H177641   2.104   5.014  11.941  0.3178  1.1280  0.0922
18742TIP3    H277642   2.183   4.932  12.040 -0.6011 -1.0902 -0.9468
18743TIP3   OH277643   6.751   2.258   2.853 -0.2904 -0.2600 -0.2171
18743TIP3    H177644   6.738   2.296   2.940 -0.5267  3.0400 -1.5442
18743TIP3    H277645   6.844   2.271   2.835 -0.3700 -0.3381 -0.6857
18744TIP3   OH277646   3.043   6.161   1.815  0.5452 -0.3441  0.6991
18744TIP3    H177647   3.114   6.219   1.787  1.0659 -0.9549  0.7602
18744TIP3    H277648   3.060   6.079   1.770 -1.7645  0.3505 -1.6994
18745TIP3   OH277649   6.079   5.451   4.446  0.4314 -0.0026 -0.0726
18745TIP3    H177650   5.993   5.471   4.483  0.9201 -1.1955  1.8200
18745TIP3    H277651   6.119   5.391   4.509  1.5374 -1.7447 -2.2888
18746TIP3   OH277652   2.778   5.069   5.762 -0.5326  0.0459 -0.6459
18746TIP3    H177653   2.795   4.981   5.797  1.8851 -0.3900 -2.6244
18746TIP3    H277654   2.830   5.127   5.819 -1.8951  0.2121  0.4776
18747TIP3   OH277655   3.624   0.596   5.983  0.4456 -0.0966  0.7043
18747TIP3    H177656   3.556   0.624   6.044 -1.3027 -1.6715 -0.4067
18747TIP3    H277657   3.693   0.560   6.038  0.7694  2.1664  1.8967
18748TIP3   OH277658   4.632   6.244  13.203 -0.3033 -0.0256  0.1044
18748TIP3    H177659   4.704   6.294  13.241  1.6025 -1.5884 -1.2518
18748TIP3    H277660   4.614   6.175  13.266  0.1583 -0.2884 -0.0480
18749TIP3   OH277661   4.631   4.791   4.770  0.3836 -0.1583 -0.5149
18749TIP3    H177662   4.698   4.801   4.702  0.8761  0.0307 -0.0151
18749TIP3    H277663   4.670   4.832   4.848 -0.8068  1.0536 -0.5232
18750TIP3   OH277664   5.366   3.350  13.969  0.0080 -0.0542  0.0514
18750TIP3    H177665   5.323   3.344  13.883  2.3310  2.8031 -1.5323
18750TIP3    H277666   5.440   3.291  13.963 -0.9223 -1.3518  0.9231
18751TIP3   OH277667   2.595   0.736   6.464 -0.1271 -0.1061  0.1525
18751TIP3    H177668   2.679   0.769   6.496 -1.0157  2.4367  0.0794
18751TIP3    H277669   2.547   0.711   6.543  0.2238 -0.4102  0.2733
18752TIP3   OH277670   1.753   1.912   0.669  0.2805 -0.3703  0.3499
18752TIP3    H177671   1.733   1.975   0.599  0.5421 -1.4695 -0.7392
18752TIP3    H277672   1.716   1.830   0.638  1.5779 -1.1794  0.8838
18753TIP3   OH277673   5.495   5.717   2.784 -0.2257  0.2471  0.3354
18753TIP3    H177674   5.528   5.782   2.846 -0.7034  0.0521  0.7999
18753TIP3    H277675   5.569   5.699   2.726  0.0956  0.7451  0.5889
18754TIP3   OH277676   2.237   5.152  14.508 -0.5209 -0.4070  0.1038
18754TIP3    H177677   2.268   5.234  14.548 -0.7158  0.5983 -1.7230
18754TIP3    H277678   2.155   5.176  14.465  0.1748 -1.1974 -1.7289
18755TIP3   OH277679   3.325   4.571   4.461 -0.0438 -0.8709 -0.3165
18755TIP3    H177680   3.241   4.592   4.502  0.6442 -2.0822  1.9212
18755TIP3    H277681   3.376   4.652   4.468  0.2672 -1.1882  1.9574
18756TIP3   OH277682   0.335   4.664   3.675  0.0359 -0.0971  0.0726
18756TIP3    H177683   0.391   4.661   3.753  0.2712 -0.5094 -0.1030
18756TIP3    H277684   0.397   4.674   3.602 -0.3000  2.3922  0.0641
18757TIP3   OH277685   2.835   6.134   5.701  0.1570 -0.0207  1.0497
18757TIP3    H177686   2.819   6.193   5.774  0.8607  1.5243  0.0011
18757TIP3    H277687   2.764   6.152   5.639  0.9805  0.5465  0.2422
18758TIP3   OH277688   1.580   1.853  16.192 -0.3487  0.2323  0.3538
18758TIP3    H177689   1.665   1.811  16.199 -0.4465  0.2911  2.3828
18758TIP3    H277690   1.518   1.781  16.179  0.0050  0.2143 -1.4498
18759TIP3   OH277691   6.472   0.372   0.903 -0.4790 -0.4363  0.2172
18759TIP3    H177692   6.526   0.349   0.827  1.3644 -0.6173  1.4924
18759TIP3    H277693   6.488   0.465   0.916 -0.4433 -0.4949  0.6135
18760TIP3   OH277694   2.358   6.166  13.812 -0.6798 -0.9304  0.1444
18760TIP3    H177695   2.442   6.189  13.851 -0.4080  0.8819 -1.3693
18760TIP3    H277696   2.309   6.125  13.883  0.4394  0.5475  1.8600
18761TIP3   OH277697   4.015   4.765   4.512 -0.5582 -0.0469  0.1174
18761TIP3    H177698   4.007   4.860   4.504 -0.5626 -0.0104  0.5490
18761TIP3    H277699   3.933   4.738   4.553 -0.8283 -0.3132 -0.5745
18762TIP3   OH277700   0.199   5.069  15.365 -0.2465 -0.1997 -0.3738
18762TIP3    H177701   0.113   5.028  15.370 -0.0314 -0.7811 -1.1981
18762TIP3    H277702   0.256   5.000  15.330  1.0307 -0.5387  2.1299
18763TIP3   OH277703   3.718   0.250  14.196 -0.5158  0.1001 -0.3631
18763TIP3    H177704   3.665   0.230  14.273  1.0306  0.4949  0.8418
18763TIP3    H277705   3.788   0.185  14.196  2.3240  2.8939  1.4197
18764TIP3   OH277706   3.746   4.794  14.366 -0.3321 -0.1733  0.3651
18764TIP3    H177707   3.785   4.865  14.416 -1.4807 -0.5242  1.8101
18764TIP3    H277708   3.803   4.785  14.289 -1.7167  4.2813 -1.5247
18765TIP3   OH277709   2.853   6.761  16.047 -0.6744 -0.0910 -0.2952
18765TIP3    H177710   2.936   6.796  16.016 -0.4300 -0.7528 -0.3997
18765TIP3    H277711   2.815   6.831  16.100 -0.6185  0.6712 -1.2355
18766TIP3   OH277712   1.632   0.245   4.317  0.5130  0.4770  0.2414
18766TIP3    H177713   1.637   0.154   4.346 -1.0200 -0.2546 -1.5930
18766TIP3    H277714   1.620   0.295   4.398 -1.2593 -1.2237  1.1203
18767TIP3   OH277715   4.194   3.723  16.811 -0.3966 -0.1684 -0.4200
18767TIP3    H177716   4.283   3.694  16.830 -0.1190 -1.2165 -2.9639
18767TIP3    H277717   4.197   3.818  16.821  0.5485 -0.3212  1.0853
18768TIP3   OH277718   1.879   1.911  13.517 -0.0246  0.5716  0.3746
18768TIP3    H177719   1.864   1.822  13.549 -0.4400 -0.1084 -1.5833
18768TIP3    H277720   1.974   1.915  13.501  0.1504  0.8410  1.4241
18769TIP3   OH277721   6.587   0.241  14.245 -0.0021  0.3146 -0.5947
18769TIP3    H177722   6.499   0.280  14.243  0.7188  2.3343  2.1800
18769TIP3    H277723   6.634   0.285  14.175 -0.8421  0.0038 -1.3897
18770TIP3   OH277724   3.789   4.937   1.534 -0.2397  0.0530 -0.4171
18770TIP3    H177725   3.802   4.989   1.614  2.4520 -0.3184 -0.5322
18770TIP3    H277726   3.810   4.997   1.463 -1.3766  0.0031 -0.8137
18771TIP3   OH277727   5.901   4.999   2.822  0.3589  0.1549 -0.7136
18771TIP3    H177728   5.900   4.903   2.816  0.3867 -0.0574  1.5188
18771TIP3    H277729   5.990   5.023   2.797  0.7352 -0.5477 -0.1162
18772TIP3   OH277730   4.105   1.950  15.479 -0.7908  0.1271 -0.2358
18772TIP3    H177731   4.094   2.044  15.469 -1.9526 -0.1433 -2.0988
18772TIP3    H277732   4.170   1.926  15.413 -0.9712 -0.4582 -0.2066
18773TIP3   OH277733   5.405   5.582   0.746 -0.2029  0.1802 -0.8771
18773TIP3    H177734   5.415   5.624   0.660  2.4135 -2.2556 -1.9205
18773TIP3    H277735   5.384   5.491   0.726 -1.6016 -0.0210  1.1846
18774TIP3   OH277736   6.469   1.055  13.885 -0.2809 -0.5085  0.1406
18774TIP3    H177737   6.423   1.009  13.954 -1.0915  0.2475  0.1188
18774TIP3    H277738   6.562   1.047  13.909 -0.5212 -0.6602  1.0595
18775TIP3   OH277739   0.288   0.789   1.889  0.1846 -0.4267  0.2425
18775TIP3    H177740   0.372   0.746   1.902 -0.4298 -2.2253 -1.2314
18775TIP3    H277741   0.275   0.789   1.794 -0.5100  1.8121  0.2853
18776TIP3   OH277742   6.423   0.045  12.069 -0.0471 -0.2759  0.4156
18776TIP3    H177743   6.494   0.048  12.005 -0.6658 -1.2642 -0.3470
18776TIP3    H277744   6.363   0.113  12.040  0.5062  0.4716  0.9847
18777TIP3   OH277745   1.851   1.147   3.762 -0.1753 -0.6595 -0.5138
18777TIP3    H177746   1.853   1.184   3.674 -1.1537 -1.7611 -1.0116
18777TIP3    H277747   1.792   1.072   3.756  1.1377 -1.8404  0.6523
18778TIP3   OH277748   5.215   2.674   2.787 -0.4750 -0.3746  0.3411
18778TIP3    H177749   5.198   2.685   2.880  1.8262 -2.4301  1.1174
18778TIP3    H277750   5.138   2.627   2.754 -2.2243  2.0439  0.6515
18779TIP3   OH277751   5.909   5.017  15.889  0.3702 -0.6447  0.1118
18779TIP3    H177752   5.908   5.112  15.897  1.2753 -0.6580  0.4933
18779TIP3    H277753   5.958   4.987  15.965 -1.6828 -1.5595  1.1552
18780TIP3   OH277754   1.974   0.753  14.606  0.1087 -0.7533  0.9342
18780TIP3    H177755   2.036   0.680  14.611 -0.2416 -1.1856 -0.5886
18780TIP3    H277756   1.948   0.756  14.514  1.1614  2.1528  0.6190
18781TIP3   OH277757   6.765   0.478   3.443 -0.2948  0.1641  0.7165
18781TIP3    H177758   6.814   0.559   3.431 -0.9662  0.6218  0.9782
18781TIP3    H277759   6.811   0.414   3.390 -0.7146  1.1006 -0.8287
18782TIP3   OH277760   5.134   0.613   4.834 -0.5647 -0.3716 -1.0403
18782TIP3    H177761   5.168   0.554   4.902 -0.9214 -1.9156 -2.1663
18782TIP3    H277762   5.182   0.695   4.848  0.4339 -1.1246  0.1456
18783TIP3   OH277763   0.812   3.077  12.459 -0.6863  0.5075  0.4832
18783TIP3    H177764   0.781   3.031  12.536 -1.8607  3.1348  1.6746
18783TIP3    H277765   0.898   3.111  12.484 -0.8211  0.8962  0.4152
18784TIP3   OH277766   0.851   4.304  16.234  0.0094 -0.5663 -0.1097
18784TIP3    H177767   0.888   4.387  16.266  1.0982 -1.3675  0.7853
18784TIP3    H277768   0.889   4.293  16.146  0.9119 -0.7422  0.2880
18785TIP3   OH277769   2.650   5.575   1.618 -0.0799 -0.5317  0.0294
18785TIP3    H177770   2.666   5.481   1.626 -2.3854 -0.9196  0.8019
18785TIP3    H277771   2.558   5.582   1.591 -0.9706  1.4949  3.0566
18786TIP3   OH277772   1.535   2.713   2.913  0.6174  0.1772 -0.7567
18786TIP3    H177773   1.502   2.631   2.950  2.1222 -0.4252 -0.6635
18786TIP3    H277774   1.566   2.763   2.989 -1.4739  1.4403 -0.6688
18787TIP3   OH277775   4.884   5.351   4.222  0.0565 -0.0073 -0.1288
18787TIP3    H177776   4.930   5.288   4.277 -0.7130  0.5470  1.1893
18787TIP3    H277777   4.952   5.411   4.193  0.7246 -1.1572 -1.0478
18788TIP3   OH277778   3.813   3.850  11.302  0.0047  0.0699 -0.1296
18788TIP3    H177779   3.757   3.773  11.311 -0.3859  0.4266  0.4951
18788TIP3    H277780   3.805   3.896  11.386  1.1083  0.2037 -0.0854
18789TIP3   OH277781   1.091   0.343   0.186  0.1536  0.2451 -0.3842
18789TIP3    H177782   1.083   0.255   0.149 -0.2412  0.0027  0.2517
18789TIP3    H277783   1.128   0.396   0.116  1.0787 -0.5884 -0.5363
18790TIP3   OH277784   4.171   6.465  13.120 -0.3276  0.3770  0.2186
18790TIP3    H177785   4.264   6.455  13.140 -0.0576  2.3492  0.1789
18790TIP3    H277786   4.130   6.485  13.204 -0.7085 -0.2810  0.2025
18791TIP3   OH277787   1.046   2.073  12.910 -0.0542 -0.0279 -0.1272
18791TIP3    H177788   1.097   2.124  12.972  2.1465 -2.1867  0.0005
18791TIP3    H277789   0.992   2.016  12.965  1.1901 -1.2684 -0.1410
18792TIP3   OH277790   6.001   2.502   1.397 -0.3184 -0.6797 -0.0179
18792TIP3    H177791   5.955   2.443   1.339 -2.8691  0.9522  0.1863
18792TIP3    H277792   6.067   2.544   1.342 -0.2134 -1.8002 -0.7706
18793TIP3   OH277793   6.189   4.602  13.275  0.4918  0.2374  0.0997
18793TIP3    H177794   6.157   4.538  13.212 -1.3235  1.3683 -0.2000
18793TIP3    H277795   6.218   4.550  13.349 -1.4613 -0.9369  0.1114
18794TIP3   OH277796   4.740   4.600  12.218  0.1177 -0.1858 -0.1392
18794TIP3    H177797   4.714   4.555  12.298  2.0325 -0.9310  0.1111
18794TIP3    H277798   4.762   4.688  12.246 -1.9323  0.4370 -0.3443
18795TIP3   OH277799   0.622   5.425   5.776  0.1111  0.3377  0.0168
18795TIP3    H177800   0.713   5.407   5.798  0.6626  0.1190 -2.2450
18795TIP3    H277801   0.619   5.520   5.761 -0.3945  0.5812  1.4622
18796TIP3   OH277802   5.122   1.636   0.535 -0.6329  0.0661  0.0782
18796TIP3    H177803   5.207   1.607   0.567 -1.4072 -1.3474  0.9361
18796TIP3    H277804   5.138   1.665   0.445  0.8969  0.6219  0.5123
18797TIP3   OH277805   3.206   1.619   0.490 -0.3592 -0.2642  0.6087
18797TIP3    H177806   3.291   1.661   0.477  0.0496 -0.5562  2.1662
18797TIP3    H277807   3.150   1.688   0.526 -1.3183  0.3834 -1.8690
18798TIP3   OH277808   6.264   0.222   1.936 -0.0316 -0.1847 -0.4277
18798TIP3    H177809   6.340   0.180   1.976  0.7838  0.4019 -1.3042
18798TIP3    H277810   6.224   0.272   2.007  1.7034  1.2740 -0.3990
18799TIP3   OH277811   0.850   1.320   2.741 -0.1408 -0.0933 -0.1563
18799TIP3    H177812   0.944   1.336   2.736 -0.2639  0.5245 -0.6152
18799TIP3    H277813   0.832   1.315   2.835  0.8126 -3.2295 -0.0069
18800TIP3   OH277814   6.114   3.321  17.117  0.0475 -0.3631  0.0868
18800TIP3    H177815   6.076   3.404  17.147  1.0386  0.1152  0.0922
18800TIP3    H277816   6.075   3.306  17.031  0.3962  0.4969 -0.2312
18801TIP3   OH277817   5.911   1.822   3.370 -0.1747 -0.8627  0.1677
18801TIP3    H177818   5.848   1.885   3.335 -0.0853 -1.3909 -0.9851
18801TIP3    H277819   5.972   1.875   3.421 -0.8251 -0.1854  0.2621
18802TIP3   OH277820   0.759   3.919  12.239 -0.4835  0.2201 -0.0452
18802TIP3    H177821   0.774   4.000  12.190  0.1603  1.1710  1.6273
18802TIP3    H277822   0.663   3.913  12.246 -0.5557  0.4565 -0.7872
18803TIP3   OH277823   1.390   1.092  16.384 -0.0907 -0.4235 -0.4148
18803TIP3    H177824   1.457   1.107  16.451 -0.0451  0.3721 -0.6325
18803TIP3    H277825   1.350   1.009  16.409 -0.3993  0.0934  0.8727
18804TIP3   OH277826   4.578   3.812   2.005 -0.2064  0.0198 -0.2683
18804TIP3    H177827   4.651   3.848   1.955  0.1307 -0.8650 -0.4371
18804TIP3    H277828   4.608   3.725   2.032 -1.8457 -1.0971 -1.8150
18805TIP3   OH277829   4.037   4.303  10.592 -0.0379  0.0272 -0.3041
18805TIP3    H177830   4.117   4.355  10.587 -0.1495  0.2565  0.2413
18805TIP3    H277831   4.057   4.233  10.653 -1.0186  1.5131  1.8423
18806TIP3   OH277832   2.836   5.889   3.029 -0.1478  0.3194 -0.6030
18806TIP3    H177833   2.841   5.939   2.947 -1.6825 -0.3695 -1.1619
18806TIP3    H277834   2.905   5.925   3.084  0.1782  1.5741 -1.7882
18807TIP3   OH277835   5.688   0.629   2.109 -0.5260  0.3679  0.3015
18807TIP3    H177836   5.762   0.637   2.049 -1.3049 -0.4779 -0.8263
18807TIP3    H277837   5.727   0.614   2.195  0.6058  0.5689 -0.1665
18808TIP3   OH277838   3.261   5.580   5.122  0.3759  0.4180 -0.0950
18808TIP3    H177839   3.220   5.626   5.195 -0.9581  1.2082 -1.3100
18808TIP3    H277840   3.241   5.487   5.138 -0.2938  0.6265  0.3008
18809TIP3   OH277841   1.930   2.055  12.146 -0.2681 -0.6117 -0.0379
18809TIP3    H177842   1.867   2.108  12.195  0.1644 -0.1627  0.0392
18809TIP3    H277843   1.974   2.002  12.212 -1.1824 -1.5938 -0.1878
18810TIP3   OH277844   0.480   3.612   3.507  0.3730 -0.5383  0.2320
18810TIP3    H177845   0.557   3.592   3.453  1.4985 -0.8875  1.8773
18810TIP3    H277846   0.406   3.581   3.456  1.3310 -0.2898 -1.3718
18811TIP3   OH277847   1.766   5.238   0.968  0.3679 -0.4077 -0.1816
18811TIP3    H177848   1.673   5.220   0.978  0.4636 -0.3564  0.8705
18811TIP3    H277849   1.798   5.251   1.057  1.1953  0.5250 -0.5990
18812TIP3   OH277850   2.318   5.222  11.040  0.3802  0.2655  0.0654
18812TIP3    H177851   2.402   5.208  11.082 -0.4877 -0.4269  1.6710
18812TIP3    H277852   2.315   5.158  10.969  1.0810  0.1170  0.1682
18813TIP3   OH277853   0.494   2.881   3.681  1.2367 -0.5719 -0.7366
18813TIP3    H177854   0.456   2.794   3.666  0.3639 -0.2291 -0.5547
18813TIP3    H277855   0.559   2.867   3.749  0.4757 -0.9306 -0.0659
18814TIP3   OH277856   4.635   3.452   0.019  0.6620 -0.1819  0.2859
18814TIP3    H177857   4.575   3.395   0.068 -0.3549 -0.2307 -0.9607
18814TIP3    H277858   4.682   3.501   0.086 -0.5886 -0.3432  1.3204
18815TIP3   OH277859   5.819   0.664  16.471 -0.0764 -0.1408 -0.1071
18815TIP3    H177860   5.901   0.654  16.423 -0.9167  0.7918 -1.8232
18815TIP3    H277861   5.827   0.748  16.516 -0.0562 -0.0898 -0.2062
18816TIP3   OH277862   0.433   2.280  16.202 -0.0043 -0.6925 -0.0552
18816TIP3    H177863   0.454   2.340  16.274  1.6458 -1.9732  0.6121
18816TIP3    H277864   0.461   2.194  16.234 -0.7749 -1.5595 -1.6122
18817TIP3   OH277865   1.612   1.103   3.574  0.6557 -0.1302 -0.0778
18817TIP3    H177866   1.692   1.068   3.534  1.5074  2.3436 -0.7540
18817TIP3    H277867   1.558   1.128   3.499  1.7441  3.4203  0.1405
18818TIP3   OH277868   4.853   2.622   5.800  0.2660  0.0684 -0.2928
18818TIP3    H177869   4.781   2.564   5.777  1.8048 -1.3899 -1.7956
18818TIP3    H277870   4.880   2.594   5.888  0.8202 -1.3944 -0.8932
18819TIP3   OH277871   4.957   6.692   1.609  0.0629 -0.7424 -0.6086
18819TIP3    H177872   4.919   6.742   1.537 -0.5777 -0.3851 -0.0325
18819TIP3    H277873   5.030   6.745   1.640  0.5898 -1.0826 -1.2377
18820TIP3   OH277874   6.639   2.119  16.725  0.5923  0.4004 -0.0856
18820TIP3    H177875   6.583   2.165  16.663  0.5721  0.3244 -0.1254
18820TIP3    H277876   6.719   2.101  16.674  0.2471 -0.4099 -0.3544
18821TIP3   OH277877   3.443   3.444  11.871 -0.2914  0.3844  0.7561
18821TIP3    H177878   3.418   3.385  11.800 -2.4409  2.5892 -0.4371
18821TIP3    H277879   3.538   3.450  11.865 -0.3312 -0.3585 -1.1967
18822TIP3   OH277880   1.231   2.441  13.137  0.1163 -0.1916  0.3799
18822TIP3    H177881   1.272   2.381  13.199 -1.2605 -0.8974  0.6512
18822TIP3    H277882   1.299   2.505  13.116  1.5850 -1.7397  0.2049
18823TIP3   OH277883   0.602   5.153   3.738 -0.1423  0.2028  0.3115
18823TIP3    H177884   0.554   5.196   3.666 -0.8379 -1.2898 -0.1576
18823TIP3    H277885   0.630   5.225   3.794  0.5607  1.4332 -1.5314
18824TIP3   OH277886   0.204   1.257   3.633  0.1297  0.0712 -0.3673
18824TIP3    H177887   0.238   1.170   3.613 -0.5001 -0.2455 -0.1077
18824TIP3    H277888   0.161   1.286   3.553 -0.7642 -0.4025 -0.0711
18825TIP3   OH277889   5.439   5.462  13.382 -0.0662  0.5497 -0.0426
18825TIP3    H177890   5.433   5.436  13.290 -2.0326 -0.7251  0.3968
18825TIP3    H277891   5.402   5.550  13.384 -0.1385  0.5329 -0.4441
18826TIP3   OH277892   1.460   0.669  15.494 -0.8358  0.7876  0.0359
18826TIP3    H177893   1.420   0.688  15.409 -2.7975  0.5427  0.8580
18826TIP3    H277894   1.448   0.575  15.506  0.8184  0.5404 -0.0703
18827TIP3   OH277895   4.663   3.709  12.367 -0.2648  0.1380  0.1915
18827TIP3    H177896   4.663   3.804  12.354 -0.3298  0.3818  1.7827
18827TIP3    H277897   4.649   3.697  12.461 -1.2255 -1.4697 -0.1051
18828TIP3   OH277898   6.568   2.570  13.116  0.1436  0.2159  0.2010
18828TIP3    H177899   6.558   2.655  13.073 -0.6869  0.8063  1.4918
18828TIP3    H277900   6.661   2.565  13.140  0.0883  1.0022  0.5932
18829TIP3   OH277901   6.088   2.709  13.320  0.7072  0.2650  0.6812
18829TIP3    H177902   6.180   2.684  13.323  0.5681 -0.3104  0.4332
18829TIP3    H277903   6.069   2.720  13.227  0.3847 -0.2024  0.6864
18830TIP3   OH277904   6.508   5.720   6.290  0.3271  0.5064  0.0864
18830TIP3    H177905   6.602   5.709   6.303  0.3964  1.0957  0.1264
18830TIP3    H277906   6.486   5.797   6.343 -0.5639 -0.8240  1.7224
18831TIP3   OH277907   1.676   3.987  14.350  0.4945  0.2903 -0.5371
18831TIP3    H177908   1.734   3.912  14.343  2.7911  1.6434  1.9471
18831TIP3    H277909   1.708   4.049  14.284  2.1629  1.1246  0.9790
18832TIP3   OH277910   4.526   6.270   4.598 -0.1095  0.3589 -0.0235
18832TIP3    H177911   4.569   6.237   4.518 -1.5385  1.2628 -1.2126
18832TIP3    H277912   4.457   6.206   4.616 -0.2735  0.5546  0.0440
18833TIP3   OH277913   6.657   1.555   2.394  0.3887  0.3746  0.1129
18833TIP3    H177914   6.746   1.525   2.378  0.6762  1.2432  0.0090
18833TIP3    H277915   6.666   1.624   2.460 -0.1022  1.0247 -0.4788
18834TIP3   OH277916   4.760   3.946   4.227  0.4357 -0.1470  0.0657
18834TIP3    H177917   4.734   3.881   4.162  1.8910 -1.8338  1.0562
18834TIP3    H277918   4.833   3.992   4.186 -0.1259  0.3884 -0.3548
18835TIP3   OH277919   2.893   3.944  14.220  0.2505 -0.6601  0.4700
18835TIP3    H177920   2.838   4.011  14.181 -0.4309 -1.5067 -0.0473
18835TIP3    H277921   2.893   3.964  14.314 -0.9075 -0.6265  0.4668
18836TIP3   OH277922   1.342   1.314  16.209  0.6165  0.4128 -0.2136
18836TIP3    H177923   1.267   1.363  16.243  0.7605  1.8240 -1.8144
18836TIP3    H277924   1.371   1.260  16.283 -2.8060 -1.2587  0.0901
18837TIP3   OH277925   4.804   6.019   0.913 -0.0278 -0.2467 -0.3595
18837TIP3    H177926   4.806   6.111   0.889 -0.8162  0.0807  0.7787
18837TIP3    H277927   4.736   6.012   0.980 -0.9009 -1.8705 -1.3171
18838TIP3   OH277928   4.430   4.890  16.143  0.3210  0.2638 -0.4716
18838TIP3    H177929   4.395   4.801  16.146  0.6716  0.1320  1.7689
18838TIP3    H277930   4.357   4.943  16.110  0.0127 -0.7869 -1.5500
18839TIP3   OH277931   5.344   0.348  16.127 -0.2351  0.2696 -0.2532
18839TIP3    H177932   5.268   0.295  16.149  2.0268 -3.3567 -0.4084
18839TIP3    H277933   5.347   0.416  16.194 -2.5252 -0.6072  0.8321
18840TIP3   OH277934   6.370   4.621   1.952 -0.0054 -0.6408  0.7268
18840TIP3    H177935   6.290   4.572   1.934  0.3910 -1.4707  1.1698
18840TIP3    H277936   6.427   4.602   1.877 -0.4190  0.4321  0.1071
18841TIP3   OH277937   0.196   2.293  13.742 -0.3559 -0.0419 -0.3680
18841TIP3    H177938   0.194   2.229  13.812  1.5083  1.0637  0.7972
18841TIP3    H277939   0.105   2.317  13.727 -0.9115 -1.5115  0.5224
18842TIP3   OH277940   4.065   5.496  11.955 -0.4170 -0.3623 -0.1985
18842TIP3    H177941   4.125   5.430  11.921  1.2903  1.9842 -2.0474
18842TIP3    H277942   4.051   5.556  11.882 -1.8909  1.3454  1.3914
18843TIP3   OH277943   3.459   2.800   2.913 -0.0048 -0.3166 -0.1815
18843TIP3    H177944   3.455   2.748   2.994 -1.8772 -0.7031 -0.4606
18843TIP3    H277945   3.372   2.840   2.906  0.4218  0.4503 -1.5350
18844TIP3   OH277946   4.004   0.076  11.443 -0.3532 -0.2504 -0.5137
18844TIP3    H177947   3.967   0.089  11.531 -0.2589 -1.5141 -0.2681
18844TIP3    H277948   3.927   0.064  11.387 -0.3877 -0.9426 -0.3329
18845TIP3   OH277949   0.651   1.601   3.707  1.4598  0.1243  0.0996
18845TIP3    H177950   0.663   1.579   3.614  0.8358 -0.8255  0.2261
18845TIP3    H277951   0.612   1.688   3.705  0.4137 -0.3361 -0.5860
18846TIP3   OH277952   5.051   1.520  13.658  0.0576  0.1373  0.4226
18846TIP3    H177953   5.053   1.483  13.570 -2.2087 -0.7402  0.6865
18846TIP3    H277954   5.113   1.467  13.708  0.4895 -0.0970 -0.3355
18847TIP3   OH277955   1.814   0.379   4.154 -0.8519  0.0470 -0.5158
18847TIP3    H177956   1.817   0.311   4.087 -0.2680  0.3620 -0.8215
18847TIP3    H277957   1.807   0.332   4.237  1.6692 -0.5078 -0.5302
18848TIP3   OH277958   4.794   5.522  11.696  0.3232 -0.2257  0.3619
18848TIP3    H177959   4.740   5.601  11.705 -0.5516 -0.7256 -0.3610
18848TIP3    H277960   4.881   5.549  11.728 -0.6286  0.2414  2.7979
18849TIP3   OH277961   6.638   6.147  11.550 -0.3740  0.1802  0.8862
18849TIP3    H177962   6.653   6.208  11.622 -2.8074  0.2662  1.3986
18849TIP3    H277963   6.563   6.094  11.578 -0.5339 -0.6915 -1.0242
18850TIP3   OH277964   1.167   6.620   4.122 -0.4371  0.1844  0.4137
18850TIP3    H177965   1.170   6.631   4.027 -1.6414  2.3006  0.5641
18850TIP3    H277966   1.230   6.684   4.155 -0.1149 -0.4554  1.0665
18851TIP3   OH277967   1.728   4.538   1.578 -0.0550 -0.2326 -0.4728
18851TIP3    H177968   1.807   4.543   1.632 -1.0171 -1.7445  1.1567
18851TIP3    H277969   1.699   4.629   1.572  0.3325  0.0343  1.1931
18852TIP3   OH277970   1.471   5.783   4.921  0.2098  0.4880 -0.6919
18852TIP3    H177971   1.385   5.753   4.893  0.6964  1.8835 -4.1381
18852TIP3    H277972   1.464   5.879   4.921  1.0979  0.6278  1.6142
18853TIP3   OH277973   1.550   2.565   3.931  0.3100 -0.1978 -0.4350
18853TIP3    H177974   1.573   2.491   3.988 -0.1819  1.3057  1.8323
18853TIP3    H277975   1.456   2.553   3.913  0.4947 -0.7457 -1.1128
18854TIP3   OH277976   4.270   2.112  17.225  0.1697 -0.3766  0.2353
18854TIP3    H177977   4.271   2.130  17.131  0.3542 -1.8126 -0.0515
18854TIP3    H277978   4.305   2.023  17.233  0.0269 -0.3203  1.6517
18855TIP3   OH277979   4.086   0.745  13.967  0.9538  0.1502 -0.0873
18855TIP3    H177980   4.119   0.729  14.055 -0.1420  0.3447  0.3757
18855TIP3    H277981   4.045   0.663  13.941 -1.9188  1.0936  1.0561
18856TIP3   OH277982   2.982   5.542   5.567 -0.6883 -0.7781  0.0258
18856TIP3    H177983   2.938   5.627   5.562 -1.8322 -1.3309  0.2910
18856TIP3    H277984   2.910   5.479   5.576  0.2403 -1.5981  2.0660
18857TIP3   OH277985   2.625   0.296   2.984 -0.1511  0.7518  0.3442
18857TIP3    H177986   2.625   0.201   2.973  0.9386  0.6558  1.0456
18857TIP3    H277987   2.618   0.330   2.894  1.8211  0.0024 -0.1315
18858TIP3   OH277988   5.960   4.204   6.534  0.3541  0.7314 -0.5138
18858TIP3    H177989   6.020   4.252   6.477  1.0379  1.8323  1.0808
18858TIP3    H277990   5.994   4.218   6.622 -0.5817 -1.0664  0.1777
18859TIP3   OH277991   5.772   0.417   5.322  0.2911 -0.0351 -0.8080
18859TIP3    H177992   5.846   0.447   5.375  0.1648 -0.7253 -0.2348
18859TIP3    H277993   5.702   0.400   5.385  0.9833 -3.5525 -0.7915
18860TIP3   OH277994   5.021   2.411   2.198 -0.4525  0.2568 -0.8254
18860TIP3    H177995   4.990   2.408   2.289 -0.8753  1.6131 -0.9110
18860TIP3    H277996   4.975   2.485   2.159  0.1870  0.0688 -1.9890
18861TIP3   OH277997   5.274   1.547  10.274 -0.6481 -0.2651 -0.5987
18861TIP3    H177998   5.338   1.550  10.344  1.4175  2.5182 -2.3825
18861TIP3    H277999   5.191   1.569  10.316  0.3601  0.4749  1.1167
18862TIP3   OH278000   5.022   0.974  15.366  0.0010  0.0514 -0.1922
18862TIP3    H178001   5.103   1.025  15.367  0.6542 -0.9650 -0.0768
18862TIP3    H278002   4.992   0.979  15.275  1.4942 -1.5381 -0.8192
18863TIP3   OH278003   5.334   1.069   0.641  0.5279  0.0183 -0.1008
18863TIP3    H178004   5.270   1.140   0.648 -0.7856 -1.1532  0.2587
18863TIP3    H278005   5.288   0.992   0.675  2.8693 -0.4402  2.3760
18864TIP3   OH278006   4.497   5.840   4.808  0.2380  0.2018  0.7672
18864TIP3    H178007   4.407   5.860   4.783  0.3207  0.6034  0.7786
18864TIP3    H278008   4.514   5.894   4.884  0.4922  0.1323  0.7620
18865TIP3   OH278009   1.093   2.719   1.386 -0.1790  0.2606  0.1207
18865TIP3    H178010   1.118   2.686   1.472  1.6638  2.6502  0.6233
18865TIP3    H278011   1.174   2.716   1.335 -0.1741  2.7079 -0.1466
18866TIP3   OH278012   5.576   0.246  16.383  0.3906 -0.2149  0.4633
18866TIP3    H178013   5.520   0.309  16.429  0.7844  0.8335 -0.4607
18866TIP3    H278014   5.553   0.161  16.422 -0.9357  0.3503  0.9764
18867TIP3   OH278015   4.570   4.876  11.559  0.2121 -0.5196  0.3205
18867TIP3    H178016   4.576   4.787  11.525  2.6677 -0.1231 -0.5096
18867TIP3    H278017   4.527   4.926  11.488  2.0693 -0.4025 -0.7902
18868TIP3   OH278018   0.300   1.577   1.601 -0.1641  0.6810  0.0447
18868TIP3    H178019   0.304   1.590   1.696 -0.7198  2.6767 -0.1451
18868TIP3    H278020   0.379   1.621   1.568 -0.2215  0.4165 -0.4525
18869TIP3   OH278021   6.240   4.116   3.773  0.2551 -0.4519  0.3194
18869TIP3    H178022   6.327   4.130   3.809  0.7072 -1.8407 -0.1479
18869TIP3    H278023   6.252   4.117   3.678 -0.3497 -0.0543  0.2374
18870TIP3   OH278024   3.735   1.544   0.983  0.1088  0.1917 -0.0238
18870TIP3    H178025   3.756   1.521   0.893  0.6739 -2.1786  0.6254
18870TIP3    H278026   3.815   1.584   1.016 -0.5215  2.2607 -0.8821
18871TIP3   OH278027   2.386   4.222  11.504 -0.3793  0.0578  0.3215
18871TIP3    H178028   2.410   4.263  11.587  2.4332 -0.2013 -0.2703
18871TIP3    H278029   2.394   4.128  11.520 -0.1495 -0.0035 -0.1401
18872TIP3   OH278030   3.863   4.487  14.322 -0.1731  0.7745  0.5361
18872TIP3    H178031   3.857   4.525  14.234  0.2300 -1.6589 -0.6019
18872TIP3    H278032   3.776   4.452  14.339  0.1880 -0.2201  0.3892
18873TIP3   OH278033   0.679   3.509   1.021 -0.1345  0.1176 -0.4622
18873TIP3    H178034   0.606   3.447   1.013  0.3295 -0.4367 -0.5086
18873TIP3    H278035   0.697   3.536   0.931  0.8622 -1.1253 -0.6765
18874TIP3   OH278036   5.816   5.854   0.081 -0.4683  0.0831 -0.1875
18874TIP3    H178037   5.815   5.760   0.064 -0.8577  0.3474 -1.7878
18874TIP3    H278038   5.854   5.892   0.002  0.8926  1.1891  0.9633
18875TIP3   OH278039   5.518   6.260  14.559  0.0445 -0.3887  0.4500
18875TIP3    H178040   5.612   6.279  14.566 -0.0182 -0.4039  1.6347
18875TIP3    H278041   5.482   6.331  14.507  0.9498 -1.2082 -1.3745
18876TIP3   OH278042   4.348   0.771  14.951  0.2221 -0.0335  0.2518
18876TIP3    H178043   4.337   0.689  14.999  1.7322  0.8286  2.2415
18876TIP3    H278044   4.369   0.835  15.019 -0.6258  1.9500 -1.2796
18877TIP3   OH278045   6.692   3.801  13.126  0.0925  0.2064  0.6748
18877TIP3    H178046   6.730   3.733  13.183 -1.0096 -0.8686  0.1703
18877TIP3    H278047   6.693   3.762  13.039 -0.5264  0.8718  0.3650
18878TIP3   OH278048   3.893   4.313  13.159 -0.0791 -0.0361  0.1236
18878TIP3    H178049   3.832   4.243  13.138  0.8669  0.0660 -3.6571
18878TIP3    H278050   3.976   4.269  13.177 -0.3949  0.0010  1.8642
18879TIP3   OH278051   1.710   4.010   1.496  0.0201  0.2003 -0.1160
18879TIP3    H178052   1.641   3.953   1.529  0.5377 -1.3204 -1.5097
18879TIP3    H278053   1.678   4.039   1.411  0.5985  0.4218 -0.2616
18880TIP3   OH278054   5.370   2.884   1.364 -0.6689 -0.1496 -0.1378
18880TIP3    H178055   5.441   2.837   1.319 -1.3003  0.2576 -1.6280
18880TIP3    H278056   5.414   2.960   1.403 -0.0849 -0.5450 -0.0058
18881TIP3   OH278057   4.095   2.094  14.227  0.0041  0.4273  0.5961
18881TIP3    H178058   4.028   2.130  14.169 -1.9214 -0.1886  2.3121
18881TIP3    H278059   4.063   2.006  14.248  0.8356  0.4817  2.2249
18882TIP3   OH278060   3.738   1.554  14.525 -0.1867  0.4946 -0.3609
18882TIP3    H178061   3.728   1.575  14.432 -0.1852  1.5101 -0.1396
18882TIP3    H278062   3.751   1.638  14.568  1.5093 -0.0896  0.3663
18883TIP3   OH278063   3.016   2.002   3.409  0.1997 -0.4297 -0.1190
18883TIP3    H178064   3.044   1.934   3.348  1.1680 -1.2574  1.1867
18883TIP3    H278065   2.931   1.971   3.442  0.8809 -1.2995  0.8642
18884TIP3   OH278066   3.056   2.229  15.938 -0.2158  0.0801 -0.2078
18884TIP3    H178067   3.078   2.162  16.002  0.2667  1.1321  0.7586
18884TIP3    H278068   2.964   2.213  15.917  0.0502 -1.2447 -0.4641
18885TIP3   OH278069   2.077   6.753   2.852  0.1352  0.0328 -0.3364
18885TIP3    H178070   2.125   6.784   2.930  0.1231 -0.7203 -0.0213
18885TIP3    H278071   2.080   6.658   2.859  1.2468 -0.0929 -1.9270
18886TIP3   OH278072   1.492   5.113   0.879  0.4765 -0.1220  0.8347
18886TIP3    H178073   1.432   5.137   0.949 -1.1189 -1.8562  0.1676
18886TIP3    H278074   1.472   5.174   0.808  1.0521  0.6820  1.3470
18887TIP3   OH278075   6.569   2.619   0.460 -0.0745  0.0201  0.4408
18887TIP3    H178076   6.549   2.647   0.370  0.1976 -0.4341  0.2351
18887TIP3    H278077   6.488   2.633   0.508  0.2041  1.6584  0.4732
18888TIP3   OH278078   2.884   3.948   0.884 -0.0641  0.1499 -0.1369
18888TIP3    H178079   2.899   4.034   0.923  1.7931 -0.0119 -0.4138
18888TIP3    H278080   2.960   3.896   0.910  0.5228 -0.4175 -2.7046
18889TIP3   OH278081   6.206   0.960  11.920  0.5718  0.2949  0.2181
18889TIP3    H178082   6.286   0.921  11.954  2.5931  2.2051 -1.9729
18889TIP3    H278083   6.177   0.901  11.851  1.9113  1.0382 -1.0453
18890TIP3   OH278084   3.182   3.853  13.217 -0.8804 -0.2214  0.7976
18890TIP3    H178085   3.160   3.771  13.261  1.3325 -1.2393  0.1127
18890TIP3    H278086   3.276   3.848  13.201 -0.7263  2.3520  0.4909
18891TIP3   OH278087   1.349   1.617   1.503  0.2058 -0.8420 -0.4049
18891TIP3    H178088   1.370   1.704   1.538 -2.1208  0.7524 -2.6577
18891TIP3    H278089   1.389   1.617   1.416 -2.2182 -0.8075 -1.5854
18892TIP3   OH278090   4.927   3.608   6.203  0.0681  0.3009 -0.2097
18892TIP3    H178091   5.006   3.572   6.164 -0.7202 -0.4262 -1.1755
18892TIP3    H278092   4.915   3.558   6.283  0.5067  0.3214 -0.1279
18893TIP3   OH278093   5.864   1.045   0.052  0.0858  0.3762 -0.3800
18893TIP3    H178094   5.829   0.965   0.093  0.7941  0.6175  0.7310
18893TIP3    H278095   5.902   1.015  -0.030  1.3023 -0.6397  0.5133
18894TIP3   OH278096   0.346   2.783   6.026  0.1204  0.1137 -0.1376
18894TIP3    H178097   0.441   2.779   6.019  0.0966  1.2157 -1.4372
18894TIP3    H278098   0.330   2.839   6.102  0.4639 -1.4716  1.1652
18895TIP3   OH278099   4.764   2.635  16.171 -0.1614  0.2985  0.1686
18895TIP3    H178100   4.744   2.711  16.226 -2.3045 -1.3525  1.8729
18895TIP3    H278101   4.687   2.578  16.181  0.5019 -1.2355 -2.5910
18896TIP3   OH278102   1.091   5.249  13.121 -0.5259 -0.8438  0.0704
18896TIP3    H178103   1.074   5.173  13.177 -0.4167 -1.4373 -0.6915
18896TIP3    H278104   1.184   5.242  13.100 -0.3168 -0.0267  0.6706
18897TIP3   OH278105   6.197   2.592  15.448  0.1962  0.5039 -0.4149
18897TIP3    H178106   6.124   2.565  15.505  0.0336 -0.6330 -1.1304
18897TIP3    H278107   6.215   2.515  15.395  2.5675  0.4428  0.3965
18898TIP3   OH278108   6.411   3.599  16.582  1.1557 -0.0432  0.1827
18898TIP3    H178109   6.420   3.528  16.519  0.5154  0.7670 -0.8488
18898TIP3    H278110   6.393   3.676  16.529  0.6284  0.6711  1.3592
18899TIP3   OH278111   3.604   1.125   0.362  0.3609 -1.1158 -0.2593
18899TIP3    H178112   3.579   1.217   0.378  1.8659 -0.7698  0.2627
18899TIP3    H278113   3.663   1.104   0.434 -0.8617 -2.8938  0.2766
18900TIP3   OH278114   3.458   4.465   0.490 -0.2715  0.4537 -0.1931
18900TIP3    H178115   3.434   4.558   0.489 -1.3062  0.2132  0.2323
18900TIP3    H278116   3.516   4.454   0.415  0.2444  1.5396  0.0251
18901TIP3   OH278117   1.145   3.005  13.446 -0.4560  0.0410  0.2936
18901TIP3    H178118   1.107   2.933  13.396  0.8771 -1.4628  1.3598
18901TIP3    H278119   1.125   2.984  13.537 -0.2998  1.2040  0.6099
18902TIP3   OH278120   3.266   1.257   3.025 -0.0640 -0.4987  0.6763
18902TIP3    H178121   3.212   1.263   2.946  1.6826  0.6363 -0.5204
18902TIP3    H278122   3.307   1.171   3.018 -0.2715 -0.5927  0.5951
18903TIP3   OH278123   6.780   2.431  11.207  0.2575 -0.0284  0.2235
18903TIP3    H178124   6.777   2.520  11.242  0.3435  0.9609 -2.1085
18903TIP3    H278125   6.858   2.429  11.152  0.4174 -1.6588  0.4478
18904TIP3   OH278126   1.401   1.308  15.332  1.2653 -0.6049  0.3970
18904TIP3    H178127   1.403   1.360  15.412  0.1099  0.5205 -0.2708
18904TIP3    H278128   1.413   1.218  15.361  0.9144 -0.2102  1.8295
18905TIP3   OH278129   4.154   6.646  11.486 -0.2954 -0.3395  0.1538
18905TIP3    H178130   4.102   6.725  11.473  1.2958  0.6917 -0.2914
18905TIP3    H278131   4.113   6.602  11.561 -1.9173  0.2739 -0.3409
18906TIP3   OH278132   2.281   6.376   2.853  0.2823 -0.1889  0.2679
18906TIP3    H178133   2.329   6.300   2.887  3.7514  2.0662  0.8039
18906TIP3    H278134   2.331   6.452   2.882 -1.5010  2.2628 -2.5260
18907TIP3   OH278135   0.231   0.771   0.630 -0.3051  0.7936 -0.7162
18907TIP3    H178136   0.202   0.859   0.653  2.3420  1.5643  0.0775
18907TIP3    H278137   0.247   0.775   0.536 -1.3302  0.7763 -0.8996
18908TIP3   OH278138   6.203   6.691  15.389 -0.0370 -1.0147 -0.6027
18908TIP3    H178139   6.248   6.632  15.327 -0.2118 -0.1353 -1.5863
18908TIP3    H278140   6.134   6.732  15.338  0.5046  0.5585 -0.1259
18909TIP3   OH278141   0.940   0.324   0.424  0.6130  0.4354  0.7370
18909TIP3    H178142   0.979   0.366   0.347  2.3817 -0.7686  0.9146
18909TIP3    H278143   1.014   0.284   0.470 -0.8544 -2.9386  0.5249
18910TIP3   OH278144   4.526   1.055  16.727 -0.7381  0.0829  0.2776
18910TIP3    H178145   4.543   0.966  16.695  0.4013  1.2555 -2.8134
18910TIP3    H278146   4.611   1.085  16.759 -0.9654  0.2895  0.6871
18911TIP3   OH278147   2.424   4.543   5.218 -0.1218  0.6542 -0.3990
18911TIP3    H178148   2.461   4.475   5.274 -0.1447  1.5833  0.7936
18911TIP3    H278149   2.350   4.501   5.174 -1.2986  0.3484  1.7156
18912TIP3   OH278150   1.176   1.201  15.900 -0.0025  0.3929 -0.2440
18912TIP3    H178151   1.087   1.179  15.872 -0.0204 -1.3065  0.9728
18912TIP3    H278152   1.164   1.241  15.987  0.3570  1.1441 -0.5367
18913TIP3   OH278153   3.275   4.795   5.691 -0.1760 -0.0227 -0.0377
18913TIP3    H178154   3.260   4.761   5.602  0.4613 -2.2010  0.6132
18913TIP3    H278155   3.356   4.752   5.719  0.4285  1.7589  1.0775
18914TIP3   OH278156   2.668   3.170  14.907 -0.1468  0.3149  0.7424
18914TIP3    H178157   2.706   3.258  14.915  1.8692 -0.5437  1.2016
18914TIP3    H278158   2.624   3.155  14.990  1.0204  0.2448  1.3700
18915TIP3   OH278159   0.590   4.566  11.557 -0.4572  0.1316  0.2359
18915TIP3    H178160   0.613   4.474  11.545 -1.8340 -0.2276  0.2820
18915TIP3    H278161   0.617   4.608  11.475 -2.6963 -0.9056 -1.1196
18916TIP3   OH278162   4.250   4.174   5.258 -0.4008  0.0210  0.1454
18916TIP3    H178163   4.300   4.139   5.184 -1.3146  0.5074 -0.7347
18916TIP3    H278164   4.233   4.098   5.313 -2.4895 -1.0456 -1.8007
18917TIP3   OH278165   5.253   4.525  10.932  0.1209  0.1272  0.2779
18917TIP3    H178166   5.206   4.482  11.003  1.6973 -1.0195  0.6952
18917TIP3    H278167   5.258   4.617  10.957 -0.1869 -0.0968  1.1710
18918TIP3   OH278168   5.801   4.751   5.740 -0.2773  1.0257  0.3209
18918TIP3    H178169   5.726   4.808   5.721 -0.7640  0.5539  0.7915
18918TIP3    H278170   5.817   4.763   5.834  0.6377  1.5980  0.0945
18919TIP3   OH278171   0.623   2.516  12.438 -0.2507 -0.0283  0.7105
18919TIP3    H178172   0.701   2.464  12.460  0.2615 -0.0317 -0.9384
18919TIP3    H278173   0.648   2.606  12.458  0.1898 -0.0342  0.2279
18920TIP3   OH278174   4.535   2.835  11.168 -0.2905  0.3841  0.4501
18920TIP3    H178175   4.560   2.819  11.259 -2.2578  0.1801  1.0116
18920TIP3    H278176   4.470   2.768  11.149 -1.9298  2.0587 -0.1821
18921TIP3   OH278177   4.693   3.920   4.908 -0.2230  0.1622 -0.4193
18921TIP3    H178178   4.769   3.864   4.897  0.7085  0.5222  3.0488
18921TIP3    H278179   4.663   3.937   4.819  2.2411 -1.9761 -1.8054
18922TIP3   OH278180   2.011   3.568  10.516 -0.4870  0.4302 -0.7858
18922TIP3    H178181   1.960   3.595  10.440 -1.3052  0.6290 -0.1851
18922TIP3    H278182   1.960   3.498  10.556  0.0258  0.1988 -0.5240
18923TIP3   OH278183   4.853   1.599   5.027  0.0580  0.3215  0.0795
18923TIP3    H178184   4.881   1.530   4.967 -0.8377  0.2256 -0.2479
18923TIP3    H278185   4.864   1.680   4.977  0.0572  0.3112  0.0625
18924TIP3   OH278186   6.309   5.645  12.724 -0.1043 -1.2228  0.0501
18924TIP3    H178187   6.401   5.624  12.711 -0.1464 -1.6049  0.3567
18924TIP3    H278188   6.310   5.722  12.782  0.0469 -0.3228 -1.1121
18925TIP3   OH278189   6.187   4.476  13.547  0.3339  0.1692  0.4416
18925TIP3    H178190   6.140   4.400  13.512  0.2109 -0.4398  1.8649
18925TIP3    H278191   6.144   4.494  13.630  1.7849  0.4257  1.1592
18926TIP3   OH278192   4.699   0.793  16.671  0.1322 -0.6549 -0.5671
18926TIP3    H178193   4.776   0.843  16.642  0.3385 -1.1563 -0.8995
18926TIP3    H278194   4.734   0.727  16.731 -0.0775 -0.6863 -0.4780
18927TIP3   OH278195   6.671   5.413   0.061 -0.4181  0.3084  0.1588
18927TIP3    H178196   6.713   5.397  -0.024 -0.7718  2.9022 -0.5945
18927TIP3    H278197   6.681   5.331   0.108  0.3339 -1.0398 -2.1609
18928TIP3   OH278198   2.308   0.321   1.088  0.5173  0.1988  0.3769
18928TIP3    H178199   2.240   0.384   1.067  0.5836 -0.5435 -2.4559
18928TIP3    H278200   2.321   0.330   1.183 -1.7260  2.0906  0.5882
18929TIP3   OH278201   5.807   2.157   5.490 -0.0971  0.0597 -0.4362
18929TIP3    H178202   5.828   2.084   5.548  0.7697  0.4028 -0.3061
18929TIP3    H278203   5.867   2.147   5.416  0.2267  0.8017 -0.2813
18930TIP3   OH278204   5.353   0.178   2.841  0.0520  0.4632 -0.1234
18930TIP3    H178205   5.416   0.219   2.900 -1.1172  1.3773  0.5204
18930TIP3    H278206   5.274   0.167   2.894 -1.8329  3.4150 -2.0361
18931TIP3   OH278207   2.662   3.911  15.126  0.9204 -0.0082  0.6086
18931TIP3    H178208   2.630   3.971  15.059 -0.2743 -0.9037  0.3510
18931TIP3    H278209   2.753   3.894  15.102  0.6123 -0.0152 -0.5787
18932TIP3   OH278210   1.954   6.390  16.433  0.2647  0.3200  0.2714
18932TIP3    H178211   2.047   6.388  16.455  0.2393  0.4585  0.3939
18932TIP3    H278212   1.952   6.412  16.340  0.3850 -0.6931  0.0160
18933TIP3   OH278213   1.198   4.186   5.785 -0.2375  0.2171  0.3187
18933TIP3    H178214   1.165   4.104   5.821  1.6985 -0.1894  1.3058
18933TIP3    H278215   1.235   4.232   5.861  1.6611  0.4960 -0.7139
18934TIP3   OH278216   5.610   1.878  11.214  0.4161  0.2508  0.0572
18934TIP3    H178217   5.702   1.889  11.187  1.3690  1.3179  3.2422
18934TIP3    H278218   5.568   1.959  11.186  0.5368 -0.0220 -0.9644
18935TIP3   OH278219   4.959   5.750   5.970  0.7021 -0.2830  0.0623
18935TIP3    H178220   4.999   5.664   5.960 -1.1737 -1.0691 -1.3602
18935TIP3    H278221   4.889   5.737   6.034  0.3206  0.1368 -0.2605
18936TIP3   OH278222   2.075   5.638   2.085 -0.0399  0.0357  0.0912
18936TIP3    H178223   2.166   5.607   2.087 -0.6156 -1.7451  1.0809
18936TIP3    H278224   2.034   5.589   2.014 -0.4094  0.2828  0.1285
18937TIP3   OH278225   5.744   2.871  13.109  0.4590  0.5975  0.1641
18937TIP3    H178226   5.839   2.867  13.095  0.5228  0.3103  0.6716
18937TIP3    H278227   5.718   2.781  13.129 -0.0673  0.5065 -0.8684
18938TIP3   OH278228   3.799   6.021  13.521  0.2336 -0.1882 -0.2371
18938TIP3    H178229   3.826   5.933  13.496 -1.4417 -0.9697  0.5356
18938TIP3    H278230   3.711   6.031  13.484 -0.1323  0.6429  0.7895
18939TIP3   OH278231   2.469   1.303  16.044  0.0569 -0.1198 -0.0194
18939TIP3    H178232   2.374   1.300  16.056  0.0673 -0.1436  0.0559
18939TIP3    H278233   2.505   1.282  16.130  0.1265  0.8932  0.2078
18940TIP3   OH278234   3.942   2.216   0.491 -0.5184 -0.0050 -0.0949
18940TIP3    H178235   3.951   2.131   0.447 -1.0435 -0.0697 -0.0855
18940TIP3    H278236   3.881   2.199   0.563 -0.2356  0.2686  0.2092
18941TIP3   OH278237   5.418   6.534   3.385  0.4065 -0.1652 -0.2759
18941TIP3    H178238   5.477   6.608   3.397  0.5954 -0.4493  0.5945
18941TIP3    H278239   5.351   6.546   3.453  1.2392 -1.5657  0.8232
18942TIP3   OH278240   2.357   0.065   0.683  0.2820  0.0439  0.3601
18942TIP3    H178241   2.375  -0.017   0.636 -3.2857  0.4727 -2.1261
18942TIP3    H278242   2.307   0.038   0.759  0.7821 -0.1944  0.6120
18943TIP3   OH278243   4.018   0.611  15.943 -0.2394 -0.1829  0.2101
18943TIP3    H178244   4.006   0.663  16.022 -2.8875 -0.2774 -0.0463
18943TIP3    H278245   3.982   0.666  15.873  0.9521 -0.5972 -0.7613
18944TIP3   OH278246   5.370   1.861  13.475  0.1756 -0.2499 -0.2263
18944TIP3    H178247   5.433   1.844  13.545  0.4534  0.7541 -0.2247
18944TIP3    H278248   5.424   1.873  13.397  0.1172  1.9572  0.0193
18945TIP3   OH278249   1.618   1.749   5.046  0.0151 -0.0362 -0.3867
18945TIP3    H178250   1.714   1.747   5.044  0.1529  1.3145  1.9148
18945TIP3    H278251   1.594   1.695   5.121 -1.1989 -1.8144 -1.9488
18946TIP3   OH278252   3.229   2.185  14.112 -0.0357  0.7669 -0.1094
18946TIP3    H178253   3.318   2.216  14.093 -0.0776  0.8271 -0.2061
18946TIP3    H278254   3.241   2.122  14.183 -0.0105  1.4509  0.5042
18947TIP3   OH278255   6.345   5.652   0.305  0.1735  0.2983  0.5170
18947TIP3    H178256   6.249   5.661   0.306 -0.2301 -2.4441  3.6383
18947TIP3    H278257   6.363   5.596   0.229 -0.9277 -0.5751  0.8734
18948TIP3   OH278258   3.211   1.956  15.071 -0.0733  0.1848 -0.4915
18948TIP3    H178259   3.280   1.933  15.133 -1.0810  0.5188  0.7745
18948TIP3    H278260   3.150   1.882  15.074 -0.7322  0.7331 -0.1874
18949TIP3   OH278261   3.544   0.823  15.005 -0.0514 -0.3433  0.2578
18949TIP3    H178262   3.505   0.902  15.042  1.3517  0.0681  0.9335
18949TIP3    H278263   3.501   0.812  14.920  0.8598  2.1033 -0.6040
18950TIP3   OH278264   3.056   3.945   2.493 -0.5262 -0.7576  0.2204
18950TIP3    H178265   3.063   3.868   2.549  1.0193 -0.7843  0.0480
18950TIP3    H278266   2.963   3.951   2.470 -1.8067  0.6785  4.7514
18951TIP3   OH278267   4.750   4.954   4.949  0.0447  0.3324 -0.5366
18951TIP3    H178268   4.746   4.914   5.035 -1.8250  3.7750  1.1959
18951TIP3    H278269   4.844   4.962   4.931  0.5199  0.5401  1.7280
18952TIP3   OH278270   0.967   1.373  16.604  0.4057 -0.1667 -0.5707
18952TIP3    H178271   0.900   1.312  16.572 -0.5981  0.9894 -0.7341
18952TIP3    H278272   1.035   1.316  16.639 -0.4408 -1.3945 -0.8315
18953TIP3   OH278273   4.158   2.040   1.601  0.3396 -0.0107 -0.2225
18953TIP3    H178274   4.187   2.124   1.635 -1.6022  1.0956 -1.1071
18953TIP3    H278275   4.177   2.043   1.507 -1.9330  0.5464 -0.7387
18954TIP3   OH278276   0.383   3.668  14.380  0.7080 -0.1548 -0.5532
18954TIP3    H178277   0.350   3.587  14.418  0.0780 -0.0381 -0.8511
18954TIP3    H278278   0.478   3.657  14.379  0.6218 -0.9199 -0.6573
18955TIP3   OH278279   2.067   3.961  12.295  0.1820  0.3777 -0.4100
18955TIP3    H178280   1.995   3.952  12.357  1.5125 -2.0029  0.9729
18955TIP3    H278281   2.095   3.870  12.278  2.3827  1.1698 -1.4173
18956TIP3   OH278282   5.339   0.536   2.804  0.0977  0.1579 -0.1573
18956TIP3    H178283   5.351   0.498   2.891  0.8466  2.0077  0.5891
18956TIP3    H278284   5.397   0.486   2.747  2.0611  0.9651  1.0432
18957TIP3   OH278285   3.267   6.545  13.247 -0.1845 -0.4098  0.1737
18957TIP3    H178286   3.236   6.590  13.169 -0.3338 -0.5769  0.1352
18957TIP3    H278287   3.335   6.486  13.216  0.3908  0.1747  0.3012
18958TIP3   OH278288   4.446   4.942   3.157 -1.1022  0.8832 -0.4717
18958TIP3    H178289   4.446   5.014   3.221 -0.3162  1.1416 -0.7509
18958TIP3    H278290   4.472   4.984   3.075  0.7437  0.0603 -0.3604
18959TIP3   OH278291   4.260   3.018   0.309  0.4036  0.3982  0.1222
18959TIP3    H178292   4.280   2.978   0.394 -0.9302  0.3306  0.4359
18959TIP3    H278293   4.274   3.112   0.323 -3.2444  0.9210  1.6386
18960TIP3   OH278294   4.990   2.382   3.015 -0.2083 -0.4598  0.1301
18960TIP3    H178295   4.921   2.447   3.012 -1.4422 -1.7492 -1.5684
18960TIP3    H278296   4.996   2.348   2.925  0.4979 -2.5189  0.8829
18961TIP3   OH278297   2.295   6.338  16.006 -0.3526 -0.5158  0.2950
18961TIP3    H178298   2.302   6.256  16.055 -0.2160 -0.4989  0.3054
18961TIP3    H278299   2.384   6.373  16.005 -0.5847  0.1378  1.1735
18962TIP3   OH278300   1.031   3.822   4.744 -0.6343  0.4024  0.0583
18962TIP3    H178301   1.110   3.789   4.701  0.4690  2.0937  0.7172
18962TIP3    H278302   0.980   3.862   4.673 -0.5803 -0.0775 -0.2565
18963TIP3   OH278303   3.869   3.248   2.360  0.7798  0.4312  0.0860
18963TIP3    H178304   3.863   3.301   2.281  1.2737 -0.2082 -0.3960
18963TIP3    H278305   3.846   3.159   2.331  2.8136 -0.1944  0.2243
18964TIP3   OH278306   4.317   6.079   2.418  0.0413 -0.2574 -0.1676
18964TIP3    H178307   4.412   6.084   2.433 -0.3855 -0.2598  3.3083
18964TIP3    H278308   4.298   6.154   2.362  1.9787  0.1832 -0.3161
18965TIP3   OH278309   4.490   0.891   3.567  0.3764 -0.0161 -0.4895
18965TIP3    H178310   4.484   0.798   3.590 -0.2051 -0.5124 -2.4817
18965TIP3    H278311   4.584   0.908   3.562  0.4936 -0.4025  0.1558
18966TIP3   OH278312   5.077   5.481  17.192 -0.4180  0.8303 -0.0534
18966TIP3    H178313   5.110   5.547  17.131 -0.6644  1.7188  0.7589
18966TIP3    H278314   4.981   5.491  17.187 -0.4754  0.2179 -0.2583
18967TIP3   OH278315   5.791   6.489  14.633 -0.7759 -0.2420  0.6047
18967TIP3    H178316   5.805   6.484  14.539  0.7183 -1.5948  0.8428
18967TIP3    H278317   5.751   6.574  14.648 -1.1537 -0.0647 -1.2602
18968TIP3   OH278318   4.972   0.275  14.142  0.0379 -0.8531  0.3068
18968TIP3    H178319   4.944   0.243  14.228  0.9016 -2.6701 -0.0340
18968TIP3    H278320   4.913   0.231  14.080 -0.4526  0.2896 -0.0539
18969TIP3   OH278321   1.964   0.726  10.901  0.0987  0.1866  0.2608
18969TIP3    H178322   1.939   0.797  10.841  1.5337  0.5193  0.0141
18969TIP3    H278323   1.881   0.690  10.931 -0.6626  1.4117 -0.2777
18970TIP3   OH278324   0.268   6.187  16.318  0.4869 -0.3515  1.0355
18970TIP3    H178325   0.318   6.176  16.399 -0.7330 -0.8008  1.7522
18970TIP3    H278326   0.185   6.142  16.335 -0.1310  0.3024 -0.1504
18971TIP3   OH278327   0.933   0.217  16.722 -0.6722  0.0532  0.2141
18971TIP3    H178328   0.981   0.148  16.766  0.2380 -0.6259 -1.7406
18971TIP3    H278329   0.990   0.294  16.726 -0.0155 -0.3607 -0.8550
18972TIP3   OH278330   4.891   0.167   5.396 -0.2136 -0.0907 -0.8327
18972TIP3    H178331   4.797   0.165   5.413 -0.3103 -0.4616 -1.3889
18972TIP3    H278332   4.919   0.077   5.408 -0.1049 -0.1670 -1.5999
18973TIP3   OH278333   5.566   0.057   0.308 -0.3993 -0.1733 -0.3895
18973TIP3    H178334   5.594   0.071   0.218  2.1124 -0.7381  0.2470
18973TIP3    H278335   5.614  -0.020   0.337 -1.0473  0.0843  1.4799
18974TIP3   OH278336   4.890   1.284   3.039  0.4504  0.5993  0.0856
18974TIP3    H178337   4.863   1.201   2.999  0.0094  0.2883  1.0091
18974TIP3    H278338   4.985   1.288   3.022  0.0997  1.0846 -2.0409
18975TIP3   OH278339   3.174   5.832   3.817  0.5669  0.1406 -0.1530
18975TIP3    H178340   3.244   5.868   3.762  1.4261 -1.0458  0.1330
18975TIP3    H278341   3.211   5.831   3.906  0.1608 -0.4059  0.0170
18976TIP3   OH278342   3.858   4.189  16.724 -0.2272 -0.2095 -0.3113
18976TIP3    H178343   3.927   4.233  16.773 -0.7658  0.2713  0.0279
18976TIP3    H278344   3.843   4.108  16.772 -1.0168  0.4315  0.5619
18977TIP3   OH278345   2.380   2.692   5.742  0.0339 -0.8398  0.2044
18977TIP3    H178346   2.354   2.710   5.652  1.5172  1.6976  0.1826
18977TIP3    H278347   2.416   2.603   5.739 -0.3300 -0.9750 -1.5923
18978TIP3   OH278348   6.240   2.038  13.645  0.6176 -0.1066  0.3623
18978TIP3    H178349   6.215   2.127  13.622 -0.4216 -0.5364 -0.2188
18978TIP3    H278350   6.289   2.006  13.569 -2.3638 -1.3447 -1.1618
18979TIP3   OH278351   5.715   6.457   5.017 -0.1267  0.0526  0.3530
18979TIP3    H178352   5.737   6.383   4.961  0.6371 -0.1574  0.9255
18979TIP3    H278353   5.725   6.425   5.106  1.5826  1.1934  0.6379
18980TIP3   OH278354   4.985   5.264  11.333 -0.1791  0.1992 -0.5940
18980TIP3    H178355   5.066   5.314  11.326 -0.4904  0.8975  0.5429
18980TIP3    H278356   4.951   5.284  11.420 -1.0061 -0.9642 -0.6150
18981TIP3   OH278357   2.405   1.830  11.562  0.0341 -0.2657 -0.0841
18981TIP3    H178358   2.482   1.811  11.615  0.8364 -0.0492 -1.1231
18981TIP3    H278359   2.439   1.835  11.472 -1.1378  0.1487 -0.5230
18982TIP3   OH278360   5.355   0.681   4.611  0.3680  0.3703  0.2640
18982TIP3    H178361   5.269   0.673   4.654  0.0221  0.5935 -0.3738
18982TIP3    H278362   5.337   0.664   4.519  1.1552 -0.3884  0.2455
18983TIP3   OH278363   1.381   2.529   0.008 -0.3956 -0.3132 -0.0191
18983TIP3    H178364   1.299   2.521   0.056 -1.4468  0.4576 -1.6342
18983TIP3    H278365   1.374   2.465  -0.063  1.1821 -1.5118  0.8400
18984TIP3   OH278366   4.588   1.842   1.617  0.0998 -0.2792  0.2650
18984TIP3    H178367   4.667   1.793   1.639 -0.1036 -1.1216 -0.7955
18984TIP3    H278368   4.610   1.933   1.635  0.8105 -0.6438  1.3598
18985TIP3   OH278369   1.055   0.839   3.717 -0.7429  0.1163 -0.2662
18985TIP3    H178370   1.100   0.787   3.784 -1.3177 -1.1782 -0.8515
18985TIP3    H278371   1.081   0.929   3.736  0.9879 -0.4475  0.2377
18986TIP3   OH278372   3.154   6.604   4.626 -0.6029  0.2954 -0.3017
18986TIP3    H178373   3.102   6.682   4.643 -0.2829  0.3545  0.4508
18986TIP3    H278374   3.227   6.610   4.688 -0.0279 -0.0878 -0.9348
18987TIP3   OH278375   5.170   1.947  13.284  0.1828 -0.0872  0.6814
18987TIP3    H178376   5.223   2.009  13.334 -0.1918 -0.3485  1.4063
18987TIP3    H278377   5.206   1.861  13.307 -2.3532 -0.5341  3.4589
18988TIP3   OH278378   2.170   1.645  13.838 -0.3622 -0.6089 -0.2231
18988TIP3    H178379   2.120   1.724  13.858  0.1492 -0.2621 -0.3046
18988TIP3    H278380   2.238   1.643  13.905 -0.3228 -0.9342 -0.2737
18989TIP3   OH278381   6.761   0.915  11.493  0.5341 -0.3107  0.7013
18989TIP3    H178382   6.838   0.932  11.439  0.7243 -1.6918  0.5100
18989TIP3    H278383   6.689   0.958  11.445  0.9808 -0.0377  0.2653
18990TIP3   OH278384   5.638   2.232  13.316 -0.5220  0.0913  0.0566
18990TIP3    H178385   5.696   2.211  13.243  0.3760  0.1481  0.7331
18990TIP3    H278386   5.638   2.327  13.319  1.3983  0.1128  1.5896
18991TIP3   OH278387   1.757   3.831  11.966 -0.4829 -0.1424  0.1781
18991TIP3    H178388   1.832   3.776  11.988 -0.2843  0.6338  1.5907
18991TIP3    H278389   1.713   3.847  12.050 -1.5627  0.3711 -0.4600
18992TIP3   OH278390   0.837   6.610  12.174 -0.4002 -0.2523  0.3731
18992TIP3    H178391   0.876   6.584  12.257 -0.1776  1.6463  0.9099
18992TIP3    H278392   0.811   6.701  12.187 -0.1933  0.1557 -1.7004
18993TIP3   OH278393   1.486   3.374  16.049 -0.2104  0.2168  0.1077
18993TIP3    H178394   1.445   3.307  16.104  0.0047  0.2211  0.2729
18993TIP3    H278395   1.495   3.450  16.106 -1.9337  0.9359 -0.5194
18994TIP3   OH278396   3.885   1.771  12.394 -0.0935 -0.1594 -0.6352
18994TIP3    H178397   3.871   1.693  12.339  2.3750 -0.6519 -0.6851
18994TIP3    H278398   3.926   1.834  12.334  0.7464  0.0374  0.1336
18995TIP3   OH278399   4.031   5.527   5.914  0.3205 -0.8958 -0.2331
18995TIP3    H178400   3.953   5.573   5.883 -1.4190 -2.4767  1.5217
18995TIP3    H278401   4.048   5.564   6.001  2.1489  0.0406 -0.9148
18996TIP3   OH278402   6.596   0.667   5.993 -0.1347  0.0731  0.1198
18996TIP3    H178403   6.669   0.617   6.029 -0.2473  0.7911  1.4218
18996TIP3    H278404   6.518   0.619   6.021 -0.2323  0.7839  1.0824
18997TIP3   OH278405   3.794   3.406   3.191  0.1915  0.0602  0.6219
18997TIP3    H178406   3.757   3.322   3.166  1.2997 -0.4575  0.6779
18997TIP3    H278407   3.817   3.395   3.283  2.4966 -0.3927  0.0399
18998TIP3   OH278408   6.455   1.842   0.229  0.0456 -0.2619 -0.4169
18998TIP3    H178409   6.403   1.890   0.164  2.0426  0.5058 -1.5076
18998TIP3    H278410   6.480   1.909   0.293  1.0753 -0.2703 -0.8014
18999TIP3   OH278411   2.206   5.522   3.271  0.0753  0.5316  0.2033
18999TIP3    H178412   2.166   5.485   3.193 -1.0505  1.2470  0.4216
18999TIP3    H278413   2.220   5.447   3.329 -0.4743  0.1951 -0.0906
19000TIP3   OH278414   5.800   2.409   2.168  0.0247 -0.5419  0.0088
19000TIP3    H178415   5.835   2.405   2.079  0.1063 -0.8333  0.0537
19000TIP3    H278416   5.793   2.503   2.186 -1.0486 -0.4537 -0.7221
19001TIP3   OH278417   4.341   3.930  15.112 -0.0652 -0.4165 -0.2174
19001TIP3    H178418   4.262   3.880  15.133  0.3916 -1.7124 -1.5078
19001TIP3    H278419   4.392   3.929  15.193 -0.9713 -0.2793  0.3724
19002TIP3   OH278420   4.902   3.434  13.263 -0.0608 -0.1234 -0.0168
19002TIP3    H178421   4.883   3.401  13.175 -0.4908  0.4924 -0.1630
19002TIP3    H278422   4.925   3.526  13.249 -1.2902  0.3010  0.6374
19003TIP3   OH278423   6.342   0.602   2.013  0.5676 -0.2839 -0.5043
19003TIP3    H178424   6.392   0.659   1.955 -0.7167 -0.0496 -1.4165
19003TIP3    H278425   6.287   0.662   2.064 -0.5806 -0.6495 -1.2661
19004TIP3   OH278426   4.865   0.725  12.014  0.4108  0.5468  0.5198
19004TIP3    H178427   4.877   0.800  11.956 -2.2923  2.1448  1.8164
19004TIP3    H278428   4.914   0.747  12.093 -0.6625  1.1880  1.0353
19005TIP3   OH278429   5.573   1.713   0.882 -0.0138 -0.5120 -0.3427
19005TIP3    H178430   5.501   1.777   0.882 -0.5688 -1.1186 -0.0229
19005TIP3    H278431   5.622   1.734   0.961 -0.9932 -1.3265  0.5160
19006TIP3   OH278432   6.379   3.814   4.580 -0.0869  0.3122  0.2390
19006TIP3    H178433   6.322   3.850   4.513 -1.2715 -1.8528 -0.0258
19006TIP3    H278434   6.465   3.853   4.563 -1.0893  2.3408 -0.4189
19007TIP3   OH278435   6.737   3.725   3.767 -0.2839 -0.3825  0.0410
19007TIP3    H178436   6.802   3.701   3.833  0.1164 -0.3082 -0.3264
19007TIP3    H278437   6.724   3.645   3.716 -1.4005 -0.7606  0.8757
19008TIP3   OH278438   5.487   6.427   0.050  0.4320 -0.5759 -0.4322
19008TIP3    H178439   5.509   6.515   0.019  1.9936 -0.5690  0.5641
19008TIP3    H278440   5.525   6.368  -0.015  1.9411 -0.5218  0.3370
19009TIP3   OH278441   3.080   0.822   3.514 -0.3893 -0.5654  0.2675
19009TIP3    H178442   3.153   0.785   3.565 -1.0143 -0.4477  1.2902
19009TIP3    H278443   3.053   0.750   3.457  1.6397 -0.0770 -1.4495
19010TIP3   OH278444   2.189   2.249   1.099 -0.0566  0.4692 -0.0131
19010TIP3    H178445   2.268   2.257   1.045  0.7249  0.5437  1.1250
19010TIP3    H278446   2.191   2.159   1.132 -0.7213  0.3144 -0.3812
19011TIP3   OH278447   4.436   2.925  14.404 -0.7089 -0.6080  0.0959
19011TIP3    H178448   4.490   2.962  14.334  0.7248  0.9854  1.9304
19011TIP3    H278449   4.347   2.927  14.369 -0.0084 -0.1698 -1.7853
19012TIP3   OH278450   0.241   0.816  13.830 -0.0377  0.0384 -0.2167
19012TIP3    H178451   0.317   0.759  13.835  1.7409  2.2611 -0.2309
19012TIP3    H278452   0.227   0.846  13.920 -1.4221 -0.9284 -0.0758
19013TIP3   OH278453   6.737   4.992   3.101 -0.4751  0.6553  0.1339
19013TIP3    H178454   6.808   4.961   3.158  0.4920  1.6653 -0.4719
19013TIP3    H278455   6.657   4.975   3.150  0.0009 -2.2929  0.0450
19014TIP3   OH278456   6.034   1.016  16.302  0.4400  0.7430  0.9746
19014TIP3    H178457   6.023   0.997  16.208  2.1547  1.4878  0.5939
19014TIP3    H278458   5.968   1.082  16.321  0.6766  1.2500  0.0705
19015TIP3   OH278459   3.282   1.742  15.686 -0.0477  0.1044  0.0026
19015TIP3    H178460   3.358   1.694  15.651 -1.7958 -1.8091 -1.3761
19015TIP3    H278461   3.311   1.833  15.689  1.6781 -0.2790 -2.3256
19016TIP3   OH278462   4.150   2.216   5.101  0.0747  0.2485 -0.8460
19016TIP3    H178463   4.152   2.165   5.020  1.1203  0.0297 -0.7019
19016TIP3    H278464   4.067   2.193   5.142  0.0445 -0.5178 -1.3130
19017TIP3   OH278465   5.310   1.998  12.153 -0.0419 -0.9798  0.1441
19017TIP3    H178466   5.289   1.926  12.094 -1.9688  0.1325 -0.6125
19017TIP3    H278467   5.396   2.029  12.123 -0.1615 -1.6068 -0.8971
19018TIP3   OH278468   3.860   3.880   3.429  0.6447  0.2080  0.6415
19018TIP3    H178469   3.825   3.963   3.460  0.8218  1.3483 -1.9704
19018TIP3    H278470   3.782   3.830   3.403  0.6728  0.7742 -0.5700
19019TIP3   OH278471   2.152   5.929   6.419  0.2773 -0.5303  0.1721
19019TIP3    H178472   2.145   5.843   6.378  2.9347 -0.2721 -0.9746
19019TIP3    H278473   2.061   5.954   6.437 -0.6400 -2.9289 -0.7692
19020TIP3   OH278474   5.700   2.813   2.615  0.4367  0.2325  0.1171
19020TIP3    H178475   5.680   2.876   2.546 -0.9457  0.6036  0.8147
19020TIP3    H278476   5.618   2.803   2.663  1.0681 -0.8635  1.0257
19021TIP3   OH278477   1.798   5.153   0.703 -0.8230 -0.4443  0.1899
19021TIP3    H178478   1.754   5.188   0.782 -0.1704  0.7363  0.0555
19021TIP3    H278479   1.788   5.223   0.638 -0.6839 -1.0981 -0.5417
19022TIP3   OH278480   3.919   1.839  16.634  0.2187  0.4815  0.4801
19022TIP3    H178481   3.969   1.920  16.641  1.9001 -0.5930  1.6126
19022TIP3    H278482   3.955   1.795  16.556 -1.0256  0.9907 -0.4265
19023TIP3   OH278483   6.022   4.395   2.585  0.5209 -0.0489  0.0363
19023TIP3    H178484   6.107   4.377   2.626  1.4396 -0.5696 -1.9615
19023TIP3    H278485   6.034   4.479   2.540 -1.3499  1.9851  2.9950
19024TIP3   OH278486   3.784   0.865   0.032 -0.0417  0.1781  0.2699
19024TIP3    H178487   3.740   0.877  -0.052  0.9906  0.2626 -0.2802
19024TIP3    H278488   3.713   0.858   0.096 -0.9006 -1.1097 -0.7548
19025TIP3   OH278489   6.576   3.108   2.270 -0.0822  0.1769  0.5329
19025TIP3    H178490   6.543   3.183   2.221 -1.5650 -0.7331  0.0657
19025TIP3    H278491   6.663   3.091   2.233 -0.1507  1.0374 -0.0390
19026TIP3   OH278492   2.974   1.353   3.432  0.7447  0.0688 -0.4664
19026TIP3    H178493   2.967   1.436   3.385 -0.4785  0.5341  0.4904
19026TIP3    H278494   3.033   1.373   3.506 -0.7951  0.5691  0.6833
19027TIP3   OH278495   3.496   3.035  11.140 -0.1170 -0.4783  0.0494
19027TIP3    H178496   3.460   3.110  11.093  0.0185 -0.3004  0.2282
19027TIP3    H278497   3.583   3.022  11.103  0.4831  0.4308  1.0868
19028TIP3   OH278498   0.036   6.359  12.427  0.3653  0.1065 -0.2200
19028TIP3    H178499  -0.030   6.370  12.359 -0.0376 -1.4862 -0.1147
19028TIP3    H278500   0.119   6.372  12.381  0.0664 -0.2064 -0.8734
19029TIP3   OH278501   1.358   0.974   0.263 -0.4114 -0.2587 -0.1948
19029TIP3    H178502   1.404   0.975   0.347  0.4113 -0.2674 -0.6323
19029TIP3    H278503   1.394   1.049   0.215  0.5655 -1.3541 -1.2674
19030TIP3   OH278504   5.700   3.479  13.954 -0.1622 -0.1388 -0.5157
19030TIP3    H178505   5.668   3.393  13.928 -0.5974  0.0147 -0.4832
19030TIP3    H278506   5.722   3.523  13.872  0.3024 -0.3694 -0.5215
19031TIP3   OH278507   5.575   3.849  12.092  0.1549  0.0041 -0.9000
19031TIP3    H178508   5.592   3.931  12.045 -0.5830  0.3888 -0.5245
19031TIP3    H278509   5.479   3.847  12.100  0.2889  0.5712  1.6466
19032TIP3   OH278510   4.541   6.102   4.903  0.3979  0.0136 -0.2017
19032TIP3    H178511   4.502   6.125   4.988  1.3118 -0.5963  0.3949
19032TIP3    H278512   4.497   6.160   4.840  0.1585  0.9151  0.7714
19033TIP3   OH278513   1.325   3.929  13.005  0.2097 -0.0303 -0.1996
19033TIP3    H178514   1.419   3.942  12.998  0.0305  1.1340 -0.8043
19033TIP3    H278515   1.299   3.978  13.083  0.1586 -0.7344  0.2344
19034TIP3   OH278516   6.476   4.850  12.904 -0.2753 -0.4570 -0.1304
19034TIP3    H178517   6.530   4.774  12.888 -1.0278 -1.0931  0.2810
19034TIP3    H278518   6.402   4.817  12.956  0.3002  0.8692  1.6301
19035TIP3   OH278519   2.404   1.494   1.170  0.1870 -0.5947 -0.3381
19035TIP3    H178520   2.338   1.522   1.234  0.3564 -0.5672 -0.1741
19035TIP3    H278521   2.391   1.552   1.096  0.2171 -0.3990 -0.1912
19036TIP3   OH278522   5.799   1.633  16.446  0.0185  0.0525  0.7461
19036TIP3    H178523   5.716   1.648  16.492 -0.7943 -0.7619 -0.3794
19036TIP3    H278524   5.841   1.718  16.443 -0.1934  0.2494  2.4209
19037TIP3   OH278525   0.173   3.782   5.448 -0.0313 -0.0601  0.7560
19037TIP3    H178526   0.200   3.697   5.414 -1.2663 -1.3369  2.7065
19037TIP3    H278527   0.254   3.829   5.463  0.6811 -0.8743 -0.3749
19038TIP3   OH278528   0.315   6.117   2.271  0.7549 -0.3049  0.0824
19038TIP3    H178529   0.278   6.045   2.321 -1.0674  0.2272 -0.4268
19038TIP3    H278530   0.408   6.116   2.294  0.5333 -1.9364  1.1331
19039TIP3   OH278531   0.703   6.387  16.912 -0.5049  0.3989  0.2777
19039TIP3    H178532   0.634   6.431  16.863 -0.4089 -1.1392 -1.3656
19039TIP3    H278533   0.664   6.304  16.940  1.2023 -1.6550 -2.7827
19040TIP3   OH278534   5.372   2.239   2.390  0.6809 -0.4619 -0.1410
19040TIP3    H178535   5.420   2.252   2.472  2.0365 -0.4890 -0.9071
19040TIP3    H278536   5.288   2.200   2.418  1.4144 -1.1865  1.1772
19041TIP3   OH278537   2.947   2.097  13.531  0.3337  0.1099 -0.2192
19041TIP3    H178538   2.931   2.176  13.581 -1.4095 -0.2441 -0.1508
19041TIP3    H278539   2.950   2.126  13.440 -1.6983  0.1147 -0.3190
19042TIP3   OH278540   2.776   0.486  12.981  0.6161  0.1483  0.1542
19042TIP3    H178541   2.704   0.550  12.982  0.8895  0.4614  0.9171
19042TIP3    H278542   2.834   0.515  13.052  2.5747  1.1135 -1.7233
19043TIP3   OH278543   4.916   3.927  11.754 -0.1339  0.0208 -0.0481
19043TIP3    H178544   4.908   3.865  11.682 -0.1997  0.5673 -0.5185
19043TIP3    H278545   4.905   4.013  11.714  0.7219  0.3928  0.4702
19044TIP3   OH278546   5.723   1.784  10.094  0.1449  0.2017  0.0619
19044TIP3    H178547   5.639   1.737  10.100  0.5970 -1.0595 -2.3804
19044TIP3    H278548   5.698   1.877  10.092 -1.0498 -0.0721  0.9303
19045TIP3   OH278549   1.417   5.723   5.769 -0.7531 -0.1170  0.3960
19045TIP3    H178550   1.392   5.745   5.679 -0.3740 -0.0482  0.3030
19045TIP3    H278551   1.337   5.732   5.820 -0.6556  1.3666  0.3452
19046TIP3   OH278552   6.132   4.440  13.833 -0.0401  0.1822 -0.2730
19046TIP3    H178553   6.192   4.379  13.875 -1.4040 -0.3451  0.9667
19046TIP3    H278554   6.045   4.404  13.848 -0.6925  0.5236 -2.6680
19047TIP3   OH278555   2.031   4.861  16.355  0.1532  0.0602 -0.1250
19047TIP3    H178556   1.983   4.927  16.405 -0.3290 -0.4250  0.0689
19047TIP3    H278557   2.122   4.888  16.361 -0.1409  1.3838 -1.0784
19048TIP3   OH278558   2.632   6.517   1.518 -0.0442 -0.0053  0.0425
19048TIP3    H178559   2.581   6.557   1.449 -1.3774 -0.1454  0.9105
19048TIP3    H278560   2.575   6.449   1.554  0.7450 -0.1598  1.0571
19049TIP3   OH278561   5.059   0.109  13.096  0.5655  0.1577 -0.2686
19049TIP3    H178562   5.033   0.045  13.029 -0.4646 -0.1448  0.4054
19049TIP3    H278563   5.096   0.182  13.046  1.1474 -0.6681 -1.0873
19050TIP3   OH278564   5.224   2.997   1.903  0.0447 -0.0223 -0.0876
19050TIP3    H178565   5.141   3.004   1.950 -0.7369  0.0960 -1.4116
19050TIP3    H278566   5.243   2.903   1.902 -0.5170 -0.1371 -0.4891
19051TIP3   OH278567   0.517   6.230   4.900  0.1523 -0.1412  0.8461
19051TIP3    H178568   0.545   6.315   4.933 -1.1454  1.5414 -1.9868
19051TIP3    H278569   0.591   6.197   4.850 -0.4045  0.9888 -0.8165
19052TIP3   OH278570   4.705   1.314  16.589 -0.2434 -0.2960 -0.1363
19052TIP3    H178571   4.633   1.356  16.541  1.1615 -0.4611 -2.5257
19052TIP3    H278572   4.784   1.345  16.545  1.1252 -0.9830  1.7218
19053TIP3   OH278573   3.286   2.087  12.672  0.1835  0.0771 -0.5105
19053TIP3    H178574   3.272   2.108  12.765  0.9216 -0.0160 -0.3724
19053TIP3    H278575   3.352   2.150  12.643 -0.9873  0.9735 -1.3343
19054TIP3   OH278576   1.260   3.137   1.040  0.0171 -0.2695 -0.5050
19054TIP3    H178577   1.302   3.052   1.023 -2.1186 -1.4073 -0.3984
19054TIP3    H278578   1.284   3.191   0.964  1.8017 -0.7618 -0.3439
19055TIP3   OH278579   4.921   4.694   5.716  0.0650 -0.0956  0.0801
19055TIP3    H178580   4.837   4.685   5.671  0.0465 -1.3616  0.3093
19055TIP3    H278581   4.985   4.661   5.653  0.4264  1.0799 -0.1788
19056TIP3   OH278582   2.523   6.446  16.155 -0.4558  0.2706 -0.0084
19056TIP3    H178583   2.515   6.542  16.154  0.0030  0.3560  1.5908
19056TIP3    H278584   2.514   6.422  16.247 -1.4983 -1.3328 -0.4918
19057TIP3   OH278585   1.176   0.425  12.095 -0.3622 -0.2681 -0.1513
19057TIP3    H178586   1.129   0.499  12.055 -0.0378 -1.1703 -2.3501
19057TIP3    H278587   1.266   0.435  12.065 -0.1708 -1.1698  0.1065
19058TIP3   OH278588   0.740   1.861  12.832 -0.1502 -0.2644 -0.2481
19058TIP3    H178589   0.751   1.798  12.761  2.1756  2.0492 -2.1696
19058TIP3    H278590   0.666   1.916  12.803 -0.7396 -0.7297  0.3375
19059TIP3   OH278591   4.233   0.059  16.938 -0.0501 -0.3573  0.3860
19059TIP3    H178592   4.202   0.139  16.896 -1.3277 -1.3244 -0.6129
19059TIP3    H278593   4.194  -0.011  16.886  1.7957 -1.6495  0.6588
19060TIP3   OH278594   5.561   0.056   1.552  0.5356  0.4706  0.7355
19060TIP3    H178595   5.635   0.110   1.524  2.1123 -1.3743  1.1555
19060TIP3    H278596   5.503   0.055   1.475  1.1220  1.5839  0.2391
19061TIP3   OH278597   1.256   3.329  16.582  0.2240 -0.1996  0.0758
19061TIP3    H178598   1.227   3.391  16.648  0.7369 -0.2534  0.3494
19061TIP3    H278599   1.345   3.306  16.607 -0.0226 -1.1950  0.0863
19062TIP3   OH278600   5.751   1.630  14.403  0.2529  0.2204 -0.5694
19062TIP3    H178601   5.776   1.628  14.495  1.3491 -0.6040 -0.8680
19062TIP3    H278602   5.658   1.654  14.404  0.4850  1.2094  0.6854
19063TIP3   OH278603   1.717   3.561  14.446 -0.1921 -0.2996  0.0601
19063TIP3    H178604   1.629   3.599  14.451 -0.6481 -1.3382  0.1690
19063TIP3    H278605   1.709   3.493  14.380  0.0448 -1.6398  1.3671
19064TIP3   OH278606   4.009   5.331  14.106  0.6236 -0.0366 -0.0554
19064TIP3    H178607   3.956   5.317  14.027 -2.7091 -0.5452  2.1000
19064TIP3    H278608   3.999   5.424  14.126  0.8471 -0.0630  0.1868
19065TIP3   OH278609   3.996   4.884  16.941 -0.0548  0.6484  0.5791
19065TIP3    H178610   4.082   4.904  16.904  0.2167 -0.0611  0.8032
19065TIP3    H278611   3.940   4.958  16.915  1.0609  2.0534  2.0091
19066TIP3   OH278612   6.270   6.413  15.319 -0.3363 -0.7290  0.0983
19066TIP3    H178613   6.318   6.332  15.334 -0.0892 -0.3426  1.4997
19066TIP3    H278614   6.311   6.451  15.241  1.1259 -0.7838  0.8156
19067TIP3   OH278615   1.200   3.542  15.102  0.1678  0.0074 -0.2725
19067TIP3    H178616   1.192   3.597  15.024 -1.9594 -0.0792 -0.1837
19067TIP3    H278617   1.161   3.594  15.172 -0.3112 -0.9236  0.1750
19068TIP3   OH278618   0.516   6.529   0.612 -0.0542  0.2820 -0.1955
19068TIP3    H178619   0.490   6.608   0.564 -0.3028 -0.3495 -1.1271
19068TIP3    H278620   0.598   6.553   0.654 -1.1132  1.6783  1.1822
19069TIP3   OH278621   4.324   0.881  12.668 -0.5651  0.3886  0.1161
19069TIP3    H178622   4.329   0.810  12.732  1.0802  0.1832 -0.1933
19069TIP3    H278623   4.405   0.930  12.681 -0.4062  0.6053 -1.4898
19070TIP3   OH278624   2.971   1.443  15.361  0.1542 -0.3882  0.3789
19070TIP3    H178625   2.994   1.475  15.274 -1.2120  0.1912  0.2130
19070TIP3    H278626   3.017   1.359  15.369  1.2117  0.1050 -0.4355
19071TIP3   OH278627   1.955   3.054  12.162 -0.6342 -0.1825 -0.4551
19071TIP3    H178628   1.938   2.967  12.127  0.5846  0.0393 -1.7103
19071TIP3    H278629   2.033   3.043  12.217  0.6790  0.3917 -2.1044
19072TIP3   OH278630   6.764   6.730  12.149  0.1859  0.0917 -0.7018
19072TIP3    H178631   6.748   6.790  12.077  2.2186  0.4861 -0.8715
19072TIP3    H278632   6.831   6.773  12.202  1.5080 -1.8814 -0.6805
19073TIP3   OH278633   5.370   3.601   3.806  0.2316  0.7328 -0.3258
19073TIP3    H178634   5.455   3.625   3.770  0.4914  1.8283  0.9807
19073TIP3    H278635   5.312   3.599   3.730  1.6457 -1.3482 -1.4565
19074TIP3   OH278636   4.868   2.724  13.880  0.4746 -0.0752  0.0789
19074TIP3    H178637   4.828   2.806  13.910 -1.0218 -1.1674  1.2356
19074TIP3    H278638   4.893   2.742  13.789  0.7429  1.8382  0.4942
19075TIP3   OH278639   6.176   4.776   4.520 -0.2886 -0.1868 -0.3059
19075TIP3    H178640   6.253   4.774   4.464  0.1187 -0.2449  0.2438
19075TIP3    H278641   6.119   4.708   4.485 -0.5379  0.5190 -1.3254
19076TIP3   OH278642   3.480   0.398  12.559  0.0684 -0.0271  0.1196
19076TIP3    H178643   3.482   0.395  12.654  1.4424  0.1367  0.1131
19076TIP3    H278644   3.545   0.333  12.531  0.4556  0.6858 -0.6862
19077TIP3   OH278645   1.280   3.961   4.149  0.1997 -0.2214 -0.0700
19077TIP3    H178646   1.308   3.952   4.057  0.0449  0.3477 -0.1780
19077TIP3    H278647   1.307   3.879   4.190 -0.2368 -0.7233 -0.7544
19078TIP3   OH278648   3.111   6.462   6.896  0.2283  0.1345  0.4602
19078TIP3    H178649   3.031   6.446   6.946 -0.0396 -0.9531 -0.2854
19078TIP3    H278650   3.084   6.516   6.822  0.1891 -0.1895  0.2366
19079TIP3   OH278651   6.778   1.528  11.357 -0.6335 -0.2799 -0.5972
19079TIP3    H178652   6.871   1.549  11.357 -0.3052 -1.6010  0.1000
19079TIP3    H278653   6.758   1.505  11.266 -0.7163  1.6495 -1.1148
19080TIP3   OH278654   0.371   2.062  11.713 -0.6144 -0.5861 -0.0081
19080TIP3    H178655   0.382   1.968  11.700  0.0098 -0.3583 -1.2633
19080TIP3    H278656   0.295   2.069  11.771 -0.3820 -1.8657  0.4960
19081TIP3   OH278657   3.424   1.675   3.101 -0.2741  0.0867 -0.0035
19081TIP3    H178658   3.405   1.695   3.192 -1.8059  0.8316 -0.4544
19081TIP3    H278659   3.450   1.583   3.101  0.1408  0.1976  1.2249
19082TIP3   OH278660   2.906   4.646  13.476 -0.1030 -0.4132  0.5363
19082TIP3    H178661   2.929   4.625  13.385 -2.3564 -0.6644 -0.0577
19082TIP3    H278662   2.987   4.634  13.525  2.0196  2.5579 -1.8320
19083TIP3   OH278663   2.561   2.544   2.817  0.1344 -0.3938 -0.2918
19083TIP3    H178664   2.631   2.541   2.752  0.3252  0.8842 -0.1728
19083TIP3    H278665   2.548   2.638   2.833 -1.9495 -0.5690 -0.6959
19084TIP3   OH278666   0.393   0.960  13.666  0.3571  0.6227  0.8098
19084TIP3    H178667   0.350   0.940  13.749 -0.1345 -0.0635  0.4029
19084TIP3    H278668   0.345   0.908  13.602  1.4985  0.2194  0.2705
19085TIP3   OH278669   3.360   2.428  13.337 -0.3571  0.0536 -0.3047
19085TIP3    H178670   3.312   2.392  13.411 -2.4409  0.2470 -1.4915
19085TIP3    H278671   3.374   2.520  13.360 -0.8208  0.0664 -0.0610
19086TIP3   OH278672   0.503   0.030   4.361 -0.1594  0.2062  0.5898
19086TIP3    H178673   0.480  -0.032   4.292 -1.3933  0.3549  0.8466
19086TIP3    H278674   0.591   0.004   4.389  0.4456  0.2704 -1.1628
19087TIP3   OH278675   5.605   0.456  16.015 -0.1542  0.2766 -0.5243
19087TIP3    H178676   5.516   0.429  16.036  0.1410 -0.5531 -0.3025
19087TIP3    H278677   5.649   0.466  16.099  0.2935 -0.4860 -0.6599
19088TIP3   OH278678   2.472   5.584   4.625 -1.0273 -0.1191 -0.6662
19088TIP3    H178679   2.501   5.673   4.646 -1.4405 -0.0500 -0.3869
19088TIP3    H278680   2.519   5.529   4.688  1.5015 -0.4226 -2.6827
19089TIP3   OH278681   1.528   2.859   4.155 -0.2048  0.2414  0.4260
19089TIP3    H178682   1.473   2.819   4.088 -2.7310 -2.5202  3.7899
19089TIP3    H278683   1.475   2.930   4.190  2.0167  3.2058 -1.7553
19090TIP3   OH278684   2.406   4.312   4.526 -0.1169 -0.5306 -0.2992
19090TIP3    H178685   2.357   4.373   4.471  1.4648 -0.2790 -1.5231
19090TIP3    H278686   2.487   4.358   4.546  0.0251 -1.2644  0.9271
19091TIP3   OH278687   4.417   1.642   4.234  0.0561 -0.4233  0.1395
19091TIP3    H178688   4.485   1.578   4.213 -0.6085 -0.7585 -1.1045
19091TIP3    H278689   4.337   1.606   4.194 -0.8524 -0.0074  1.4986
19092TIP3   OH278690   3.067   0.232   0.868 -0.2883  0.0993  0.4580
19092TIP3    H178691   2.997   0.206   0.808  1.5395  1.2409 -2.3777
19092TIP3    H278692   3.122   0.154   0.877 -0.4022  0.0086  0.3545
19093TIP3   OH278693   6.078   3.010  11.777 -0.2728 -0.2409 -0.7481
19093TIP3    H178694   6.037   2.927  11.753 -0.9066 -0.2224  0.2017
19093TIP3    H278695   6.133   3.033  11.702  1.2041 -2.3376 -0.3849
19094TIP3   OH278696   6.355   4.815  16.815  0.4006  0.0237  0.5032
19094TIP3    H178697   6.380   4.813  16.907  2.0333  2.7331  0.2290
19094TIP3    H278698   6.423   4.867  16.772 -2.0980  1.8749 -1.5835
19095TIP3   OH278699   1.688   0.337   0.666 -0.3438  0.3947  0.0670
19095TIP3    H178700   1.715   0.412   0.719  0.4663  0.2255 -0.0953
19095TIP3    H278701   1.732   0.262   0.707 -0.6873  0.0867 -0.1169
19096TIP3   OH278702   0.686   1.614  13.600  0.6460  0.2128 -0.3473
19096TIP3    H178703   0.719   1.667  13.672 -0.0728 -0.0384  0.1827
19096TIP3    H278704   0.591   1.615  13.611  0.5513 -0.1654 -1.0567
19097TIP3   OH278705   2.913   2.405   0.990  0.4759  0.3040  0.0313
19097TIP3    H178706   2.856   2.375   1.061  0.7125  2.2867  1.1535
19097TIP3    H278707   2.931   2.497   1.011  1.0838  0.7963 -2.2726
19098TIP3   OH278708   3.806   2.807   5.927 -0.1786  0.2089  0.0352
19098TIP3    H178709   3.764   2.880   5.974 -1.1327  1.3947 -2.4586
19098TIP3    H278710   3.887   2.844   5.893  1.2054 -1.0463  1.8304
19099TIP3   OH278711   1.405   1.783  15.326 -0.5239  0.3044  0.0495
19099TIP3    H178712   1.485   1.758  15.280 -1.6261  0.7812 -2.2639
19099TIP3    H278713   1.426   1.868  15.366  0.5966 -0.3187  0.8324
19100TIP3   OH278714   0.099   6.606   6.835  0.5313 -0.2461  0.2734
19100TIP3    H178715   0.028   6.569   6.887  1.1793 -1.8785  0.0748
19100TIP3    H278716   0.169   6.541   6.841  2.2827  1.5988  1.0231
19101TIP3   OH278717   3.937   6.210  16.363  0.0125 -0.4216  0.1029
19101TIP3    H178718   4.031   6.225  16.374 -0.0155 -0.5017  0.4389
19101TIP3    H278719   3.908   6.283  16.307 -0.0544  0.5925  1.4240
19102TIP3   OH278720   4.400   4.492   5.854 -0.0611 -0.0390  0.9665
19102TIP3    H178721   4.485   4.450   5.870  0.4872  0.8272  0.3905
19102TIP3    H278722   4.375   4.530   5.938  0.1970 -0.1594  1.0974
19103TIP3   OH278723   2.403   0.238   2.495 -0.1279  0.3113 -0.3166
19103TIP3    H178724   2.366   0.311   2.445 -2.4027 -1.5992 -1.5992
19103TIP3    H278725   2.332   0.210   2.553 -0.0365 -2.1063 -1.2720
19104TIP3   OH278726   1.859   4.094  16.241  0.1786 -0.3967  0.2697
19104TIP3    H178727   1.874   4.126  16.330 -2.1402  0.3398  0.4455
19104TIP3    H278728   1.812   4.165  16.197 -0.5196 -1.5435 -0.9105
19105TIP3   OH278729   6.217   4.114  13.096 -0.0016 -0.2911 -0.0748
19105TIP3    H178730   6.313   4.117  13.089 -0.0455 -1.8914 -2.5525
19105TIP3    H278731   6.200   4.038  13.152  0.1598 -0.1704  0.1424
19106TIP3   OH278732   0.163   1.285  15.908 -0.3587  0.3707  0.0106
19106TIP3    H178733   0.151   1.294  16.002  0.4774  1.0348  0.0725
19106TIP3    H278734   0.203   1.368  15.881 -0.5920  0.1914 -0.9295
19107TIP3   OH278735   2.446   0.564   1.967 -0.6679  0.0686 -0.4187
19107TIP3    H178736   2.356   0.545   1.942 -0.2069 -0.7771 -1.5195
19107TIP3    H278737   2.462   0.652   1.933 -0.5999 -0.3975 -1.6383
19108TIP3   OH278738   5.977   2.064   5.286  0.4475  0.7042  0.6487
19108TIP3    H178739   6.047   2.006   5.316 -0.5827 -1.4287 -0.8361
19108TIP3    H278740   6.018   2.120   5.220  0.7901 -0.4747 -0.1552
19109TIP3   OH278741   4.556   2.927  12.307  0.5657 -0.3534  0.1362
19109TIP3    H178742   4.545   2.994  12.374 -0.4400 -0.0982 -0.2739
19109TIP3    H278743   4.581   2.975  12.229  1.0459 -0.5824  0.1459
19110TIP3   OH278744   3.171   3.277  16.663  0.6842  0.2134  0.4521
19110TIP3    H178745   3.121   3.212  16.613  0.0188 -0.1138  1.4899
19110TIP3    H278746   3.178   3.239  16.751  1.7276  0.8095  0.6436
19111TIP3   OH278747   0.746   0.270   4.038 -0.0339  0.3404 -0.0674
19111TIP3    H178748   0.814   0.312   4.090 -0.6817  0.7156  0.4877
19111TIP3    H278749   0.782   0.183   4.017  0.0167 -0.0432  1.4867
19112TIP3   OH278750   0.075   1.339  11.588 -0.1965 -0.1670  0.5772
19112TIP3    H178751   0.054   1.367  11.498  1.1054  1.1448  0.6397
19112TIP3    H278752   0.032   1.405  11.643  1.7772  1.0368  0.7739
19113TIP3   OH278753   6.438   6.598   4.992 -0.2697 -0.3683  0.1197
19113TIP3    H178754   6.477   6.630   5.074 -0.8442  1.4907 -0.2858
19113TIP3    H278755   6.343   6.600   5.009 -0.3738 -0.3821 -0.4657
19114TIP3   OH278756   5.355   5.500   2.907  0.2370  0.0123 -0.2748
19114TIP3    H178757   5.409   5.567   2.866  2.2970 -2.1097 -1.2382
19114TIP3    H278758   5.316   5.452   2.833  0.1081 -0.8425  0.3250
19115TIP3   OH278759   4.600   5.735   5.507  0.1448 -0.1045 -0.1758
19115TIP3    H178760   4.635   5.754   5.420  3.2120  0.3239  1.0318
19115TIP3    H278761   4.627   5.810   5.561  0.9402 -1.6823  1.7554
19116TIP3   OH278762   0.752   5.000   2.360  0.0317 -0.0251  0.3881
19116TIP3    H178763   0.794   4.967   2.281  0.8097 -0.6900  1.0625
19116TIP3    H278764   0.795   4.953   2.432 -1.0002  0.1989  1.1781
19117TIP3   OH278765   0.084   1.919  13.382  0.4039  0.2580  0.5989
19117TIP3    H178766   0.117   1.830  13.372  0.6644  0.5162 -1.1717
19117TIP3    H278767   0.145   1.960  13.444  1.7722 -0.1077 -0.4582
19118TIP3   OH278768   1.342   4.511  10.679 -0.0144 -0.7264 -0.3907
19118TIP3    H178769   1.306   4.463  10.604  2.0155 -2.1295 -0.5572
19118TIP3    H278770   1.415   4.561  10.643  0.5452 -0.8604  0.5159
19119TIP3   OH278771   4.169   3.326   0.219 -0.2122 -0.3855 -0.3998
19119TIP3    H178772   4.143   3.369   0.137  0.0112  3.2041  1.2510
19119TIP3    H278773   4.091   3.279   0.247 -0.8639 -0.1522 -1.7206
19120TIP3   OH278774   2.366   6.617  15.042  0.0919  0.4213 -0.0218
19120TIP3    H178775   2.409   6.669  14.975  0.0447  1.8395  0.9912
19120TIP3    H278776   2.430   6.550  15.066  0.2206  0.0995 -1.2312
19121TIP3   OH278777   4.172   2.850   0.592  0.0641 -0.8158  0.4911
19121TIP3    H178778   4.188   2.818   0.681 -0.1993  1.5556  1.4696
19121TIP3    H278779   4.176   2.946   0.600 -2.5421 -0.4357 -1.5472
19122TIP3   OH278780   4.961   4.579   3.238 -0.6057  0.1613  0.2670
19122TIP3    H178781   4.935   4.646   3.302  0.1400  0.8819 -0.1626
19122TIP3    H278782   5.054   4.565   3.254 -0.8847 -1.2730  0.7783
19123TIP3   OH278783   6.411   3.437  11.121  0.6375 -0.0866  0.2013
19123TIP3    H178784   6.355   3.480  11.185  0.3283  3.6700 -2.2729
19123TIP3    H278785   6.494   3.423  11.167  0.4132  2.3842  1.5232
19124TIP3   OH278786   0.856   1.880   1.920  0.3638  0.1956 -0.4147
19124TIP3    H178787   0.881   1.930   1.842 -0.6746 -0.5474 -1.2401
19124TIP3    H278788   0.764   1.901   1.933  0.6162  0.6130  0.8664
19125TIP3   OH278789   0.930   0.997  10.518 -0.4745  0.2964  0.4580
19125TIP3    H178790   0.835   0.987  10.522 -0.4406 -0.7860 -0.7443
19125TIP3    H278791   0.960   0.981  10.607 -1.3268 -0.6003  0.5949
19126TIP3   OH278792   4.847   4.293   2.461  0.0994 -0.0959  0.2599
19126TIP3    H178793   4.852   4.347   2.382 -0.0228  0.7790  0.8461
19126TIP3    H278794   4.762   4.249   2.455  0.0059  0.1184  0.0060
19127TIP3   OH278795   2.373   4.480  14.224 -0.1115  0.0654 -0.2399
19127TIP3    H178796   2.390   4.386  14.230  1.6578  0.3578 -0.1446
19127TIP3    H278797   2.440   4.520  14.281 -2.3139  1.2844  1.6720
19128TIP3   OH278798   4.130   5.497   3.945 -0.6006  0.3704  0.2185
19128TIP3    H178799   4.100   5.494   3.854 -0.3361  0.0537  0.1379
19128TIP3    H278800   4.123   5.589   3.970 -0.2751  0.5311 -0.2592
19129TIP3   OH278801   2.635   4.952   2.833  0.3611  0.3871 -0.3603
19129TIP3    H178802   2.639   4.906   2.917  0.5473  0.7818 -0.1543
19129TIP3    H278803   2.721   4.992   2.823  0.4018  0.1885 -0.8267
19130TIP3   OH278804   4.623   2.261   1.894  0.2221 -1.0678 -0.2496
19130TIP3    H178805   4.629   2.177   1.848  0.5028 -1.5882  0.6949
19130TIP3    H278806   4.685   2.318   1.848  0.8262 -1.7099 -0.2568
19131TIP3   OH278807   0.140   3.666   2.435 -0.5069 -0.2311  0.0164
19131TIP3    H178808   0.139   3.671   2.339 -0.6233 -2.5830 -0.1545
19131TIP3    H278809   0.059   3.621   2.458 -0.4889  0.3176  1.2490
19132TIP3   OH278810   0.957   6.064  16.243 -0.0178 -0.4004  0.3259
19132TIP3    H178811   0.936   6.076  16.336  0.1379 -0.9958  0.4376
19132TIP3    H278812   1.039   6.015  16.244 -1.0982 -2.3156 -0.1249
19133TIP3   OH278813   1.570   3.126  15.071  0.0016  0.0193 -0.0288
19133TIP3    H178814   1.584   3.111  14.977  0.2681  2.1285 -0.3678
19133TIP3    H278815   1.630   3.197  15.092 -2.6826  2.1480  0.8853
19134TIP3   OH278816   4.721   6.743   5.653  0.2218 -0.6809  0.9141
19134TIP3    H178817   4.773   6.664   5.670  2.4503  0.9860  2.4939
19134TIP3    H278818   4.735   6.797   5.730 -2.1782  0.8327  0.3851
19135TIP3   OH278819   4.185   2.316  16.447  0.3909 -0.2675  0.0573
19135TIP3    H178820   4.104   2.368  16.445  0.5159 -0.0331 -2.4961
19135TIP3    H278821   4.251   2.376  16.481 -0.0961  0.1967  0.2025
19136TIP3   OH278822   3.685   0.864  12.445 -0.0644  0.5430 -0.0747
19136TIP3    H178823   3.620   0.799  12.469 -0.3839  0.8623 -0.0589
19136TIP3    H278824   3.721   0.894  12.528 -0.7516  1.2245 -0.0125
19137TIP3   OH278825   1.297   2.882   0.963 -0.0100  0.2915 -0.6792
19137TIP3    H178826   1.291   2.802   1.014 -1.5507  0.1409 -1.0473
19137TIP3    H278827   1.342   2.856   0.883 -0.5306 -0.2216 -0.8102
19138TIP3   OH278828   6.523   4.060  16.753 -0.5026 -0.2977 -0.1132
19138TIP3    H178829   6.533   4.140  16.702 -0.0659  0.3617  0.9724
19138TIP3    H278830   6.595   4.004  16.723  0.0301  0.2627  0.0841
19139TIP3   OH278831   1.632   1.634   0.729 -0.1610 -0.3991 -0.1756
19139TIP3    H178832   1.538   1.637   0.745  0.0214 -1.4658  1.2451
19139TIP3    H278833   1.669   1.590   0.805  1.3993 -0.8503 -1.1354
19140TIP3   OH278834   6.133   5.554   2.723  0.5282  0.3895  0.4737
19140TIP3    H178835   6.207   5.499   2.752  1.5387  2.2079  1.5083
19140TIP3    H278836   6.162   5.643   2.739 -2.1040  1.1658  1.3958
19141TIP3   OH278837   4.113   1.037  10.674 -0.3160  0.0965  0.1580
19141TIP3    H178838   4.070   0.971  10.619  0.6128 -0.9252  0.6192
19141TIP3    H278839   4.133   0.991  10.756  1.9208  0.3939 -0.1419
19142TIP3   OH278840   5.085   2.506   4.008  0.1409 -0.5666  0.7047
19142TIP3    H178841   5.147   2.451   4.055  0.2550 -0.0611  1.1482
19142TIP3    H278842   5.041   2.556   4.076 -1.0656 -1.2185  0.4401
19143TIP3   OH278843   4.081   3.472   3.020  0.0124 -0.2488  0.1329
19143TIP3    H178844   4.106   3.439   3.106  2.5046 -1.8532 -1.1068
19143TIP3    H278845   4.041   3.398   2.976 -0.3122  0.2667 -0.4582
19144TIP3   OH278846   2.219   5.535   4.058 -0.3872 -0.2248 -0.0466
19144TIP3    H178847   2.308   5.515   4.027 -0.4376  0.1638 -0.4454
19144TIP3    H278848   2.219   5.630   4.070 -0.7009 -0.2463  0.1215
19145TIP3   OH278849   4.504   3.190   1.734  0.4925 -0.0115 -0.6190
19145TIP3    H178850   4.502   3.285   1.741  1.6016 -0.0127  0.0268
19145TIP3    H278851   4.578   3.172   1.675 -1.2525 -0.4207 -2.8262
19146TIP3   OH278852   1.385   2.845  15.991 -0.1323  0.0028  0.0335
19146TIP3    H178853   1.401   2.803  16.075  0.1652  2.1763  1.1375
19146TIP3    H278854   1.472   2.866  15.957 -0.2588 -0.5893 -0.6845
19147TIP3   OH278855   0.946   5.519   3.394 -0.2700 -0.4778 -0.0567
19147TIP3    H178856   1.003   5.444   3.410 -0.9894 -1.0514 -0.1830
19147TIP3    H278857   0.985   5.590   3.447 -1.0821 -1.6243  2.2200
19148TIP3   OH278858   6.378   2.514   2.285 -0.4535 -0.0621 -0.1602
19148TIP3    H178859   6.283   2.522   2.298 -0.9017 -0.9355 -2.4412
19148TIP3    H278860   6.389   2.428   2.245  1.3326  0.0006  0.1398
19149TIP3   OH278861   1.909   5.559   2.604  0.5275 -0.4225 -0.6137
19149TIP3    H178862   1.949   5.571   2.518  0.2135  3.9679 -0.3598
19149TIP3    H278863   1.834   5.620   2.604  0.1474 -0.7284  2.5475
19150TIP3   OH278864   5.898   1.988   4.399  0.3557  0.2166 -0.4123
19150TIP3    H178865   5.932   1.919   4.342  1.9239  0.5875  0.0515
19150TIP3    H278866   5.972   2.046   4.415  0.0002  0.1391  1.9858
19151TIP3   OH278867   4.077   1.473  16.204 -0.0060  0.3575  0.2580
19151TIP3    H178868   4.089   1.416  16.281  0.3937 -0.1959 -0.2024
19151TIP3    H278869   4.166   1.485  16.170 -0.1432  0.9026  0.0915
19152TIP3   OH278870   2.225   6.114   6.614  0.3606  0.1204 -0.7299
19152TIP3    H178871   2.185   6.200   6.606 -1.8493 -0.6172  1.3501
19152TIP3    H278872   2.193   6.066   6.537 -1.5785  0.0254  0.0972
19153TIP3   OH278873   0.494   4.701   3.075 -0.0164 -0.2535  0.2513
19153TIP3    H178874   0.453   4.751   3.004 -1.6074  0.7067  1.7611
19153TIP3    H278875   0.582   4.738   3.082 -1.2307  2.7068  1.5182
19154TIP3   OH278876   3.447   3.694  12.875  0.3339 -0.0524 -0.1021
19154TIP3    H178877   3.516   3.727  12.817  0.2824 -2.0542 -1.3980
19154TIP3    H278878   3.490   3.682  12.959  1.1567  0.2362 -0.4680
19155TIP3   OH278879   6.322   0.713  12.236 -0.5206 -0.2858  0.2700
19155TIP3    H178880   6.247   0.701  12.295 -1.0953 -1.1088 -0.5918
19155TIP3    H278881   6.355   0.801  12.257 -0.4497 -0.6900  2.0711
19156TIP3   OH278882   5.508   4.052   0.734 -0.3819  0.6892  0.8320
19156TIP3    H178883   5.506   4.041   0.830 -1.2159 -0.9129  0.6680
19156TIP3    H278884   5.598   4.029   0.710 -0.0971  1.3425  1.2443
19157TIP3   OH278885   2.716   5.495  12.792 -0.0519  0.4359  0.0612
19157TIP3    H178886   2.692   5.408  12.823  0.1544 -0.8202 -2.9452
19157TIP3    H278887   2.810   5.490  12.776  0.0670  1.4158  0.3610
19158TIP3   OH278888   0.158   3.063   4.724  0.3772  0.8806  0.4796
19158TIP3    H178889   0.199   2.980   4.748 -1.9949 -0.1982  1.0513
19158TIP3    H278890   0.170   3.068   4.629  0.2396 -0.3135  0.3799
19159TIP3   OH278891   6.273   1.995  11.230 -0.1120 -0.2563 -0.2227
19159TIP3    H178892   6.259   1.998  11.135  0.9745 -0.4162 -0.4028
19159TIP3    H278893   6.298   1.904  11.248  0.4261 -0.0474  0.1012
19160TIP3   OH278894   2.826   4.919  11.065 -0.0087  0.4893 -0.1311
19160TIP3    H178895   2.824   4.938  11.159 -1.9008  0.3325 -0.1055
19160TIP3    H278896   2.877   4.991  11.027 -0.1289  1.1350  0.8944
19161TIP3   OH278897   2.827   2.576   3.251  0.8480  0.2413 -0.3297
19161TIP3    H178898   2.784   2.503   3.206  1.6188 -0.8893  0.7189
19161TIP3    H278899   2.864   2.538   3.331  1.1285  1.8131  0.3433
19162TIP3   OH278900   1.053   2.399   3.865 -0.2431  0.1892 -0.1420
19162TIP3    H178901   1.004   2.422   3.944  0.5449 -0.0094  0.4100
19162TIP3    H278902   1.003   2.440   3.794 -1.0618  0.2142  0.4300
19163TIP3   OH278903   3.400   6.554   5.509 -0.0092  0.1855 -0.2021
19163TIP3    H178904   3.457   6.599   5.572 -0.4337  0.1540  0.2091
19163TIP3    H278905   3.434   6.465   5.505 -0.2179  0.0806  0.2829
19164TIP3   OH278906   6.649   3.209   6.538  0.4185  0.1707  0.3436
19164TIP3    H178907   6.651   3.136   6.600  0.2588  1.0832  1.4578
19164TIP3    H278908   6.588   3.180   6.470  0.6460 -0.8820  0.5591
19165TIP3   OH278909   5.954   3.289   1.841  0.4951  0.0368  0.5598
19165TIP3    H178910   5.953   3.299   1.746 -0.7249  3.5063  0.7850
19165TIP3    H278911   6.033   3.240   1.860  1.5255  0.4957 -2.1649
19166TIP3   OH278912   0.333   3.836  14.599 -1.0243  0.4540 -0.2924
19166TIP3    H178913   0.342   3.790  14.516 -0.2915  1.1884 -0.6405
19166TIP3    H278914   0.417   3.822  14.644 -1.1984  0.5467  0.0666
19167TIP3   OH278915   1.485   1.240  16.852 -0.5106 -0.4951  0.2408
19167TIP3    H178916   1.508   1.148  16.845  0.0735 -0.2776 -1.1147
19167TIP3    H278917   1.501   1.262  16.944 -2.0527 -2.0634  0.9366
19168TIP3   OH278918   1.010   5.419  10.843 -0.3678  0.0272  0.0193
19168TIP3    H178919   0.937   5.359  10.828  0.3724 -1.0685  0.6431
19168TIP3    H278920   1.019   5.466  10.760 -1.8768  0.3174 -0.0137
19169TIP3   OH278921   0.984   5.883  14.576  0.0820  0.2530  0.5852
19169TIP3    H178922   0.892   5.900  14.555 -0.4846  0.1258  2.7844
19169TIP3    H278923   0.982   5.825  14.652  2.0080 -1.0487 -0.2791
19170TIP3   OH278924   4.304   1.040   2.178  0.1820  0.2225  0.3580
19170TIP3    H178925   4.307   1.069   2.087 -0.2097  1.3587  0.6887
19170TIP3    H278926   4.250   0.961   2.177 -0.3855  0.6132 -0.2907
19171TIP3   OH278927   3.819   3.407   2.147 -0.3959 -0.2387  0.2269
19171TIP3    H178928   3.739   3.384   2.193 -0.4881  0.7369  0.5858
19171TIP3    H278929   3.821   3.503   2.150  0.2536 -0.2177 -0.6849
19172TIP3   OH278930   5.427   0.418  13.976  0.2611  0.1664  0.6959
19172TIP3    H178931   5.509   0.431  14.024  1.2008 -2.1645 -0.1647
19172TIP3    H278932   5.445   0.345  13.917 -2.5958 -0.7449  0.8285
19173TIP3   OH278933   5.245   0.409   1.614  0.6813 -0.0710  0.3103
19173TIP3    H178934   5.250   0.476   1.546  1.5390  0.1917  0.6189
19173TIP3    H278935   5.190   0.447   1.682  2.6666  1.1338  1.3385
19174TIP3   OH278936   2.854   2.311  11.945  0.6254  0.3205 -0.2029
19174TIP3    H178937   2.864   2.324  11.851  3.0289  0.7074  0.0568
19174TIP3    H278938   2.852   2.399  11.982  3.3243  0.2001  0.3746
19175TIP3   OH278939   2.459   3.213   3.637 -0.2535  0.4351  0.7314
19175TIP3    H178940   2.460   3.196   3.731 -1.7078  2.3857  1.1696
19175TIP3    H278941   2.393   3.153   3.603  2.1073 -2.1916  0.4218
19176TIP3   OH278942   4.918   1.144   0.857 -0.4785 -0.2767 -0.0686
19176TIP3    H178943   4.967   1.226   0.863 -0.6550 -0.1767 -0.0116
19176TIP3    H278944   4.878   1.146   0.770  0.4981 -0.8511 -0.5610
19177TIP3   OH278945   4.922   1.823  17.092 -0.1090 -0.2269  0.1368
19177TIP3    H178946   4.866   1.819  17.014 -0.6444 -0.8551  0.5415
19177TIP3    H278947   4.865   1.857  17.161  0.0925 -0.5887  0.4837
19178TIP3   OH278948   2.498   3.831  15.510  0.2809  0.3117 -0.3500
19178TIP3    H178949   2.486   3.818  15.604  2.1635 -0.6529 -0.1958
19178TIP3    H278950   2.434   3.774  15.469 -0.3318  0.4920  0.3363
19179TIP3   OH278951   3.932   6.233   1.300  0.9015  0.6242  0.5045
19179TIP3    H178952   4.004   6.170   1.305  0.7583  0.4524  0.4396
19179TIP3    H278953   3.974   6.318   1.304  1.0454  0.5210  1.2437
19180TIP3   OH278954   0.408   5.405   0.310  0.2876 -0.3311  0.1316
19180TIP3    H178955   0.430   5.350   0.235  0.7848  0.8167 -0.5869
19180TIP3    H278956   0.492   5.430   0.347  0.0528 -0.4893  0.7841
19181TIP3   OH278957   1.407   4.003  16.091  0.7581 -0.0146 -0.7366
19181TIP3    H178958   1.431   3.945  16.163  1.0039  0.5062 -0.3892
19181TIP3    H278959   1.327   3.965  16.054 -1.3278  1.4526  1.8968
19182TIP3   OH278960   1.677   1.001   4.490  0.0232 -0.1407  0.0923
19182TIP3    H178961   1.763   1.010   4.449 -0.3121 -3.3141 -1.6714
19182TIP3    H278962   1.614   1.014   4.419 -0.8904  0.3848  0.9667
19183TIP3   OH278963   0.980   6.688  13.713  0.1582  0.5095 -0.1178
19183TIP3    H178964   0.888   6.666  13.730  0.4264  0.4126  1.3530
19183TIP3    H278965   1.008   6.624  13.648 -0.4229 -0.3906  0.4984
19184TIP3   OH278966   6.586   6.392   1.612 -0.1664 -0.8881 -0.0941
19184TIP3    H178967   6.492   6.377   1.626 -0.3455  0.3681  0.1993
19184TIP3    H278968   6.588   6.464   1.549  0.6072 -0.7835  0.0517
19185TIP3   OH278969   6.201   3.545   3.859 -0.6232 -0.0616 -0.3113
19185TIP3    H178970   6.228   3.460   3.892  0.3388  0.4368  0.2182
19185TIP3    H278971   6.231   3.607   3.925 -2.7834  0.5868  0.1698
19186TIP3   OH278972   2.813   2.303  14.557  0.2792 -0.7760 -0.4529
19186TIP3    H178973   2.861   2.385  14.544 -0.3770 -0.1902  0.6720
19186TIP3    H278974   2.721   2.328  14.552  0.0743 -1.6865 -1.4139
19187TIP3   OH278975   1.274   4.913  15.598  0.3453  0.6473  0.0970
19187TIP3    H178976   1.218   4.934  15.673  1.0227  1.0138  0.5114
19187TIP3    H278977   1.360   4.898  15.636  0.5433  0.1245 -0.5367
19188TIP3   OH278978   0.693   3.708   1.818 -0.4216 -0.3650 -0.0393
19188TIP3    H178979   0.617   3.697   1.760 -0.0255 -2.0191 -0.2862
19188TIP3    H278980   0.699   3.625   1.866  0.5104  0.2060  0.8818
19189TIP3   OH278981   6.589   4.922   6.688  0.0558  0.3336  0.1756
19189TIP3    H178982   6.668   4.923   6.742 -0.0848 -0.1781  0.3959
19189TIP3    H278983   6.559   4.831   6.691 -0.0727  0.3425 -0.5875
19190TIP3   OH278984   3.794   0.229  16.106 -0.3594 -0.4331 -0.7129
19190TIP3    H178985   3.829   0.144  16.132 -0.5114 -0.1377  0.4985
19190TIP3    H278986   3.869   0.288  16.109 -0.9650  0.3630  2.6082
19191TIP3   OH278987   6.391   0.343  16.466 -0.3019  0.5475  0.0538
19191TIP3    H178988   6.333   0.319  16.538 -0.6537 -1.5065 -0.8566
19191TIP3    H278989   6.334   0.392  16.406 -0.2855  1.2635  0.6027
19192TIP3   OH278990   3.888   5.579   1.166  0.0807  0.3516  0.0944
19192TIP3    H178991   3.921   5.495   1.198 -2.0155 -0.6431 -0.1870
19192TIP3    H278992   3.890   5.570   1.071 -2.8105 -0.6303  0.0043
19193TIP3   OH278993   5.354   0.161  13.157  0.6656  0.1567  0.8135
19193TIP3    H178994   5.345   0.066  13.146  1.2232  0.1732  0.1905
19193TIP3    H278995   5.321   0.198  13.075  0.1547  0.5217  1.1774
19194TIP3   OH278996   4.683   2.126  16.546  0.5775  0.6964 -0.0739
19194TIP3    H178997   4.674   2.215  16.512  0.7071  1.2109  1.2028
19194TIP3    H278998   4.670   2.070  16.469  1.1169  1.8236 -1.0225
19195TIP3   OH278999   4.895   1.342   5.251 -0.3438 -0.0018 -0.1485
19195TIP3    H179000   4.905   1.279   5.179 -0.0808  0.8490 -0.8754
19195TIP3    H279001   4.984   1.354   5.285 -0.3317  0.2787 -0.2771
19196TIP3   OH279002   0.180   0.030   1.097  0.2627 -0.5786  0.0351
19196TIP3    H179003   0.194  -0.006   1.009  0.4277 -2.5276  0.8149
19196TIP3    H279004   0.127  -0.036   1.141 -2.4495  1.7322  0.5127
19197TIP3   OH279005   6.431   5.298   3.005  0.5073  0.0110 -0.2271
19197TIP3    H179006   6.459   5.208   2.990 -0.1282 -0.1788 -0.2615
19197TIP3    H279007   6.458   5.317   3.095  0.2303 -0.3627 -0.0661
19198TIP3   OH279008   6.130   2.205   5.070  0.4560 -0.1460  0.2327
19198TIP3    H179009   6.196   2.274   5.077 -0.0978  0.5310 -0.8746
19198TIP3    H279010   6.057   2.247   5.025 -0.1196 -1.3063  0.0548
19199TIP3   OH279011   3.214   2.728   5.097 -0.6397  0.4012 -0.5889
19199TIP3    H179012   3.281   2.719   5.029 -0.0931  0.1694 -0.0359
19199TIP3    H279013   3.264   2.725   5.179 -1.2163  1.2957 -0.1940
19200TIP3   OH279014   1.057   0.543   4.965 -0.0330 -0.2924 -0.4748
19200TIP3    H179015   1.100   0.458   4.953  2.4965  0.3847  2.4897
19200TIP3    H279016   0.979   0.523   5.016  0.4693 -0.9037  0.0767
19201TIP3   OH279017   2.316   1.861   4.624  0.6240 -0.1772  0.2859
19201TIP3    H179018   2.353   1.946   4.647  0.0690 -0.0398  0.6879
19201TIP3    H279019   2.223   1.878   4.611  0.5275 -0.7027  0.2528
19202TIP3   OH279020   2.422   0.829   6.108  0.1063  0.4871 -0.2069
19202TIP3    H179021   2.379   0.885   6.173 -0.1571  1.3859 -1.1115
19202TIP3    H279022   2.477   0.890   6.058  1.8393 -0.5040  0.4130
19203TIP3   OH279023   4.914   5.127  13.021 -0.0033  0.1961  0.7447
19203TIP3    H179024   4.958   5.078  12.951  2.8215  0.7568  1.9575
19203TIP3    H279025   4.867   5.197  12.977 -2.3963 -2.2545 -0.8701
19204TIP3   OH279026   6.294   1.751   5.664  0.2545 -0.7275 -0.0608
19204TIP3    H179027   6.318   1.749   5.756  0.8892  0.0101 -0.2051
19204TIP3    H279028   6.360   1.806   5.622 -0.8129  0.0867 -0.7226
19205TIP3   OH279029   2.892   4.091   3.402  0.1351 -0.8712  0.4930
19205TIP3    H179030   2.839   4.169   3.385 -1.6419 -2.1079  0.0053
19205TIP3    H279031   2.836   4.035   3.455  0.8263 -2.3827 -0.3115
19206TIP3   OH279032   0.546   3.269   4.293  0.1559 -0.2864  0.4300
19206TIP3    H179033   0.596   3.336   4.247 -1.7514  1.5086  0.8225
19206TIP3    H279034   0.455   3.286   4.269 -0.4373 -2.4607  0.9371
19207TIP3   OH279035   5.455   2.064   4.291 -0.0841 -0.2743 -0.1137
19207TIP3    H179036   5.388   2.068   4.223  0.0361 -0.3517 -0.2351
19207TIP3    H279037   5.535   2.095   4.249  0.1806 -1.0954 -0.2365
19208TIP3   OH279038   2.157   0.348   5.926  0.1884 -0.3016  0.0695
19208TIP3    H179039   2.069   0.315   5.907  1.3293 -2.4214 -1.8488
19208TIP3    H279040   2.157   0.359   6.022 -2.8033  1.9216 -0.0214
19209TIP3   OH279041   2.619   2.835   5.538  0.1230 -0.2191  0.2193
19209TIP3    H179042   2.628   2.809   5.630  2.5364 -1.3534 -0.2676
19209TIP3    H279043   2.557   2.908   5.540  1.0459  0.6164  2.9086
19210TIP3   OH279044   5.921   5.909  14.871  0.6425  0.3240 -0.4376
19210TIP3    H179045   6.010   5.881  14.890  0.5098 -0.3806 -0.8159
19210TIP3    H279046   5.870   5.828  14.868 -0.0691  0.7426  0.0588
19211TIP3   OH279047   3.169   2.337  13.513  0.3109 -0.4506 -0.4267
19211TIP3    H179048   3.132   2.303  13.432 -0.7737  1.9518 -1.0157
19211TIP3    H279049   3.098   2.387  13.553  1.8033  1.1616  0.3364
19212TIP3   OH279050   6.450   0.213  11.467 -0.0998 -0.3135 -0.3419
19212TIP3    H179051   6.429   0.126  11.503  0.6767 -0.2510  0.2786
19212TIP3    H279052   6.434   0.204  11.373  1.4122 -1.5800 -0.5102
19213TIP3   OH279053   4.452   0.838   5.055 -0.4991  0.4291 -0.0342
19213TIP3    H179054   4.391   0.905   5.085  0.5168  1.3781 -0.0343
19213TIP3    H279055   4.415   0.807   4.972 -0.7621  1.3071 -0.2609
19214TIP3   OH279056   3.023   1.864  15.260 -0.1547  0.1658  0.2927
19214TIP3    H179057   3.013   1.845  15.353  0.1074  0.4460  0.3803
19214TIP3    H279058   2.998   1.956  15.251  3.0899  1.2159  0.6838
19215TIP3   OH279059   3.163   2.399  12.589  0.7859  0.0605 -0.5175
19215TIP3    H179060   3.128   2.377  12.502  1.7396  0.2554 -0.9704
19215TIP3    H279061   3.115   2.343  12.649 -0.0850  0.1129 -1.1430
19216TIP3   OH279062   4.377   2.006   3.729  0.2225 -0.0267  0.0298
19216TIP3    H179063   4.295   2.055   3.725 -0.5700 -1.4195 -1.6551
19216TIP3    H279064   4.410   2.023   3.818 -1.1947  1.6225  0.2890
19217TIP3   OH279065   5.986   1.540  16.973  0.1900  0.5376  0.1065
19217TIP3    H179066   5.923   1.501  16.913  0.1478 -0.3240  0.6891
19217TIP3    H279067   5.956   1.631  16.985  1.7379  1.6563 -3.2990
19218TIP3   OH279068   3.750   1.203   5.284 -0.1083  0.4410  0.0551
19218TIP3    H179069   3.667   1.232   5.246 -0.4309  0.2001  0.5681
19218TIP3    H279070   3.726   1.130   5.341  0.8070 -1.6629 -2.0664
19219TIP3   OH279071   4.012   1.527   2.056  0.4855 -0.3127 -0.5620
19219TIP3    H179072   3.937   1.546   2.000  0.6024 -0.8971 -0.9306
19219TIP3    H279073   4.088   1.542   2.000  0.7474  2.0618  0.3367
19220TIP3   OH279074   5.139   2.203  12.315  0.8060 -0.5238  0.3639
19220TIP3    H179075   5.230   2.171  12.314  0.5628 -1.2605  0.8195
19220TIP3    H279076   5.118   2.217  12.223  1.8750  1.1270  0.3303
19221TIP3   OH279077   3.117   0.785  11.818  0.1805  0.3594  0.1092
19221TIP3    H179078   3.176   0.788  11.743  1.7935  0.0509  1.3108
19221TIP3    H279079   3.107   0.691  11.837 -1.2633  0.3651 -0.4680
19222TIP3   OH279080   4.176   0.332   6.177  0.5520 -0.3796  0.0327
19222TIP3    H179081   4.221   0.294   6.102  0.9456 -1.2080  0.6596
19222TIP3    H279082   4.136   0.257   6.221  1.0690 -0.0433  1.1249
19223TIP3   OH279083   5.842   5.244  16.072 -0.0920 -0.4635  0.0956
19223TIP3    H179084   5.919   5.300  16.084 -0.5385  0.0274  0.7121
19223TIP3    H279085   5.843   5.185  16.147  0.6691 -1.6604 -0.8172
19224TIP3   OH279086   1.827   3.370   5.964 -0.1370 -0.5313 -0.6536
19224TIP3    H179087   1.857   3.354   5.874 -1.6247 -0.7872 -1.1375
19224TIP3    H279088   1.842   3.287   6.009 -0.4940 -0.7945 -1.0064
19225TIP3   OH279089   0.506   6.009  12.079 -0.0095  0.1335  0.3873
19225TIP3    H179090   0.508   6.030  12.172 -1.4471  0.3833  0.3832
19225TIP3    H279091   0.413   6.011  12.056  0.3722  0.8858 -1.2352
19226TIP3   OH279092   6.619   0.095   4.454  0.2023 -0.5122  0.3583
19226TIP3    H179093   6.587   0.040   4.526 -1.1580  0.6959  0.7484
19226TIP3    H279094   6.541   0.140   4.423  1.1294  0.5757 -0.4748
19227TIP3   OH279095   0.455   2.409   3.920  0.5673  0.3061  0.1337
19227TIP3    H179096   0.441   2.345   3.990 -2.6440  0.2086 -0.4559
19227TIP3    H279097   0.452   2.494   3.964  0.3305  0.1901  0.3421
19228TIP3   OH279098   0.660   1.740   0.804  0.0122 -0.0747 -0.4492
19228TIP3    H179099   0.751   1.754   0.831 -0.3099  1.4304 -0.0293
19228TIP3    H279100   0.658   1.766   0.712 -0.5371  2.8810  0.2710
19229TIP3   OH279101   1.688   5.276   5.077  0.5401  0.6666  0.1914
19229TIP3    H179102   1.751   5.232   5.020  0.2374  0.0575  0.3178
19229TIP3    H279103   1.742   5.322   5.141  0.8647 -0.0119  0.4217
19230TIP3   OH279104   2.889   3.925  15.328 -0.3729  0.1026  0.5879
19230TIP3    H179105   2.940   3.893  15.254 -0.5462 -0.2642  0.6273
19230TIP3    H279106   2.886   4.020  15.315  1.4594  0.3067  1.2896
19231TIP3   OH279107   3.311   6.031   4.584 -0.3357 -0.1745 -0.5302
19231TIP3    H179108   3.367   5.975   4.530  0.9947  1.1088 -0.5248
19231TIP3    H279109   3.360   6.113   4.594 -1.1795  0.1514  1.4354
19232TIP3   OH279110   4.056   0.555   2.262  0.0202  0.8368  0.4931
19232TIP3    H179111   4.017   0.531   2.346 -1.1639 -1.1124 -0.5271
19232TIP3    H279112   4.104   0.476   2.235 -0.6352  0.9608 -1.1835
19233TIP3   OH279113   2.875   6.536  15.373  0.4514  0.5037  0.4809
19233TIP3    H179114   2.964   6.501  15.382 -0.7324 -2.9331  0.1661
19233TIP3    H279115   2.820   6.476  15.424 -2.0693  0.6530 -1.8437
19234TIP3   OH279116   3.859   5.818  13.285 -0.2506 -0.0905  0.0403
19234TIP3    H179117   3.928   5.842  13.347  1.4429 -1.0361 -1.3826
19234TIP3    H279118   3.888   5.854  13.201 -0.0673 -2.7610 -1.1408
19235TIP3   OH279119   4.768   5.738  13.280 -0.6045 -0.0918  0.4765
19235TIP3    H179120   4.783   5.699  13.194 -1.0588 -2.7720  1.5012
19235TIP3    H279121   4.855   5.747  13.318 -0.5384 -1.4127  0.6955
19236TIP3   OH279122   2.576   3.847  16.436  0.7048 -0.4153  0.2081
19236TIP3    H179123   2.529   3.764  16.448 -2.2874  1.1225  0.0578
19236TIP3    H279124   2.547   3.901  16.510 -1.3062  2.0561 -2.1692
19237TIP3   OH279125   0.122   6.364  12.870  0.4404  0.1126  0.5944
19237TIP3    H179126   0.191   6.371  12.804 -0.1212  0.2863  0.0111
19237TIP3    H279127   0.050   6.418  12.835  1.1334  2.5729  2.6830
19238TIP3   OH279128   4.658   5.821  14.829  0.4465  0.0719 -0.3052
19238TIP3    H179129   4.649   5.820  14.924 -0.5762  1.0793 -0.3694
19238TIP3    H279130   4.738   5.870  14.813 -0.2255  1.3087  0.0129
19239TIP3   OH279131   2.777   1.580  11.450  0.7552  0.6867  0.1335
19239TIP3    H179132   2.736   1.512  11.396  0.0408  0.8394  0.4715
19239TIP3    H279133   2.747   1.663  11.412  1.3259  0.8104 -0.0526
19240TIP3   OH279134   2.362   0.143   0.289  0.3706  0.5322  0.3242
19240TIP3    H179135   2.365   0.116   0.198 -1.2348 -2.4030  1.0443
19240TIP3    H279136   2.269   0.158   0.307  0.8920  7.1336  0.0771
19241TIP3   OH279137   3.805   4.107   2.824 -0.5307 -0.4900  0.5227
19241TIP3    H179138   3.839   4.195   2.809  3.2828 -2.2119 -2.9286
19241TIP3    H279139   3.868   4.067   2.885 -0.3015 -1.7268 -0.4855
19242TIP3   OH279140   0.501   1.818   0.519  0.8382  0.7205 -0.3606
19242TIP3    H179141   0.463   1.862   0.596  1.5765  0.1172  0.3584
19242TIP3    H279142   0.514   1.888   0.456 -0.3741  1.1305 -0.1853
19243TIP3   OH279143   2.660   3.155  13.801 -0.1138 -0.2624  0.3544
19243TIP3    H179144   2.593   3.172  13.866  0.2746 -2.0931  1.2733
19243TIP3    H279145   2.615   3.109  13.730 -0.4621  1.4177 -0.5722
19244TIP3   OH279146   5.969   2.601  15.214  0.0752 -0.1185  0.3858
19244TIP3    H179147   5.915   2.523  15.202  1.1462 -0.7585 -0.5484
19244TIP3    H279148   6.057   2.567  15.230  0.5226  0.8900  0.1738
19245TIP3   OH279149   0.454   0.178   1.866  0.0985  0.0353 -0.6111
19245TIP3    H179150   0.367   0.174   1.828  0.0825 -0.8379 -0.4843
19245TIP3    H279151   0.439   0.195   1.959 -0.0005 -1.6594 -0.3018
19246TIP3   OH279152   1.511   3.083  10.952 -0.1274 -0.5012  0.1470
19246TIP3    H179153   1.525   3.037  10.870  0.3963 -1.0830  0.5578
19246TIP3    H279154   1.419   3.068  10.972 -0.4036  0.1171 -0.6118
19247TIP3   OH279155   0.332   1.297   1.495 -0.2699 -0.3574 -0.3787
19247TIP3    H179156   0.280   1.368   1.533 -2.6282 -2.7212  1.1758
19247TIP3    H279157   0.393   1.341   1.436 -3.0816  2.7999 -1.2572
19248TIP3   OH279158   3.776   4.622   4.027 -0.1534  0.0670 -0.0040
19248TIP3    H179159   3.758   4.708   3.989  0.1378  0.3460  0.4712
19248TIP3    H279160   3.813   4.642   4.114 -1.2142 -0.5532  0.6084
19249TIP3   OH279161   1.217   1.859   5.375  0.1182  0.1143 -0.1694
19249TIP3    H179162   1.261   1.941   5.355 -1.7929  1.5156  1.0102
19249TIP3    H279163   1.280   1.810   5.429  1.3838  0.6470 -1.1253
19250TIP3   OH279164   6.183   1.504   4.826 -0.0868  0.5620  0.5707
19250TIP3    H179165   6.207   1.580   4.880  0.1447  0.1356  1.0706
19250TIP3    H279166   6.259   1.446   4.832 -0.1335  0.4326 -0.0735
19251TIP3   OH279167   4.084   5.749  17.026  0.0826 -0.1811 -0.3592
19251TIP3    H179168   4.023   5.692  16.979 -1.8409 -1.7109  3.5270
19251TIP3    H279169   4.152   5.690  17.059  2.7506  1.2072 -2.8763
19252TIP3   OH279170   4.814   6.122  12.482 -0.2463 -0.7069 -0.2012
19252TIP3    H179171   4.723   6.150  12.482 -0.2570 -0.6767  1.3410
19252TIP3    H279172   4.865   6.202  12.471 -0.3880 -0.7379 -1.1872
19253TIP3   OH279173   1.642   6.313   3.396 -0.3096  0.0309 -0.4061
19253TIP3    H179174   1.581   6.303   3.469 -1.3691 -1.1698 -1.4132
19253TIP3    H279175   1.586   6.320   3.318  0.7740  1.7668 -1.0882
19254TIP3   OH279176   2.742   1.623  15.475 -0.3640  0.2620 -0.1085
19254TIP3    H179177   2.739   1.698  15.535  2.7589 -1.1277  2.0455
19254TIP3    H279178   2.835   1.601  15.469 -0.9650 -2.1577 -2.3721
19255TIP3   OH279179   0.406   6.768   0.440 -0.1244  0.0933 -0.2834
19255TIP3    H179180   0.418   6.703   0.371 -0.2303 -0.9665  0.6654
19255TIP3    H279181   0.320   6.805   0.424 -0.0776 -0.0271 -0.8112
19256TIP3   OH279182   3.802   2.518  16.144  0.0865 -0.1915 -0.2016
19256TIP3    H179183   3.884   2.488  16.105 -0.2648 -1.1939 -0.1875
19256TIP3    H279184   3.743   2.443  16.138 -0.8880  0.5571 -0.3450
19257TIP3   OH279185   2.047   0.044   0.254 -0.0796  0.2654 -0.0490
19257TIP3    H179186   2.060   0.081   0.341  2.5867  1.1040 -0.6829
19257TIP3    H279187   2.111  -0.028   0.249 -1.8164 -1.3111 -0.5363
19258TIP3   OH279188   6.255   1.173   4.567  0.0233 -0.8655 -0.7143
19258TIP3    H179189   6.199   1.214   4.501 -0.5819  1.4596  1.1045
19258TIP3    H279190   6.287   1.093   4.525 -0.7687  0.1989 -3.5762
19259TIP3   OH279191   4.239   0.281   3.627 -0.1807  0.1008 -0.3288
19259TIP3    H179192   4.182   0.358   3.626 -0.9752 -0.4753 -0.3084
19259TIP3    H279193   4.193   0.217   3.681  0.1623 -0.6171 -0.8619
19260TIP3   OH279194   1.518   0.518   0.319 -0.5419 -0.0954  0.4417
19260TIP3    H179195   1.542   0.445   0.375 -0.5503  0.7552  1.5909
19260TIP3    H279196   1.422   0.520   0.321 -0.5767 -0.5520 -0.2742
19261TIP3   OH279197   0.231   6.401   1.693 -0.6680  0.1148 -0.7109
19261TIP3    H179198   0.219   6.310   1.668 -0.2538 -0.1468  0.0216
19261TIP3    H279199   0.148   6.426   1.734 -0.8370  0.1138 -1.0546
19262TIP3   OH279200   1.302   5.110  12.955 -0.2470  0.4849  0.1385
19262TIP3    H179201   1.290   5.074  13.043 -4.1982 -2.0858 -1.1804
19262TIP3    H279202   1.367   5.053  12.914 -0.3630  0.0229  0.5884
19263TIP3   OH279203   4.226   4.843   2.254 -0.0962 -0.2664  0.0541
19263TIP3    H179204   4.310   4.889   2.255 -0.2399  0.0242 -0.6586
19263TIP3    H279205   4.186   4.865   2.337  1.3307 -1.9355  1.2626
19264TIP3   OH279206   1.209   0.068   3.700 -0.4259 -0.5327  0.3205
19264TIP3    H179207   1.173   0.065   3.611 -0.0998  1.4351  0.0677
19264TIP3    H279208   1.153   0.130   3.746  1.7257  1.5523  0.3035
19265TIP3   OH279209   2.160   3.569  16.156  0.2355 -0.1179  0.2249
19265TIP3    H179210   2.188   3.642  16.100  3.0908 -0.7089  0.7272
19265TIP3    H279211   2.125   3.505  16.095  1.8965 -0.1335 -0.7809
19266TIP3   OH279212   6.452   5.897   3.610  0.3704 -0.5594 -0.6564
19266TIP3    H179213   6.519   5.832   3.590  0.7146 -0.0218 -1.2697
19266TIP3    H279214   6.372   5.845   3.622  0.8823 -1.2076  0.1066
19267TIP3   OH279215   1.326   4.385   1.075 -0.1496 -0.5947  0.7002
19267TIP3    H179216   1.340   4.464   1.023 -0.9015  0.0834  1.4967
19267TIP3    H279217   1.348   4.313   1.016 -0.1762  0.1815 -0.2827
19268TIP3   OH279218   1.004   2.572   2.508 -0.0167 -0.2206  0.4896
19268TIP3    H179219   1.072   2.635   2.485  0.2455 -0.1179  1.4956
19268TIP3    H279220   0.951   2.563   2.428  1.8313 -1.1765 -0.7024
19269TIP3   OH279221   1.150   2.915  14.059 -0.4917  0.2630  0.1483
19269TIP3    H179222   1.147   2.960  14.144  0.3627  2.0068 -0.6795
19269TIP3    H279223   1.180   2.983  13.997 -2.1040 -0.6392 -1.7452
19270TIP3   OH279224   5.851   0.912   2.094  0.4571 -0.6180 -0.9731
19270TIP3    H179225   5.826   1.001   2.072  2.3841  0.2352  0.0614
19270TIP3    H279226   5.778   0.878   2.145 -1.1378 -0.3454 -2.9264
19271TIP3   OH279227   6.319   4.963   3.805  0.1704 -0.0830 -0.9435
19271TIP3    H179228   6.284   4.874   3.796  1.8698 -1.2581  2.5290
19271TIP3    H279229   6.242   5.019   3.796 -2.0510 -2.2659  2.1875
19272TIP3   OH279230   2.000   5.988   5.805 -0.7600  0.3389  0.2633
19272TIP3    H179231   1.982   5.897   5.784 -4.2804  1.2120 -1.2483
19272TIP3    H279232   2.029   6.027   5.722 -0.6837  0.9141  0.5534
19273TIP3   OH279233   6.551   5.542   3.192  0.3440 -0.0433  0.1686
19273TIP3    H179234   6.558   5.449   3.213  1.6827 -0.0598 -0.2983
19273TIP3    H279235   6.477   5.547   3.131 -1.6104 -0.3961  2.3497
19274TIP3   OH279236   4.569   1.695   1.345 -0.6502  0.3448  0.5682
19274TIP3    H179237   4.602   1.730   1.262  0.0137 -0.0016  0.6784
19274TIP3    H279238   4.503   1.758   1.373 -0.8934  0.4578 -0.2307
19275TIP3   OH279239   1.817   1.668   4.481 -0.1964  0.0496  0.1034
19275TIP3    H179240   1.789   1.681   4.391  0.4766  1.8093  0.1031
19275TIP3    H279241   1.876   1.593   4.478  0.4225  0.5669 -1.0646
19276TIP3   OH279242   6.722   5.384  14.639  0.0307  0.4646  0.5576
19276TIP3    H179243   6.774   5.336  14.704  0.7661  0.5298  0.0285
19276TIP3    H279244   6.648   5.326  14.620  1.6662 -1.2032 -1.1742
19277TIP3   OH279245   4.999   5.895   5.484  0.1282  0.0244 -0.5034
19277TIP3    H179246   4.946   5.966   5.520  1.4572 -0.0604  1.8216
19277TIP3    H279247   4.944   5.817   5.495 -0.5638  0.3883 -1.2600
19278TIP3   OH279248   6.355   3.572  16.290  0.5414  0.4962 -0.6810
19278TIP3    H179249   6.450   3.582  16.293  0.5522  0.2879  1.3261
19278TIP3    H279250   6.324   3.648  16.241  1.6880  1.0579 -0.5698
19279TIP3   OH279251   4.687   6.567   3.574 -0.1861 -0.5861 -0.4293
19279TIP3    H179252   4.745   6.502   3.615  1.7613  1.8396  0.9203
19279TIP3    H279253   4.736   6.596   3.497  0.4218  1.3802  0.6364
19280TIP3   OH279254   0.126   0.115   2.563 -0.5599 -0.0111 -0.1421
19280TIP3    H179255   0.080   0.138   2.482  0.5999  2.6313 -0.1783
19280TIP3    H279256   0.218   0.130   2.542 -0.2951  1.6066  1.8527
19281TIP3   OH279257   6.720   3.759  17.043 -0.1015  0.2049  0.1147
19281TIP3    H179258   6.638   3.807  17.032  0.2052  0.4789 -1.0776
19281TIP3    H279259   6.715   3.688  16.980 -0.2011 -0.8791  1.3093
19282TIP3   OH279260   2.432   5.435  13.535 -0.0741 -0.1226 -0.2147
19282TIP3    H179261   2.502   5.497  13.514  0.0644 -0.3715 -0.4954
19282TIP3    H279262   2.428   5.434  13.631  0.5300 -0.3524 -0.1867
19283TIP3   OH279263   0.765   6.562   0.731 -0.1213 -0.0562  0.7501
19283TIP3    H179264   0.721   6.631   0.780 -0.3313 -0.9207  1.8289
19283TIP3    H279265   0.813   6.513   0.798  1.7451  0.3067 -0.2754
19284TIP3   OH279266   0.041   3.063  15.233  0.0524 -0.3187 -0.6847
19284TIP3    H179267   0.046   2.979  15.279 -0.6645 -0.5136 -0.9563
19284TIP3    H279268   0.041   3.039  15.140  2.0737  0.0935 -0.8376
19285TIP3   OH279269   3.214   1.150   1.594  0.5005  0.4367  0.1227
19285TIP3    H179270   3.145   1.185   1.538  0.7392 -0.5584 -0.8221
19285TIP3    H279271   3.168   1.093   1.655  0.3887  0.4904  0.0894
19286TIP3   OH279272   4.014   2.526   4.094 -0.6512  0.7317 -0.0216
19286TIP3    H179273   4.079   2.458   4.111 -0.0806  1.0975 -0.6854
19286TIP3    H279274   3.963   2.493   4.020 -0.0064  1.2656 -0.7146
19287TIP3   OH279275   6.623   0.915   4.489 -0.1559 -0.0819  0.3887
19287TIP3    H179276   6.687   0.848   4.464  1.2156  1.4405 -0.3660
19287TIP3    H279277   6.645   0.937   4.579 -0.2862 -0.2876  0.4710
19288TIP3   OH279278   1.741   4.902   4.147 -0.0454 -0.5139 -0.2742
19288TIP3    H179279   1.734   4.869   4.057 -1.1184  0.9672 -0.7790
19288TIP3    H279280   1.814   4.963   4.144  0.1883 -0.7797 -0.0265
19289TIP3   OH279281   2.595   6.433   5.058 -0.2221  0.3224 -0.5174
19289TIP3    H179282   2.675   6.429   5.112 -0.3613 -0.1783 -0.3397
19289TIP3    H279283   2.627   6.455   4.971 -0.1882  3.2901  0.1615
19290TIP3   OH279284   1.977   1.029   4.196 -0.3610 -0.1189  0.5993
19290TIP3    H179285   1.911   0.966   4.166  0.0609 -0.4841  0.4336
19290TIP3    H279286   1.926   1.101   4.233 -0.8606 -0.1621 -0.0020
19291TIP3   OH279287   6.149   3.135  16.010 -1.1175 -0.3837  0.2901
19291TIP3    H179288   6.174   3.209  16.065 -2.8615  0.5764 -0.1548
19291TIP3    H279289   6.054   3.132  16.015 -1.1059 -2.5463  0.2011
19292TIP3   OH279290   4.937   3.707   0.673 -0.0249  0.3624  0.1027
19292TIP3    H179291   5.007   3.652   0.639  0.5090  2.3310 -2.2185
19292TIP3    H279292   4.968   3.735   0.759  1.3880  0.0610 -0.2883
19293TIP3   OH279293   5.769   5.645  16.024  0.3917  0.0252  0.0606
19293TIP3    H179294   5.825   5.721  16.041  0.0692  0.5581 -1.1764
19293TIP3    H279295   5.703   5.648  16.093  0.6950  0.5461  0.3406
19294TIP3   OH279296   2.932   1.071  16.700  0.1874  0.4344 -0.5886
19294TIP3    H179297   2.926   1.056  16.794 -2.4461  1.5863 -0.5058
19294TIP3    H279298   3.006   1.131  16.690  1.8275 -1.2737  0.4458
19295TIP3   OH279299   1.110   1.341   0.866  0.8670  0.0336 -0.2868
19295TIP3    H179300   1.156   1.262   0.840  0.8632 -0.1315  0.2105
19295TIP3    H279301   1.038   1.310   0.921  0.9727  0.3995  0.0562
19296TIP3   OH279302   6.401   6.417  15.732 -0.3931 -0.2167  0.0718
19296TIP3    H179303   6.326   6.437  15.676 -0.6878 -0.2498  0.4544
19296TIP3    H279304   6.476   6.452  15.685 -0.5690 -0.7472 -0.6199
19297TIP3   OH279305   5.991   5.829  15.949  0.0312  0.1961 -0.2837
19297TIP3    H179306   6.019   5.919  15.970  0.1774  0.5494 -1.8798
19297TIP3    H279307   6.069   5.788  15.912 -0.1816 -0.4318 -0.0411
19298TIP3   OH279308   5.384   5.835  12.894 -0.2165  0.0597 -0.1280
19298TIP3    H179309   5.448   5.807  12.828  3.1164  2.9418  1.5181
19298TIP3    H279310   5.365   5.926  12.871 -2.2299 -0.1391  0.5993
19299TIP3   OH279311   2.748   4.478   5.661  0.5655  0.0744  0.0274
19299TIP3    H179312   2.671   4.459   5.715  0.8188 -0.9141  0.0571
19299TIP3    H279313   2.732   4.567   5.627  0.6605  0.9670  2.1609
19300TIP3   OH279314   1.108   1.116   5.417  0.7950  0.4312  0.1342
19300TIP3    H179315   1.134   1.029   5.387  2.3500  1.0818 -0.4921
19300TIP3    H279316   1.171   1.139   5.485 -0.3005  0.6243  1.1234
19301TIP3   OH279317   0.798   1.366   2.113  0.1563 -0.0304  0.3106
19301TIP3    H179318   0.885   1.328   2.108  0.2971 -0.0866  2.5269
19301TIP3    H279319   0.811   1.450   2.156 -0.5387  1.3181 -1.9671
19302TIP3   OH279320   5.457   2.440   2.031  0.2222  0.7340  0.3391
19302TIP3    H179321   5.381   2.495   2.047 -0.6094 -1.0312  3.1967
19302TIP3    H279322   5.530   2.489   2.070  0.4925  2.0311 -1.6484
19303TIP3   OH279323   1.755   3.552   5.417 -0.2709  0.1943  0.9148
19303TIP3    H179324   1.830   3.497   5.441  0.1170  0.0937 -0.4701
19303TIP3    H279325   1.788   3.641   5.421 -0.3588  0.2134  1.2599
19304TIP3   OH279326   3.662   0.202   4.949  1.0860  0.1053  0.0636
19304TIP3    H179327   3.733   0.240   5.001  0.1554  1.3707  0.4621
19304TIP3    H279328   3.703   0.179   4.865  2.3639 -0.9467  0.9287
19305TIP3   OH279329   4.260   2.267  11.133  0.2042  0.7312  0.1434
19305TIP3    H179330   4.218   2.311  11.207 -1.8637 -0.5133 -0.2164
19305TIP3    H279331   4.262   2.333  11.063 -0.1824  1.1378  0.5125
19306TIP3   OH279332   3.510   1.394   5.234  0.9217  0.2284 -0.0997
19306TIP3    H179333   3.531   1.420   5.323 -0.9419 -1.4352  0.9110
19306TIP3    H279334   3.419   1.421   5.221  1.1875  0.5330 -1.5392
19307TIP3   OH279335   0.358   2.482   6.077 -0.1186  0.0283  0.0664
19307TIP3    H179336   0.439   2.505   6.122 -0.8539 -0.4082  1.6512
19307TIP3    H279337   0.334   2.562   6.030  0.8204  0.3924  0.1788
19308TIP3   OH279338   5.192   4.194   2.334  0.3682  0.5655 -0.3438
19308TIP3    H179339   5.198   4.101   2.312  2.0583  0.8143 -1.0986
19308TIP3    H279340   5.251   4.205   2.408 -1.3845  0.7097  1.1171
19309TIP3   OH279341   5.321   0.845  12.265 -0.0013 -0.4691 -1.0052
19309TIP3    H179342   5.295   0.842  12.173 -0.5629 -0.8971 -0.8347
19309TIP3    H279343   5.255   0.793  12.311  0.0451  0.0802 -0.3028
19310TIP3   OH279344   1.442   6.362   0.130 -0.1710 -0.6487  0.6557
19310TIP3    H179345   1.489   6.375   0.212  2.4260  0.0611 -0.8143
19310TIP3    H279346   1.452   6.445   0.083 -0.9739 -1.2670 -0.6662
19311TIP3   OH279347   1.160   2.198  16.401 -0.2757  0.2179  0.2862
19311TIP3    H179348   1.117   2.282  16.420  1.8933  1.2659  0.9423
19311TIP3    H279349   1.229   2.191  16.467  1.0520 -0.9744 -1.1297
19312TIP3   OH279350   0.563   6.102   2.404 -0.2120 -0.0404  0.3542
19312TIP3    H179351   0.647   6.147   2.397  0.3046 -1.1702 -1.1994
19312TIP3    H279352   0.586   6.009   2.413 -1.2817 -0.3821 -0.2265
19313TIP3   OH279353   5.472   4.876  15.775 -0.1871  0.4840  0.2688
19313TIP3    H179354   5.522   4.935  15.719  0.4634 -0.1692  0.1434
19313TIP3    H279355   5.437   4.810  15.715 -0.4146  0.4061  0.4850
19314TIP3   OH279356   5.062   0.083  12.194 -0.1341 -0.1563 -0.2191
19314TIP3    H179357   4.996   0.150  12.213 -0.4381 -1.0544  2.2196
19314TIP3    H279358   5.146   0.127  12.211 -0.3347 -0.3550  1.4862
19315TIP3   OH279359   2.095   0.603  15.543  0.0888  0.0186  0.2635
19315TIP3    H179360   2.161   0.568  15.603  1.3144  2.4342  0.4293
19315TIP3    H279361   2.024   0.630  15.601  0.7056  1.1229  0.5289
19316TIP3   OH279362   3.563   6.643  11.436  0.0382 -0.8078  0.0862
19316TIP3    H179363   3.542   6.712  11.374  1.3025 -2.0392 -1.8485
19316TIP3    H279364   3.515   6.566  11.404 -0.3316 -1.1566  1.4229
19317TIP3   OH279365   2.055   0.085  12.828 -0.1177 -0.3512 -0.5129
19317TIP3    H179366   1.976   0.045  12.866 -0.8471  0.4382 -1.1542
19317TIP3    H279367   2.104   0.011  12.793 -1.3096 -0.7358 -1.4266
19318TIP3   OH279368   4.690   4.421   1.478  0.1278 -0.4300  0.2920
19318TIP3    H179369   4.730   4.481   1.416 -0.8357  1.4250  1.3659
19318TIP3    H279370   4.762   4.395   1.535  0.6135 -0.4978 -0.3430
19319TIP3   OH279371   2.439   1.235  15.686 -0.3918 -0.2183 -0.0320
19319TIP3    H179372   2.434   1.331  15.684 -2.9417 -0.2874  0.0122
19319TIP3    H279373   2.488   1.216  15.766  1.4165  1.0173 -0.7725
19320TIP3   OH279374   2.816   1.658  11.732 -0.1891  0.2530  0.3226
19320TIP3    H179375   2.838   1.593  11.665 -1.4796  0.2457 -0.1312
19320TIP3    H279376   2.885   1.650  11.797  3.0123  2.4789 -2.4552
19321TIP3   OH279377   3.462   3.872  14.957 -0.5156  0.1554 -0.1714
19321TIP3    H179378   3.485   3.938  15.022  1.4751  1.2073 -1.8416
19321TIP3    H279379   3.419   3.803  15.007 -2.3385  2.4839  1.7113
19322TIP3   OH279380   6.034   4.397   4.836 -0.1522  0.2805 -0.1204
19322TIP3    H179381   6.025   4.465   4.768 -2.5322  0.9919  0.7950
19322TIP3    H279382   6.125   4.369   4.830  0.5282  2.5106 -1.5446
19323TIP3   OH279383   3.105   0.059  15.940 -0.0329 -0.0404  0.3152
19323TIP3    H179384   3.157   0.035  16.016  1.8053  1.2895 -0.4746
19323TIP3    H279385   3.140   0.006  15.868 -2.7566 -2.4681  0.5570
19324TIP3   OH279386   1.235   2.212  11.499  0.0677 -0.0598  0.3405
19324TIP3    H179387   1.277   2.167  11.425 -0.6600  0.3819 -0.3495
19324TIP3    H279388   1.295   2.283  11.520 -0.1358  0.3474 -0.4073
19325TIP3   OH279389   4.100   4.184   4.189 -0.5233  0.7676  0.1527
19325TIP3    H179390   4.029   4.220   4.137 -0.2939  2.9781  1.2616
19325TIP3    H279391   4.180   4.215   4.146 -0.3152  1.5018  1.0492
19326TIP3   OH279392   6.310   3.195  12.586 -0.3744  0.1631 -0.1543
19326TIP3    H179393   6.336   3.128  12.522 -0.0074  0.7570 -0.6330
19326TIP3    H279394   6.340   3.277  12.548 -1.8981  0.7487 -0.1632
19327TIP3   OH279395   1.525   3.738   0.030  0.0170  0.4247 -0.4888
19327TIP3    H179396   1.437   3.764   0.057  0.1995  0.1598  0.4331
19327TIP3    H279397   1.514   3.700  -0.057 -0.9188 -0.3467 -0.0620
19328TIP3   OH279398   0.265   1.526  14.025 -0.2185  0.2595  0.2631
19328TIP3    H179399   0.226   1.504  13.940 -2.8018  0.3160  1.3632
19328TIP3    H279400   0.237   1.616  14.042  0.7565  0.4523  0.9321
19329TIP3   OH279401   3.623   5.782   6.403  0.5748  0.3046 -0.9435
19329TIP3    H179402   3.617   5.845   6.331  0.3930  0.7063 -0.5773
19329TIP3    H279403   3.713   5.792   6.436  0.7273 -0.0308 -1.2469
19330TIP3   OH279404   0.087   2.835   3.087 -0.0077  0.2283  0.1596
19330TIP3    H179405   0.127   2.773   3.026  0.0702 -0.3117  0.7566
19330TIP3    H279406   0.115   2.921   3.054  0.2530 -0.0664 -0.4099
19331TIP3   OH279407   6.315   4.568   5.467  0.5291 -0.3039 -0.1503
19331TIP3    H179408   6.390   4.587   5.524  0.1129 -3.0723  1.5137
19331TIP3    H279409   6.329   4.478   5.438 -2.0417 -0.8577  0.0914
19332TIP3   OH279410   4.883   1.862   1.873  0.1661  0.0901 -0.2983
19332TIP3    H179411   4.920   1.812   1.946 -0.2876 -0.3584 -0.3674
19332TIP3    H279412   4.859   1.796   1.808  2.0504  0.5850 -1.5794
19333TIP3   OH279413   0.173   1.344  14.230 -0.5219 -0.0812  0.3361
19333TIP3    H179414   0.251   1.290  14.243  0.5082  1.3055  0.2216
19333TIP3    H279415   0.183   1.380  14.142 -1.6157 -0.3578  0.0871
19334TIP3   OH279416   3.209   6.119   3.564 -0.2482 -0.5086 -0.1887
19334TIP3    H179417   3.157   6.137   3.642 -0.4138  3.2884 -1.0060
19334TIP3    H279418   3.154   6.146   3.491  1.7357  0.9998 -1.2496
19335TIP3   OH279419   1.939   4.393   1.845 -0.0386 -0.0679  0.0623
19335TIP3    H179420   1.997   4.416   1.773 -0.5423  0.8897 -0.0542
19335TIP3    H279421   1.885   4.321   1.810  2.3329 -2.3549  0.8232
19336TIP3   OH279422   0.581   0.970  15.610 -0.5762  0.0302 -0.3934
19336TIP3    H179423   0.593   0.982  15.516 -3.0719  2.1768 -0.5541
19336TIP3    H279424   0.592   1.057  15.648  2.4859 -1.0932  1.7093
19337TIP3   OH279425   5.194   4.802   3.342  0.1614 -0.4711  0.1677
19337TIP3    H179426   5.283   4.822   3.312  0.4240 -0.3253  1.0147
19337TIP3    H279427   5.138   4.843   3.276  0.7094 -0.9757 -0.6404
19338TIP3   OH279428   5.527   5.523   2.460 -0.1563 -0.1905 -0.3476
19338TIP3    H179429   5.601   5.556   2.511 -0.9574  0.0097  0.7290
19338TIP3    H279430   5.546   5.549   2.370  0.4543  0.9965  0.1035
19339TIP3   OH279431   6.601   0.541   4.992  0.4088 -0.0318  0.2982
19339TIP3    H179432   6.645   0.585   5.064  0.5224  1.0503 -0.3963
19339TIP3    H279433   6.613   0.448   5.008  1.2175  0.2192  1.1788
19340TIP3   OH279434   2.224   3.437  12.074 -0.2110  0.1847  0.6500
19340TIP3    H179435   2.168   3.388  12.134 -0.2939  0.7758  1.0619
19340TIP3    H279436   2.275   3.494  12.131 -1.0542  1.5268  0.0874
19341TIP3   OH279437   1.230   6.593   4.549 -0.5900  0.0934  0.2668
19341TIP3    H179438   1.195   6.504   4.538 -3.4236  1.3885 -3.2729
19341TIP3    H279439   1.165   6.637   4.605  0.3969  0.2119  1.3659
19342TIP3   OH279440   2.786   4.227  14.991 -0.2695 -0.4816 -0.1294
19342TIP3    H179441   2.726   4.289  15.031  2.1410  2.2709 -0.4794
19342TIP3    H279442   2.762   4.227  14.898  0.3128  0.7031 -0.2902
19343TIP3   OH279443   1.580   3.213  13.950 -0.3199 -0.3482  0.5706
19343TIP3    H179444   1.542   3.158  13.881  2.5540 -3.5772  1.3033
19343TIP3    H279445   1.626   3.282  13.903  0.5133 -1.7432 -0.7590
19344TIP3   OH279446   4.745   2.086   6.193  0.5739 -0.3698  0.5269
19344TIP3    H179447   4.789   2.012   6.152 -0.4241 -0.8268  0.2335
19344TIP3    H279448   4.716   2.054   6.278 -2.8110 -1.5037 -0.8796
19345TIP3   OH279449   2.678   2.679  13.375  0.8799  0.0617  0.0313
19345TIP3    H179450   2.752   2.726  13.414  1.3077 -0.4406 -0.1716
19345TIP3    H279451   2.683   2.591  13.412 -0.2080  0.2938  0.7913
19346TIP3   OH279452   3.301   4.424   6.333  0.0127 -0.0430 -0.2645
19346TIP3    H179453   3.213   4.460   6.323  0.1979  0.9272  1.3579
19346TIP3    H279454   3.354   4.497   6.365  0.7857 -1.2766  1.4437
19347TIP3   OH279455   2.031   0.770   3.265 -0.5864 -0.5074 -0.2658
19347TIP3    H179456   1.944   0.789   3.231 -0.0877 -0.5178 -1.5923
19347TIP3    H279457   2.091   0.794   3.194  0.4340 -1.2962  0.2984
19348TIP3   OH279458   4.625   1.767  15.295 -0.6682  0.4485 -0.7763
19348TIP3    H179459   4.637   1.861  15.308 -0.6956  0.2170  1.2515
19348TIP3    H279460   4.673   1.747  15.214  1.6362  1.7481  0.1803
19349TIP3   OH279461   3.415   3.659  12.559  0.0765 -0.1041  0.8268
19349TIP3    H179462   3.493   3.629  12.605  2.5751  0.5901 -2.5173
19349TIP3    H279463   3.375   3.580  12.524  0.6072 -0.3259  0.7152
19350TIP3   OH279464   6.229   1.117   2.816 -0.9770  0.3328  0.0226
19350TIP3    H179465   6.286   1.190   2.790 -0.9027 -0.1443 -1.2454
19350TIP3    H279466   6.180   1.150   2.891 -0.3448  1.3931 -0.0129
19351TIP3   OH279467   0.638   3.782  14.601  0.2709 -0.1800 -0.0186
19351TIP3    H179468   0.647   3.799  14.507  0.4988  0.0375  0.0445
19351TIP3    H279469   0.709   3.831  14.642 -0.0271 -0.0070  0.2995
19352TIP3   OH279470   1.996   0.101   5.894 -0.2017 -0.6167 -0.3928
19352TIP3    H179471   2.044   0.087   5.976 -0.3514 -0.4524 -0.2768
19352TIP3    H279472   1.931   0.032   5.893 -0.5731 -0.2775 -0.0932
19353TIP3   OH279473   1.107   6.237  14.419 -0.0004 -0.4911  0.4867
19353TIP3    H179474   1.056   6.264  14.343 -0.5004 -1.6000  0.4026
19353TIP3    H279475   1.198   6.243  14.391 -0.1507 -0.0463  0.0958
19354TIP3   OH279476   5.812   1.925   1.864  0.3187  0.3376 -0.4138
19354TIP3    H179477   5.863   1.875   1.928 -1.0706  0.1432  0.5898
19354TIP3    H279478   5.783   2.003   1.911 -2.9275 -1.0321  0.1484
19355TIP3   OH279479   4.726   2.210  16.111 -0.0824 -0.1828 -0.3594
19355TIP3    H179480   4.673   2.154  16.053 -1.3303 -1.7081  2.0795
19355TIP3    H279481   4.783   2.149  16.158  1.0967  1.0331 -0.1593
19356TIP3   OH279482   4.329   2.582   6.158 -0.5016  0.1960  0.1326
19356TIP3    H179483   4.359   2.512   6.100 -1.6514 -1.2828  1.2467
19356TIP3    H279484   4.246   2.611   6.120 -0.5346  0.2483  0.2443
19357TIP3   OH279485   2.087   5.415   1.139 -0.0922 -0.2091  0.1025
19357TIP3    H179486   2.160   5.364   1.175 -0.0618  0.0420  0.3960
19357TIP3    H279487   2.115   5.436   1.049  0.9203  1.2810  0.7277
19358TIP3   OH279488   6.751   3.893  16.751 -0.4559  0.1114  0.5034
19358TIP3    H179489   6.798   3.850  16.680  1.4954  2.5900  0.1597
19358TIP3    H279490   6.739   3.825  16.817 -0.6948 -1.8014 -1.4011
19359TIP3   OH279491   5.362   2.941   4.068  0.4322  0.1559 -0.1461
19359TIP3    H179492   5.288   2.934   4.128 -0.1377 -2.8921 -1.0377
19359TIP3    H279493   5.439   2.934   4.124  0.0750  2.1202  0.6564
19360TIP3   OH279494   3.851   5.289   3.275 -1.1160  0.5422  0.4140
19360TIP3    H179495   3.857   5.193   3.272  1.5698  0.6544 -1.3470
19360TIP3    H279496   3.762   5.308   3.245 -0.5019 -1.3863 -3.2185
19361TIP3   OH279497   3.745   0.361   0.044  0.4115 -0.0618  0.0532
19361TIP3    H179498   3.670   0.311   0.077 -1.2275  1.1014 -1.6643
19361TIP3    H279499   3.718   0.452   0.054  2.5982  0.4819  1.4958
19362TIP3   OH279500   5.380   4.679  16.899 -1.0707 -0.1356 -0.0343
19362TIP3    H179501   5.459   4.731  16.914 -0.8546  0.0624 -1.6842
19362TIP3    H279502   5.309   4.742  16.892 -0.7548  0.0321 -2.3908
19363TIP3   OH279503   0.358   4.098   0.251  0.4071 -0.3070  0.0376
19363TIP3    H179504   0.358   4.067   0.160  2.0231  2.4039 -1.0284
19363TIP3    H279505   0.417   4.039   0.297  0.6108 -0.9407 -1.0075
19364TIP3   OH279506   0.039   2.576   4.744  0.4355 -0.3298 -0.3846
19364TIP3    H179507   0.073   2.488   4.728  2.4297  0.3542 -0.2506
19364TIP3    H279508   0.062   2.624   4.664  3.3171  1.1005  1.1454
19365TIP3   OH279509   1.269   4.823  16.554  0.6615 -0.2534 -0.3260
19365TIP3    H179510   1.265   4.918  16.548 -1.3753 -0.2175  0.8327
19365TIP3    H279511   1.251   4.792  16.466 -1.6530  0.4450 -0.1530
19366TIP3   OH279512   6.059   3.969   4.876 -0.3592 -0.4759 -0.3246
19366TIP3    H179513   6.016   3.982   4.791  0.1027 -1.2938 -0.7000
19366TIP3    H279514   6.024   3.886   4.908 -0.2637 -0.3465  0.1231
19367TIP3   OH279515   0.829   1.838   5.528 -0.1244  0.2758 -0.0634
19367TIP3    H179516   0.809   1.746   5.546  2.1001  0.1772  2.6575
19367TIP3    H279517   0.872   1.837   5.443  0.3860 -1.2982  0.1752
19368TIP3   OH279518   1.815   0.530   4.861 -0.5891 -0.6535  0.3835
19368TIP3    H179519   1.837   0.565   4.774 -2.5151 -2.5167 -0.9534
19368TIP3    H279520   1.861   0.587   4.922  2.0657 -0.1303 -1.8772
19369TIP3   OH279521   6.670   2.869  10.823  0.5650  0.1042 -0.5105
19369TIP3    H179522   6.720   2.922  10.761  1.4885  0.4726  0.5170
19369TIP3    H279523   6.578   2.888  10.802  0.8741  1.9701 -0.3140
19370TIP3   OH279524   4.985   5.719   3.068  0.6709 -0.3258 -0.5796
19370TIP3    H179525   5.024   5.732   2.982  1.3677  0.8173 -0.1290
19370TIP3    H279526   5.037   5.776   3.126 -0.3185 -0.4173  0.4329
19371TIP3   OH279527   5.591   4.816  12.059  0.7855 -0.1440  0.0053
19371TIP3    H179528   5.611   4.779  12.145  1.6894  0.5959  0.1349
19371TIP3    H279529   5.561   4.905  12.078  3.1360  0.8453 -0.5227
19372TIP3   OH279530   4.284   5.153   0.250 -0.0791 -0.8587  0.8024
19372TIP3    H179531   4.220   5.213   0.213  0.4649 -0.4496  0.5085
19372TIP3    H279532   4.232   5.086   0.294 -0.7496 -1.2980 -0.5931
19373TIP3   OH279533   3.841   5.517  16.609 -0.0013 -0.0679  0.1145
19373TIP3    H179534   3.915   5.495  16.553  1.2800  0.0018  1.6864
19373TIP3    H279535   3.765   5.477  16.566  1.4581 -3.3151  0.2661
19374TIP3   OH279536   6.407   4.018  14.426 -0.2239 -0.2854 -0.0542
19374TIP3    H179537   6.313   4.002  14.436 -0.5408 -0.8897 -2.9827
19374TIP3    H279538   6.449   3.949  14.477 -1.3285  0.0862  1.4283
19375TIP3   OH279539   1.410   1.732  16.891  0.4164 -0.0728 -0.6108
19375TIP3    H179540   1.442   1.646  16.864 -0.6393 -1.4173  1.9666
19375TIP3    H279541   1.467   1.756  16.964  0.1228  0.9848 -0.7218
19376TIP3   OH279542   1.020   5.421  16.109 -0.2611 -0.5179 -0.3784
19376TIP3    H179543   0.979   5.430  16.023 -0.5758 -0.8118 -0.2618
19376TIP3    H279544   1.013   5.508  16.148 -0.9399 -0.6093 -0.2906
19377TIP3   OH279545   2.002   3.281   1.011  0.3053 -0.4326 -0.4323
19377TIP3    H179546   1.990   3.192   0.977  0.1953 -0.8696  0.6971
19377TIP3    H279547   1.913   3.317   1.013  0.4789  0.2038 -2.1066
19378TIP3   OH279548   4.116   2.476  14.962 -0.0238  0.4808  0.4634
19378TIP3    H179549   4.061   2.400  14.941 -0.9461  1.7026 -2.0271
19378TIP3    H279550   4.055   2.541  14.997  0.3118  0.9073  0.2615
19379TIP3   OH279551   3.750   5.714  14.559  0.6067  0.0328 -0.2318
19379TIP3    H179552   3.832   5.708  14.607  0.3831 -2.7440  0.0036
19379TIP3    H279553   3.775   5.733  14.469  1.4821 -0.4474 -0.0952
19380TIP3   OH279554   3.494   4.885   1.509  0.4356 -0.1015 -0.3688
19380TIP3    H179555   3.589   4.901   1.513  0.5701 -0.2874 -1.9586
19380TIP3    H279556   3.468   4.873   1.600  1.7786  0.8633  0.1934
19381TIP3   OH279557   1.677   0.575   0.109 -0.2266  0.2684  0.1236
19381TIP3    H179558   1.683   0.480   0.099  1.7471  0.2482  0.9799
19381TIP3    H279559   1.619   0.588   0.184  0.1459 -0.3096  0.5204
19382TIP3   OH279560   5.290   6.123  17.008 -0.9058  0.8438 -0.2838
19382TIP3    H179561   5.347   6.071  17.065 -1.6200 -0.0812 -0.3916
19382TIP3    H279562   5.203   6.084  17.019 -1.6104  2.4487  0.1596
19383TIP3   OH279563   3.560   3.232   3.151 -0.4180 -0.3547 -0.0916
19383TIP3    H179564   3.484   3.206   3.100  0.5544 -1.3280 -1.0760
19383TIP3    H279565   3.534   3.216   3.242 -1.2454 -1.0388 -0.4345
19384TIP3   OH279566   1.273   0.879   5.050  0.7836  0.5250 -0.7054
19384TIP3    H179567   1.288   0.876   5.145  4.9631 -0.6988 -1.1833
19384TIP3    H279568   1.179   0.864   5.040  0.4747 -1.4488  3.1571
19385TIP3   OH279569   0.678   6.195  15.465  0.5386 -0.2088 -0.1864
19385TIP3    H179570   0.747   6.163  15.408  0.3872  0.4006 -0.7250
19385TIP3    H279571   0.645   6.273  15.421 -1.1446 -1.0177 -0.4421
19386TIP3   OH279572   2.143   3.261  11.573 -0.0302  0.0800  0.1468
19386TIP3    H179573   2.194   3.246  11.652 -0.5811  0.8610  0.6554
19386TIP3    H279574   2.114   3.173  11.547 -0.8431 -0.0834  1.4932
19387TIP3   OH279575   3.289   4.046   5.523 -0.2214 -0.0132 -0.5402
19387TIP3    H179576   3.229   4.011   5.456 -1.3848  0.7934  0.0400
19387TIP3    H279577   3.287   4.141   5.509  1.0243  0.0228 -0.5691
19388TIP3   OH279578   1.181   1.828   1.616  0.0406  0.1946 -0.2852
19388TIP3    H179579   1.221   1.788   1.693  0.2987 -1.1954 -1.1039
19388TIP3    H279580   1.255   1.853   1.561  0.0554  4.3178  1.2901
19389TIP3   OH279581   6.406   3.349   5.782  0.5294 -0.3857  0.3954
19389TIP3    H179582   6.348   3.419   5.750 -0.0195  0.0659  2.2594
19389TIP3    H279583   6.441   3.309   5.703 -1.8126 -0.2220 -0.8082
19390TIP3   OH279584   1.646   4.610  13.201 -0.0027 -0.6534 -0.3659
19390TIP3    H179585   1.674   4.631  13.112 -0.0816 -0.7185 -0.4054
19390TIP3    H279586   1.557   4.643  13.207  0.3127  0.1570 -0.0250
19391TIP3   OH279587   1.208   5.920   1.760  1.0471  0.0616  0.4776
19391TIP3    H179588   1.125   5.874   1.745 -0.7165  1.6299  4.2347
19391TIP3    H279589   1.270   5.850   1.781  0.7367 -1.1294 -2.1455
19392TIP3   OH279590   0.806   0.450   0.069  0.1250 -0.6355  0.2168
19392TIP3    H179591   0.784   0.454  -0.024  0.5718 -0.8915  0.1014
19392TIP3    H279592   0.838   0.361   0.083  2.3909  0.1109  0.0938
19393TIP3   OH279593   3.537   4.651   1.257 -0.1659 -0.2858 -0.6310
19393TIP3    H179594   3.483   4.692   1.324  0.3679 -0.8639  0.1699
19393TIP3    H279595   3.512   4.558   1.259  0.5864 -0.4926 -0.5035
19394TIP3   OH279596   5.897   2.712  14.507 -0.2904 -0.1974 -0.1024
19394TIP3    H179597   5.804   2.735  14.507 -0.3414 -0.2922  1.4856
19394TIP3    H279598   5.934   2.764  14.436 -2.0701 -2.6141 -3.0535
19395TIP3   OH279599   4.517   5.125   0.147 -0.1829 -0.1016  0.2932
19395TIP3    H179600   4.434   5.117   0.193  1.0896 -2.9029  2.3708
19395TIP3    H279601   4.584   5.114   0.215  1.8775  0.5492 -1.5130
19396TIP3   OH279602   4.428   0.952   1.789  0.1566 -0.0801 -0.7575
19396TIP3    H179603   4.505   0.969   1.734  1.5570 -0.6023  0.9471
19396TIP3    H279604   4.386   0.876   1.748  1.3360 -0.6515 -0.9392
19397TIP3   OH279605   1.988   4.364   4.655 -0.1864  0.2235 -0.6173
19397TIP3    H179606   1.997   4.459   4.654 -1.1524  0.3352 -1.7205
19397TIP3    H279607   2.077   4.331   4.671  0.3489  1.2997 -1.2855
19398TIP3   OH279608   0.246   4.631   1.664  0.2317 -0.3077  0.0465
19398TIP3    H179609   0.328   4.679   1.672 -0.0498  0.0212  1.2189
19398TIP3    H279610   0.259   4.552   1.715  0.1630 -0.7493 -0.6089
19399TIP3   OH279611   2.057   6.546   4.899 -0.3564  0.2958  0.4389
19399TIP3    H179612   2.088   6.455   4.906  0.6361  0.6023  0.0692
19399TIP3    H279613   2.012   6.549   4.814  1.6800  0.7295 -0.6916
19400TIP3   OH279614   1.119   4.398  13.601  0.6800 -0.5449 -0.6731
19400TIP3    H179615   1.039   4.405  13.549  1.7703  0.8734 -2.2758
19400TIP3    H279616   1.114   4.471  13.663  0.8050 -0.3488 -0.8923
19401TIP3   OH279617   1.899   2.521  14.932 -0.1324  0.3094 -0.7458
19401TIP3    H179618   1.884   2.505  14.839 -2.2312 -1.5193 -0.1809
19401TIP3    H279619   1.816   2.556  14.965 -0.1981 -1.1361  0.7936
19402TIP3   OH279620   2.587   6.244  13.355 -0.0227 -0.8981  0.3480
19402TIP3    H179621   2.591   6.189  13.433  2.0326 -1.9830 -0.4583
19402TIP3    H279622   2.569   6.183  13.284 -1.3549  0.0106 -0.1413
19403TIP3   OH279623   5.051   6.051  12.683 -0.1075  0.3695  0.1254
19403TIP3    H179624   5.076   5.960  12.699 -1.6470 -0.3593 -1.3050
19403TIP3    H279625   5.015   6.050  12.594 -0.0043  2.4201  0.0283
19404TIP3   OH279626   4.760   2.594  14.190 -0.1526 -0.5399 -0.4095
19404TIP3    H179627   4.685   2.629  14.141 -0.3361  1.4618  1.1819
19404TIP3    H279628   4.826   2.663  14.186  1.3178 -1.9105 -1.0105
19405TIP3   OH279629   5.886   2.383  17.117  0.1501  0.2158 -0.0416
19405TIP3    H179630   5.842   2.404  17.200  0.9666  0.5833  0.3023
19405TIP3    H279631   5.897   2.467  17.073 -0.8638 -0.0414 -0.8421
19406TIP3   OH279632   0.752   0.102  11.038 -0.3175  0.0756 -0.5524
19406TIP3    H179633   0.806   0.169  10.997 -1.0348  1.0710  0.0902
19406TIP3    H279634   0.667   0.111  10.997 -1.7885  2.6988  2.5957
19407TIP3   OH279635   6.461   3.079  10.705 -0.1808 -0.3105  0.0839
19407TIP3    H179636   6.426   2.989  10.709  1.6519 -1.0294  1.4916
19407TIP3    H279637   6.523   3.077  10.633  1.5973 -0.9135  1.5555
19408TIP3   OH279638   5.773   0.063  16.785  0.0436 -0.0351 -0.1469
19408TIP3    H179639   5.850   0.118  16.799  0.4898 -1.0256  1.6765
19408TIP3    H279640   5.808  -0.026  16.777 -0.8510 -0.3912 -0.1977
19409TIP3   OH279641   2.182   4.527  13.039  0.0436  0.3553  0.1886
19409TIP3    H179642   2.274   4.525  13.066 -0.5072 -0.4762  2.1835
19409TIP3    H279643   2.158   4.620  13.044  0.5361  0.4682  0.5512
19410TIP3   OH279644   0.199   4.167   1.952 -0.4228 -0.3200 -0.2020
19410TIP3    H179645   0.183   4.257   1.925  0.8707 -0.0494 -0.1303
19410TIP3    H279646   0.294   4.156   1.943 -0.7292 -2.2137 -1.9070
19411TIP3   OH279647   2.191   6.686  15.232 -0.1915  0.1747 -0.5049
19411TIP3    H179648   2.237   6.758  15.276 -1.7086 -0.6890  2.7947
19411TIP3    H279649   2.251   6.658  15.163  2.3824  1.7574  0.9347
19412TIP3   OH279650   4.466   1.404  16.491 -0.2066  0.4089 -0.1100
19412TIP3    H179651   4.399   1.389  16.558 -0.1266  0.6516  0.0230
19412TIP3    H279652   4.421   1.383  16.408  0.0606 -1.0756  0.1049
19413TIP3   OH279653   3.078   4.143  11.645 -0.5224  0.1692  0.0469
19413TIP3    H179654   3.046   4.228  11.675 -1.2351 -0.2933  0.6269
19413TIP3    H279655   3.098   4.157  11.552 -0.2140  1.0827  0.2410
19414TIP3   OH279656   0.792   0.995   2.621  0.0134  0.4551 -0.4337
19414TIP3    H179657   0.838   0.994   2.705 -0.4914  2.0031 -0.0870
19414TIP3    H279658   0.827   1.072   2.576 -0.8390  0.5448 -0.9719
19415TIP3   OH279659   4.684   2.064  12.678  0.1042  0.2294 -0.0275
19415TIP3    H179660   4.728   1.988  12.639  0.1626 -0.0715  0.5956
19415TIP3    H279661   4.696   2.134  12.615 -0.3899 -0.4160 -0.8547
19416TIP3   OH279662   5.501   3.712   4.986 -0.8618  0.0526 -0.2079
19416TIP3    H179663   5.412   3.740   4.966 -2.2596 -2.0867  2.2939
19416TIP3    H279664   5.537   3.783   5.040 -1.8951  0.0388  0.5443
19417TIP3   OH279665   3.194   4.131  16.688 -0.6348 -0.2076  0.3508
19417TIP3    H179666   3.179   4.162  16.598 -1.7393 -0.0369  0.5785
19417TIP3    H279667   3.139   4.188  16.742  0.1743 -0.1832  1.1624
19418TIP3   OH279668   2.310   6.711  16.564 -0.6473 -0.0427 -0.0858
19418TIP3    H179669   2.397   6.683  16.593 -1.1479 -0.7908  0.7576
19418TIP3    H279670   2.306   6.686  16.472 -0.9488 -2.5459  0.5419
19419TIP3   OH279671   1.478   6.236  14.205 -0.1662 -0.2620  0.1577
19419TIP3    H179672   1.460   6.271  14.292  1.0453 -0.2757  0.4197
19419TIP3    H279673   1.556   6.283  14.175  0.0806 -1.0448 -0.4688
19420TIP3   OH279674   5.533   3.566   5.256  0.1182 -1.2607  0.1801
19420TIP3    H179675   5.604   3.576   5.319 -0.4508  0.3539  0.6331
19420TIP3    H279676   5.543   3.642   5.198 -1.5987 -0.6210  0.6576
19421TIP3   OH279677   1.043   6.297  13.432  0.0300 -0.1481  0.3533
19421TIP3    H179678   1.043   6.391  13.451  0.2386  0.3096 -1.6891
19421TIP3    H279679   0.965   6.283  13.378 -0.2721 -1.2614  1.0412
19422TIP3   OH279680   2.444   0.208  14.066 -0.0812 -0.3391 -0.8198
19422TIP3    H179681   2.485   0.155  13.998  0.2321  1.2321 -1.9106
19422TIP3    H279682   2.511   0.271  14.093 -0.4672 -0.4001  0.3563
19423TIP3   OH279683   0.689   0.602  14.887 -0.0767 -0.4127  0.6851
19423TIP3    H179684   0.609   0.616  14.835  0.1752  1.0022  0.6387
19423TIP3    H279685   0.760   0.631  14.829  0.6465 -2.9211  0.2060
19424TIP3   OH279686   1.806   2.046  11.736  0.0362  0.3404  0.0334
19424TIP3    H179687   1.769   1.972  11.689 -1.5925 -0.8678  2.9614
19424TIP3    H279688   1.740   2.115  11.730  0.7852  1.0128 -1.1671
19425TIP3   OH279689   4.361   0.599  13.217  0.1388  0.1322 -0.0495
19425TIP3    H179690   4.433   0.551  13.178 -0.0455 -1.0123  0.9415
19425TIP3    H279691   4.282   0.556  13.185 -0.0137 -0.9685  1.6636
19426TIP3   OH279692   0.525   3.043   4.747  0.3720  0.0927  0.3855
19426TIP3    H179693   0.519   3.128   4.704  0.1375 -0.5064 -0.7973
19426TIP3    H279694   0.452   3.041   4.808 -0.3285  0.2878 -0.4312
19427TIP3   OH279695   5.671   0.684  16.228  0.0782  0.1890  0.5608
19427TIP3    H179696   5.746   0.653  16.279  0.9860 -0.2207 -0.9635
19427TIP3    H279697   5.700   0.681  16.137 -1.0622  2.0593  0.0647
19428TIP3   OH279698   4.017   3.614   0.659 -0.2509  0.2120  0.4814
19428TIP3    H179699   3.987   3.658   0.580 -1.1137  0.5921  1.0013
19428TIP3    H279700   3.947   3.551   0.678 -1.0720  1.5207  2.0533
19429TIP3   OH279701   5.976   2.640   4.480 -0.5876 -0.2261  1.1232
19429TIP3    H179702   6.055   2.655   4.533 -0.0686 -0.7186  0.5149
19429TIP3    H279703   5.925   2.720   4.489 -0.1656 -0.0240  1.7838
19430TIP3   OH279704   6.128   1.672  14.814  0.5988 -0.6385  0.5653
19430TIP3    H179705   6.107   1.704  14.901 -0.3281  2.2817 -0.6012
19430TIP3    H279706   6.200   1.727  14.784 -0.3590 -0.2300 -1.1852
19431TIP3   OH279707   3.062   5.449  12.481  0.1510 -0.4443  0.2878
19431TIP3    H179708   3.149   5.481  12.458 -0.2025  0.6161  0.3553
19431TIP3    H279709   3.012   5.454  12.399 -0.5295  1.3549  0.7697
19432TIP3   OH279710   6.315   3.942   0.565 -0.2739 -0.4844  0.2597
19432TIP3    H179711   6.363   3.973   0.488 -0.0384 -0.2255  0.5112
19432TIP3    H279712   6.267   4.019   0.595 -1.8522 -1.0191 -0.7229
19433TIP3   OH279713   5.646   3.003   4.865  1.0599  0.6089  1.1202
19433TIP3    H179714   5.676   3.090   4.837  0.1000  0.1103 -1.8327
19433TIP3    H279715   5.720   2.945   4.848  0.3287  0.2292 -1.1284
19434TIP3   OH279716   1.583   1.549  11.880 -0.3671  0.4127  0.0561
19434TIP3    H179717   1.631   1.470  11.855 -1.7039 -0.6366  0.6775
19434TIP3    H279718   1.652   1.613  11.900  0.8212 -1.3246  1.9084
19435TIP3   OH279719   3.190   2.464  15.901 -0.0166  0.4701 -0.0224
19435TIP3    H179720   3.166   2.506  15.818  0.9801  1.1724  0.0174
19435TIP3    H279721   3.134   2.387  15.907 -1.1727  1.2465 -0.6065
19436TIP3   OH279722   2.238   0.927  14.600  0.4096 -0.3271 -0.0882
19436TIP3    H179723   2.156   0.881  14.618 -0.1564  1.4302  2.4059
19436TIP3    H279724   2.279   0.876  14.530 -1.3986 -2.9523  0.5945
19437TIP3   OH279725   6.595   2.867   3.668 -0.5935 -0.0540  0.2486
19437TIP3    H179726   6.669   2.829   3.621 -2.2131 -1.6405 -1.1660
19437TIP3    H279727   6.550   2.921   3.603 -2.5246 -1.7986  0.0329
19438TIP3   OH279728   1.835   5.601   3.584  0.3411 -0.0917  0.6281
19438TIP3    H179729   1.770   5.562   3.525 -1.4583 -1.8558  3.5491
19438TIP3    H279730   1.810   5.693   3.590 -0.2547 -0.1769 -0.3027
19439TIP3   OH279731   5.303   6.682  14.977  0.4697 -0.3514 -0.3163
19439TIP3    H179732   5.334   6.742  15.045  1.5540 -1.4799  0.2265
19439TIP3    H279733   5.377   6.670  14.918 -0.7987  1.5128 -2.4466
19440TIP3   OH279734   3.451   5.907  16.584  0.0718  0.2901 -0.2846
19440TIP3    H179735   3.385   5.962  16.542  0.8410  0.7745 -0.8768
19440TIP3    H279736   3.500   5.966  16.640 -0.6173 -0.2588  0.9435
19441TIP3   OH279737   6.318   1.158  15.806 -0.1421  0.1138  0.2297
19441TIP3    H179738   6.296   1.249  15.787  0.6690  0.3437  0.3475
19441TIP3    H279739   6.371   1.162  15.885  1.5411 -0.2429 -0.8089
19442TIP3   OH279740   4.303   5.123  16.417 -0.1869  0.1105 -0.2895
19442TIP3    H179741   4.241   5.054  16.440 -1.3957  0.9293 -1.0086
19442TIP3    H279742   4.282   5.145  16.327  0.2547  1.3476 -0.1086
19443TIP3   OH279743   3.562   6.061   5.850  0.0739 -0.1292  0.0531
19443TIP3    H179744   3.517   6.010   5.916  0.4879 -1.9547 -0.9998
19443TIP3    H279745   3.611   6.127   5.899 -1.5997  0.2019  1.3605
19444TIP3   OH279746   1.631   4.073  15.958  0.2397  0.0955 -0.0784
19444TIP3    H179747   1.551   4.044  16.002  0.3667 -3.8525 -1.9764
19444TIP3    H279748   1.702   4.038  16.011  0.5095 -0.7371 -0.9547
19445TIP3   OH279749   0.307   6.708   3.676  0.2821  0.2342  0.0449
19445TIP3    H179750   0.291   6.615   3.660  0.3108  0.2208  0.0929
19445TIP3    H279751   0.226   6.752   3.650  0.5901  0.2888 -0.8824
19446TIP3   OH279752   2.360   4.249   2.921  0.4399 -0.1731  0.1560
19446TIP3    H179753   2.403   4.334   2.930  0.8749 -0.1805 -1.5852
19446TIP3    H279754   2.431   4.188   2.897 -0.2124 -0.5633 -0.8516
19447TIP3   OH279755   4.252   3.341  11.580  0.3517 -0.4505 -0.5394
19447TIP3    H179756   4.167   3.301  11.565 -0.5371  0.9403  0.5459
19447TIP3    H279757   4.294   3.340  11.494 -1.4962  0.4774 -1.5175
19448TIP3   OH279758   3.546   5.979   6.191  0.1853 -0.0303  0.6901
19448TIP3    H179759   3.516   6.046   6.252 -1.0288 -0.7134  0.8810
19448TIP3    H279760   3.469   5.960   6.137  0.2512 -1.8286  1.1724
19449TIP3   OH279761   6.001   3.205   1.582  0.7127  0.4447  0.1118
19449TIP3    H179762   5.964   3.133   1.530  0.1244  0.5639  0.3612
19449TIP3    H279763   6.025   3.271   1.517 -1.5270  1.2982  0.0331
19450TIP3   OH279764   0.976   6.530  13.977  0.0066 -0.3565 -0.6840
19450TIP3    H179765   0.882   6.548  13.983  0.2511  1.2006 -1.2206
19450TIP3    H279766   0.986   6.485  13.893  0.0850  2.2958 -2.2078
19451TIP3   OH279767   6.067   3.422  14.451 -0.5460  0.3725  0.2088
19451TIP3    H179768   6.111   3.383  14.375  1.5579 -0.3702  1.7374
19451TIP3    H279769   6.021   3.349  14.492  3.1156 -0.7280  2.8757
19452TIP3   OH279770   5.000   6.671   4.607 -0.4103 -0.5630  0.0809
19452TIP3    H179771   5.060   6.597   4.602 -0.1978 -0.6245  2.4093
19452TIP3    H279772   4.920   6.640   4.567  0.8367 -0.7128 -2.4837
19453TIP3   OH279773   0.913   5.739   2.794 -0.0653 -0.6749 -0.3127
19453TIP3    H179774   0.844   5.804   2.805 -0.9219 -1.6333  0.2108
19453TIP3    H279775   0.988   5.788   2.761 -0.4919  0.6629  0.6361
19454TIP3   OH279776   5.292   0.098  15.234  0.3027  0.1947 -0.3218
19454TIP3    H179777   5.302   0.191  15.215 -0.0516 -0.0243 -1.7011
19454TIP3    H279778   5.361   0.078  15.297 -1.0187  1.8645  1.7854
19455TIP3   OH279779   0.161   1.222   1.098 -0.1385 -0.5000 -0.0350
19455TIP3    H179780   0.194   1.149   1.151 -0.6664 -0.4325  0.3907
19455TIP3    H279781   0.238   1.277   1.083 -0.2047  0.1202  1.7111
19456TIP3   OH279782   5.866   2.108  16.248  0.0057 -0.4104  0.9143
19456TIP3    H179783   5.802   2.177  16.232 -0.7491 -0.9265  1.5736
19456TIP3    H279784   5.843   2.074  16.335  1.0732 -0.7256  1.0940
19457TIP3   OH279785   5.199   3.729  15.212 -0.7884 -0.0959  0.8058
19457TIP3    H179786   5.211   3.812  15.166 -0.2336 -0.4050  0.3821
19457TIP3    H279787   5.173   3.754  15.300  0.6086  0.5633  1.0573
19458TIP3   OH279788   1.124   3.661   3.301  0.1869 -0.3568  0.0653
19458TIP3    H179789   1.090   3.657   3.212 -0.2083  0.4149  0.1675
19458TIP3    H279790   1.052   3.627   3.355  0.2178 -0.3009  0.1414
19459TIP3   OH279791   2.352   3.197  13.678  0.2191  0.1270 -0.0425
19459TIP3    H179792   2.260   3.173  13.677 -0.2854  1.9086  0.2330
19459TIP3    H279793   2.397   3.120  13.642 -1.0736 -1.8134  2.1925
19460TIP3   OH279794   3.429   1.138   5.373 -0.3677  0.6527 -0.4916
19460TIP3    H179795   3.509   1.091   5.396  0.3022  1.8960 -0.1503
19460TIP3    H279796   3.432   1.217   5.427 -2.7992 -0.1329  0.9405
19461TIP3   OH279797   0.112   4.066  16.332 -0.3909 -0.4178  0.2523
19461TIP3    H179798   0.100   3.984  16.381  0.4287 -0.6040  0.1586
19461TIP3    H279799   0.203   4.090  16.348 -0.8184  0.8615  0.8395
19462TIP3   OH279800   5.046   0.627  13.461  0.4252 -0.4448 -0.7666
19462TIP3    H179801   5.132   0.591  13.483  0.5135  0.1710 -0.0677
19462TIP3    H279802   4.994   0.550  13.437  0.4134 -1.1557  1.3155
19463TIP3   OH279803   6.071   0.079   0.381 -0.0244 -0.3034 -0.0262
19463TIP3    H179804   6.068   0.009   0.446  1.3897 -0.5944 -0.2410
19463TIP3    H279805   5.981   0.084   0.347 -0.1957 -1.8887  0.1268
19464TIP3   OH279806   3.410   2.639   5.276  0.7849  0.1348 -0.0126
19464TIP3    H179807   3.403   2.583   5.353  1.1955  1.3366  0.9400
19464TIP3    H279808   3.444   2.582   5.208  1.8686 -0.6278  1.1115
19465TIP3   OH279809   4.594   0.418  14.144 -0.1405 -0.3404  0.0058
19465TIP3    H179810   4.633   0.374  14.219 -1.0356 -0.0012  0.6903
19465TIP3    H279811   4.595   0.511  14.167  0.0678 -0.1738 -0.6399
19466TIP3   OH279812   4.642   3.377   3.460 -0.0636 -0.4520 -0.0032
19466TIP3    H179813   4.605   3.457   3.421 -1.9867 -0.4006  1.7807
19466TIP3    H279814   4.586   3.307   3.428  0.2848 -0.8156  0.1769
19467TIP3   OH279815   1.738   2.103   0.458 -1.0309  0.3821  0.0238
19467TIP3    H179816   1.834   2.096   0.461 -1.0234 -0.0155 -0.8690
19467TIP3    H279817   1.722   2.198   0.456 -0.6223  0.4418 -0.6619
19468TIP3   OH279818   1.878   4.941   5.293  0.2424 -0.1906 -0.4065
19468TIP3    H179819   1.922   5.011   5.341 -0.3974 -1.6322  2.4913
19468TIP3    H279820   1.945   4.907   5.233  0.9178  2.0070 -0.9910
19469TIP3   OH279821   2.205   2.209   5.452 -0.1058 -0.8161 -0.0319
19469TIP3    H179822   2.204   2.299   5.418 -0.5846 -0.1276  1.7043
19469TIP3    H279823   2.294   2.198   5.486 -0.0945 -0.9424 -0.1037
19470TIP3   OH279824   5.083   5.524  11.840 -0.5913  0.4234  0.1107
19470TIP3    H179825   5.130   5.575  11.906 -0.4442 -2.0896  2.0869
19470TIP3    H279826   5.150   5.497  11.778  0.1664 -0.9169  1.4513
19471TIP3   OH279827   2.590   0.659  14.387  0.1990 -0.1674 -0.1314
19471TIP3    H179828   2.675   0.702  14.381  0.9125 -1.3645  1.0384
19471TIP3    H279829   2.592   0.593  14.318  0.3881 -0.4539  0.1434
19472TIP3   OH279830   3.406   0.222   3.960 -0.2765 -0.0473 -0.4375
19472TIP3    H179831   3.334   0.203   3.901 -0.1005 -0.5876 -0.4887
19472TIP3    H279832   3.372   0.288   4.020 -0.7968 -0.2767 -0.4809
19473TIP3   OH279833   2.940   4.171  15.234 -0.6743  0.0513  0.1651
19473TIP3    H179834   2.893   4.197  15.154 -0.0857  2.5407  0.5270
19473TIP3    H279835   2.908   4.231  15.301  0.5203 -0.4695  1.2437
19474TIP3   OH279836   5.087   3.249   3.064 -0.4760  0.4668  0.1605
19474TIP3    H179837   5.033   3.323   3.037 -1.5751 -0.4336 -0.1910
19474TIP3    H279838   5.161   3.251   3.005 -1.0120  0.6893 -0.5156
19475TIP3   OH279839   5.635   4.339   4.652 -0.1591 -0.4346  0.3123
19475TIP3    H179840   5.668   4.428   4.667  0.2892 -0.6897  0.8829
19475TIP3    H279841   5.546   4.341   4.686  0.3530 -0.6040  1.7337
19476TIP3   OH279842   6.012   0.535  15.435 -0.1944 -0.5580  0.3603
19476TIP3    H179843   5.933   0.580  15.404  0.7729 -1.0318 -3.3435
19476TIP3    H279844   6.079   0.602  15.436  0.1121 -0.8569 -0.0062
19477TIP3   OH279845   5.899   5.643  14.721 -0.3130  0.5801 -0.2681
19477TIP3    H179846   5.840   5.704  14.677  1.7443  3.6603  0.8762
19477TIP3    H279847   5.865   5.636  14.810 -1.9403 -2.0994 -0.9890
19478TIP3   OH279848   4.252   1.668  15.658 -0.3127  0.4650  0.4590
19478TIP3    H179849   4.256   1.763  15.673  0.5761  0.3663  0.9421
19478TIP3    H279850   4.320   1.652  15.593 -0.6223  0.1886  0.2026
19479TIP3   OH279851   2.793   0.040   1.142 -0.4288  0.5079  0.4331
19479TIP3    H179852   2.796   0.106   1.212 -0.4071  1.1704 -0.1839
19479TIP3    H279853   2.702   0.044   1.110 -0.6005 -0.2104  0.8101
19480TIP3   OH279854   2.000   5.625  12.747  0.5048 -0.1697  0.1957
19480TIP3    H179855   2.066   5.645  12.813  0.1272  0.5485  0.3654
19480TIP3    H279856   1.918   5.617  12.796  0.1128  0.9840 -0.2368
19481TIP3   OH279857   5.028   4.984  15.845  0.7201  0.0297 -0.0471
19481TIP3    H179858   4.939   4.948  15.848  0.2090  0.9891 -2.1566
19481TIP3    H279859   5.070   4.937  15.773  1.6479  0.2164  0.3599
19482TIP3   OH279860   1.067   2.994  15.882  0.9539 -0.3726  0.5865
19482TIP3    H179861   1.086   2.901  15.886  1.1932 -0.2841  1.9930
19482TIP3    H279862   1.126   3.034  15.945  0.5969  0.6947  0.2724
19483TIP3   OH279863   1.296   6.256  11.680 -0.9124 -0.2427  0.4144
19483TIP3    H179864   1.207   6.284  11.656 -0.6027 -0.0959 -0.6339
19483TIP3    H279865   1.353   6.322  11.641 -0.2788 -1.0784 -0.1097
19484TIP3   OH279866   2.452   1.495  12.442  0.3593  0.0590  0.2575
19484TIP3    H179867   2.422   1.443  12.367  0.3153 -0.0138  0.3253
19484TIP3    H279868   2.542   1.519  12.420  0.5093 -0.3651  0.3934
19485TIP3   OH279869   5.723   1.158  16.949 -0.2051  0.0843 -0.1741
19485TIP3    H179870   5.644   1.103  16.954 -1.7972  2.3511  1.8135
19485TIP3    H279871   5.788   1.108  16.999 -0.7742 -1.2011 -0.6518
19486TIP3   OH279872   2.711   3.179   0.904  0.1435 -0.0681 -0.2545
19486TIP3    H179873   2.644   3.127   0.860  0.0840 -0.2285  0.0243
19486TIP3    H279874   2.662   3.241   0.958  0.2071 -1.2945  1.2654
19487TIP3   OH279875   3.473   5.615  14.589  0.3545 -0.3471  0.9584
19487TIP3    H179876   3.561   5.652  14.590  0.5284 -0.4907 -2.0951
19487TIP3    H279877   3.484   5.525  14.560 -0.8650 -0.0152 -0.6665
19488TIP3   OH279878   3.064   2.266  13.890 -0.2388 -0.1319 -0.5513
19488TIP3    H179879   3.113   2.272  13.972  0.1045  1.1388 -0.8214
19488TIP3    H279880   3.131   2.265  13.822 -0.5060 -1.6705 -0.8259
19489TIP3   OH279881   4.761   1.430   2.481  0.0880  0.0527  0.2487
19489TIP3    H179882   4.733   1.519   2.504  1.0949  0.5658 -0.4575
19489TIP3    H279883   4.852   1.440   2.452 -0.5279 -0.7909 -2.2276
19490TIP3   OH279884   4.181   2.008   4.539  0.3723 -0.2262  0.0220
19490TIP3    H179885   4.247   2.076   4.550  2.2023 -2.1637  1.9516
19490TIP3    H279886   4.208   1.960   4.461  0.0037  0.2702 -0.4138
19491TIP3   OH279887   4.183   1.873   0.212 -0.4133 -0.0690 -0.1480
19491TIP3    H179888   4.105   1.906   0.256  0.0186  0.2280  0.4108
19491TIP3    H279889   4.182   1.779   0.229 -1.0060 -0.1736 -0.7225
19492TIP3   OH279890   0.258   5.343   3.932  0.1426  0.0875  0.5692
19492TIP3    H179891   0.259   5.373   4.023 -0.9755  3.0501 -0.2653
19492TIP3    H279892   0.165   5.341   3.909  0.4440  2.6725 -1.3578
19493TIP3   OH279893   5.682   2.250   2.365 -0.7428  0.0409 -0.1623
19493TIP3    H179894   5.739   2.280   2.294  1.1477 -0.4091  1.0668
19493TIP3    H279895   5.656   2.329   2.411  0.9687  0.1481  0.7102
19494TIP3   OH279896   5.028   2.043  11.904 -0.1807  0.2320 -0.5248
19494TIP3    H179897   4.984   1.989  11.839 -0.8272 -0.1582  0.2166
19494TIP3    H279898   5.070   2.112  11.853 -0.2160 -0.3705 -1.3958
19495TIP3   OH279899   1.518   2.619   1.902  0.4918 -0.0053 -0.4669
19495TIP3    H179900   1.477   2.687   1.849  0.7341 -0.8132 -1.7307
19495TIP3    H279901   1.600   2.598   1.857  1.7454  0.6987  1.3417
19496TIP3   OH279902   3.267   0.856  16.851  0.1520 -0.1621  0.0831
19496TIP3    H179903   3.206   0.930  16.848 -0.9771 -1.0818 -1.8365
19496TIP3    H279904   3.353   0.895  16.838 -0.3141  0.9043  0.0846
19497TIP3   OH279905   1.258   1.564  14.226  0.2188 -0.4605 -0.0708
19497TIP3    H179906   1.339   1.589  14.181 -1.1764  3.2924 -0.9179
19497TIP3    H279907   1.190   1.576  14.160 -1.3896  0.1368  1.6111
19498TIP3   OH279908   2.261   6.192   5.509  0.1220 -0.0472  0.1472
19498TIP3    H179909   2.195   6.128   5.536 -1.0566  0.7511 -0.7576
19498TIP3    H279910   2.211   6.269   5.483  1.3537  0.2669 -1.4681
19499TIP3   OH279911   1.310   2.367  12.680  0.3348  0.2820  0.2915
19499TIP3    H179912   1.284   2.459  12.691  1.0302  0.2862  2.1843
19499TIP3    H279913   1.371   2.350  12.752  1.0652 -1.3728 -0.6600
19500TIP3   OH279914   6.782   4.320   6.362  0.6373 -0.0829  0.0070
19500TIP3    H179915   6.728   4.258   6.313  0.4676  0.0426  0.0346
19500TIP3    H279916   6.854   4.341   6.302 -0.2053  0.9939 -0.6753
19501TIP3   OH279917   0.348   3.556   0.216  0.0750  0.1633 -0.0952
19501TIP3    H179918   0.304   3.521   0.138  0.2312  1.5636 -0.8507
19501TIP3    H279919   0.420   3.496   0.232  0.3528  0.1208 -1.3613
19502TIP3   OH279920   6.638   2.677   4.473  0.6136  0.6323  0.1316
19502TIP3    H179921   6.576   2.745   4.499  0.8453  1.1500 -0.6413
19502TIP3    H279922   6.718   2.700   4.520  0.0880 -0.3634  1.5848
19503TIP3   OH279923   4.748   2.962   3.585 -0.3917 -0.3894  0.3792
19503TIP3    H179924   4.776   2.897   3.522 -0.5479 -0.3325  0.2499
19503TIP3    H279925   4.684   3.015   3.538 -0.0005  0.0810  0.3697
19504TIP3   OH279926   5.795   3.704  12.564  0.0645 -0.2222 -1.1700
19504TIP3    H179927   5.787   3.776  12.627  0.3618 -1.2008  0.0384
19504TIP3    H279928   5.888   3.680  12.568 -0.3186 -1.7181 -0.2998
19505TIP3   OH279929   5.733   1.389   3.782  0.6043  0.1267 -0.1097
19505TIP3    H179930   5.764   1.357   3.867 -0.7370 -1.6028 -0.2181
19505TIP3    H279931   5.765   1.479   3.777 -0.6271  0.8674  2.9564
19506TIP3   OH279932   4.797   1.553  11.320 -0.4174 -0.4755  0.6345
19506TIP3    H179933   4.763   1.592  11.400 -1.2403 -2.3223  1.2255
19506TIP3    H279934   4.876   1.604  11.301 -0.9750  0.9100  1.8007
19507TIP3   OH279935   5.431   3.630  10.246  0.1885  0.1422  0.2694
19507TIP3    H179936   5.470   3.717  10.249 -2.2892  1.3232  1.3969
19507TIP3    H279937   5.501   3.571  10.273  1.1406  2.1331  2.5348
19508TIP3   OH279938   0.456   4.206   2.418  0.2342  0.1238 -0.2889
19508TIP3    H179939   0.491   4.285   2.377  2.8192 -1.0660 -0.5748
19508TIP3    H279940   0.403   4.239   2.491 -1.1794  2.1499 -2.0800
19509TIP3   OH279941   3.989   1.202   1.040  0.7185  0.3164 -0.0946
19509TIP3    H179942   3.936   1.271   1.080  0.3504 -0.7993  1.4417
19509TIP3    H279943   3.937   1.122   1.050  1.6136 -0.3832 -0.8190
19510TIP3   OH279944   4.675   6.153   6.037 -0.3904 -0.2840  0.3655
19510TIP3    H179945   4.645   6.062   6.040  2.2932 -1.3437 -1.2486
19510TIP3    H279946   4.768   6.148   6.061  0.1538  1.8391 -1.0255
19511TIP3   OH279947   4.012   0.266   0.590  0.0880  0.5655  0.1600
19511TIP3    H179948   3.972   0.191   0.546  0.8392  0.5369 -0.5064
19511TIP3    H279949   4.028   0.329   0.520  1.2019  0.5606  0.3926
19512TIP3   OH279950   0.261   5.761   4.379  0.5071 -0.2657 -0.2726
19512TIP3    H179951   0.292   5.708   4.305 -0.8295  0.7101 -1.5811
19512TIP3    H279952   0.279   5.707   4.456  1.2202 -1.6487 -1.3643
19513TIP3   OH279953   1.067   1.844   3.325  0.3670 -0.0675 -0.0324
19513TIP3    H179954   1.090   1.807   3.410  1.0185  1.4300  0.4602
19513TIP3    H279955   0.972   1.856   3.330  0.5158  0.8234  0.8176
19514TIP3   OH279956   5.993   3.863   1.642 -0.9277 -0.6294  0.3289
19514TIP3    H179957   5.955   3.931   1.588  0.2777 -0.5262 -0.4274
19514TIP3    H279958   5.937   3.859   1.719 -2.2373 -0.2578 -0.5776
19515TIP3   OH279959   1.258   1.564   4.637  0.1259 -0.6302 -0.4658
19515TIP3    H179960   1.353   1.570   4.647  0.0488 -0.3956  0.1844
19515TIP3    H279961   1.225   1.543   4.724 -0.5206  0.6728 -0.3561
19516TIP3   OH279962   5.540   0.209   3.059  0.1289 -0.0041 -0.1546
19516TIP3    H179963   5.476   0.275   3.086  0.2017  0.6750 -1.5467
19516TIP3    H279964   5.607   0.210   3.128 -1.3789 -0.8210  1.3907
19517TIP3   OH279965   5.096   3.245   0.249  0.2943 -0.0057  0.1664
19517TIP3    H179966   5.191   3.253   0.238  0.3964 -2.4026 -1.3706
19517TIP3    H279967   5.078   3.152   0.237 -2.1535  0.1994  1.5457
19518TIP3   OH279968   6.202   2.890   3.718  0.8594 -0.3734 -0.1543
19518TIP3    H179969   6.238   2.956   3.660  0.2056  1.3367  1.2677
19518TIP3    H279970   6.137   2.938   3.770  0.8602 -1.9763  1.4109
19519TIP3   OH279971   3.146   3.321   0.790  0.5283  0.0157 -0.0184
19519TIP3    H179972   3.113   3.312   0.879 -2.0391 -2.2763 -1.0450
19519TIP3    H279973   3.191   3.239   0.772 -0.2339 -0.1649 -1.2493
19520TIP3   OH279974   0.431   1.208  13.974  0.5371  0.5472 -0.3684
19520TIP3    H179975   0.413   1.171  14.061  1.2271 -2.4106 -1.3592
19520TIP3    H279976   0.344   1.221  13.936  0.2422  1.4254  0.5637
19521TIP3   OH279977   5.322   2.065   0.173  0.4790 -0.2283 -0.0410
19521TIP3    H179978   5.234   2.066   0.211 -0.1573 -1.2172 -1.4439
19521TIP3    H279979   5.345   1.973   0.168 -0.2085 -0.3455 -3.6254
19522TIP3   OH279980   5.309   1.661  15.489 -0.5486 -0.0325  0.7430
19522TIP3    H179981   5.358   1.691  15.565  1.0128  0.5646 -0.4493
19522TIP3    H279982   5.310   1.736  15.428  2.3284 -1.9051 -1.7871
19523TIP3   OH279983   1.986   5.324   5.737  0.3632 -0.0136  0.8394
19523TIP3    H179984   2.011   5.331   5.645 -1.2883 -1.7094  0.1647
19523TIP3    H279985   1.890   5.334   5.736  0.4311  1.1097  2.5430
19524TIP3   OH279986   5.702   2.274   1.776 -0.1779  0.3310 -0.5487
19524TIP3    H179987   5.620   2.243   1.814  0.7290 -1.5539 -0.0340
19524TIP3    H279988   5.746   2.320   1.847 -0.6767  1.1467 -0.7607
19525TIP3   OH279989   6.721   3.852  14.231  0.2223  0.1921 -0.0582
19525TIP3    H179990   6.708   3.937  14.189  1.5188  0.7342  0.5552
19525TIP3    H279991   6.809   3.826  14.204  1.3980  0.8728  2.7391
19526TIP3   OH279992   4.912   4.678   2.424 -0.2566  0.8954 -0.4097
19526TIP3    H179993   4.882   4.594   2.390 -1.2798  0.1850  2.0362
19526TIP3    H279994   4.907   4.738   2.350  0.6056 -1.1852 -2.2482
19527TIP3   OH279995   0.215   5.081  14.630  0.1886 -0.2811  0.1951
19527TIP3    H179996   0.254   5.076  14.717 -2.1607 -0.4314  1.3090
19527TIP3    H279997   0.167   4.998  14.621  0.8028 -0.4850 -1.4653
19528TIP3   OH279998   0.352   1.318  13.320  0.6578  0.2890  0.0216
19528TIP3    H179999   0.443   1.336  13.342  0.1951  2.2627  0.5125
19528TIP3    H280000   0.302   1.358  13.390 -0.6170 -0.2372 -0.5531
19529TIP3   OH280001   3.464   5.768  17.043  0.2252 -0.1209  0.1834
19529TIP3    H180002   3.500   5.693  17.091 -0.3637  0.4448  1.5421
19529TIP3    H280003   3.477   5.842  17.102 -0.3360  0.6298 -0.6284
19530TIP3   OH280004   4.883   3.542  14.849  0.0941 -0.2868  0.3382
19530TIP3    H180005   4.824   3.565  14.777 -0.6539 -1.6853  0.4653
19530TIP3    H280006   4.911   3.626  14.885 -1.8412  0.4298  0.2809
19531TIP3   OH280007   1.987   2.863  15.725  0.7205  0.1324 -0.2288
19531TIP3    H180008   1.923   2.859  15.796 -0.1487  1.0575 -0.9244
19531TIP3    H280009   2.001   2.772  15.700 -1.8122 -0.0435 -1.3365
19532TIP3   OH280010   5.601   1.060  12.134 -0.2162 -0.4131 -0.2439
19532TIP3    H180011   5.542   1.097  12.200  1.1896 -1.8948  2.0048
19532TIP3    H280012   5.562   1.084  12.050 -3.1215 -0.0083  1.1095
19533TIP3   OH280013   4.214   1.677   4.726  0.7274  0.0854 -0.7489
19533TIP3    H180014   4.176   1.591   4.709  0.1541  0.3029 -0.5925
19533TIP3    H280015   4.257   1.701   4.644  0.7373 -0.2714 -0.8495
19534TIP3   OH280016   2.932   1.992   0.721 -0.1936  0.1325 -0.1549
19534TIP3    H180017   2.956   2.074   0.678 -0.1641 -0.5219 -1.4254
19534TIP3    H280018   2.949   2.008   0.814  0.5250  1.3085 -0.4687
19535TIP3   OH280019   5.538   2.923   3.800  0.6234  0.2130 -0.2346
19535TIP3    H180020   5.624   2.923   3.842  1.0426 -0.5489 -1.0575
19535TIP3    H280021   5.518   2.830   3.786  0.6729  0.4354 -2.0503
19536TIP3   OH280022   4.164   0.516  10.699  0.4486 -0.0383 -0.0988
19536TIP3    H180023   4.229   0.498  10.767 -0.1580  0.1077  0.5348
19536TIP3    H280024   4.080   0.508  10.744  0.0490  4.2327  0.3191
19537TIP3   OH280025   3.253   0.065   3.604  0.1624  0.5145 -0.2279
19537TIP3    H180026   3.337   0.031   3.635 -0.9294  0.3455  2.8687
19537TIP3    H280027   3.242   0.148   3.651 -0.5835  1.4970 -2.0471
19538TIP3   OH280028   3.180   2.712   0.397 -0.0825 -0.0230 -0.1029
19538TIP3    H180029   3.217   2.676   0.316 -0.8316  0.5937 -0.7306
19538TIP3    H280030   3.253   2.710   0.459  0.8672  0.6830 -1.1580
19539TIP3   OH280031   3.167   5.498   1.694 -1.0287  0.5562 -0.2822
19539TIP3    H180032   3.225   5.554   1.643 -1.1242  0.5486 -0.3971
19539TIP3    H280033   3.088   5.550   1.707 -2.4118 -0.6656 -3.0556
19540TIP3   OH280034   6.138   4.567   5.977 -0.0069 -0.1984 -0.4873
19540TIP3    H180035   6.218   4.547   5.929  0.4271  0.8731 -0.2270
19540TIP3    H280036   6.167   4.579   6.068 -0.3699  0.7464 -0.4876
19541TIP3   OH280037   0.680   3.897  12.920 -0.0444  0.1267  0.5065
19541TIP3    H180038   0.639   3.827  12.970  0.9496 -1.0529 -0.2773
19541TIP3    H280039   0.679   3.866  12.830  0.2395  1.2116  0.1120
19542TIP3   OH280040   3.610   1.088   6.582 -0.9301  0.1993  0.6245
19542TIP3    H180041   3.635   1.139   6.506 -1.1344  1.9263  1.6640
19542TIP3    H280042   3.691   1.079   6.633 -1.1334  0.5105  1.0108
19543TIP3   OH280043   1.977   5.520  11.938  0.2861  0.2430 -0.9264
19543TIP3    H180044   1.933   5.564  11.866  0.2467  1.0495 -0.4208
19543TIP3    H280045   1.990   5.588  12.004  0.6067 -0.4076 -0.3004
19544TIP3   OH280046   6.649   3.799  16.214 -0.0429  0.6738 -0.5347
19544TIP3    H180047   6.645   3.853  16.293  0.6426 -0.1045  0.0493
19544TIP3    H280048   6.740   3.770  16.210 -0.5807 -1.1427 -0.3523
19545TIP3   OH280049   1.889   0.938   4.720 -0.6101 -0.4310  0.0959
19545TIP3    H180050   1.857   0.865   4.667  0.5185 -1.1453  0.3538
19545TIP3    H280051   1.854   0.922   4.808 -0.5239 -0.5642  0.1067
19546TIP3   OH280052   3.815   3.202   4.630 -0.0977  0.0918 -0.2688
19546TIP3    H180053   3.872   3.278   4.641  1.3601 -0.6052 -2.3288
19546TIP3    H280054   3.856   3.134   4.684 -0.2061  0.1902 -0.0627
19547TIP3   OH280055   0.798   1.741   0.313 -0.1111 -0.0552 -0.5258
19547TIP3    H180056   0.800   1.738   0.409  0.3308 -0.2624 -0.5382
19547TIP3    H280057   0.888   1.723   0.287 -0.4543 -1.1426 -1.0149
19548TIP3   OH280058   4.609   0.843  15.699  0.3828  0.0414 -0.3863
19548TIP3    H180059   4.657   0.781  15.754  1.4497  0.9089 -0.3247
19548TIP3    H280060   4.620   0.927  15.742 -0.3737  0.4263 -0.9190
19549TIP3   OH280061   5.838   1.128  14.615 -0.2561 -0.4835  0.5297
19549TIP3    H180062   5.753   1.126  14.571 -0.1507 -0.6067  0.3272
19549TIP3    H280063   5.847   1.041  14.654  0.2459 -0.8486 -0.3608
19550TIP3   OH280064   0.796   2.461   0.094 -0.3465 -0.4281 -0.3251
19550TIP3    H180065   0.843   2.519   0.033  0.3698 -0.2709  0.3637
19550TIP3    H280066   0.825   2.373   0.070 -0.2958 -0.3884 -0.4119
19551TIP3   OH280067   3.161   0.856   2.797  0.4981 -0.2315 -0.7236
19551TIP3    H180068   3.233   0.815   2.845  1.1849  3.0548  1.3558
19551TIP3    H280069   3.082   0.831   2.846  0.8277  0.2970  0.0990
19552TIP3   OH280070   3.111   3.733  17.177 -0.0894 -0.5870  0.2583
19552TIP3    H180071   3.043   3.756  17.113  0.6084  0.0390 -0.2789
19552TIP3    H280072   3.074   3.758  17.261  0.2521  1.7851 -0.2064
19553TIP3   OH280073   5.892   6.544   1.037 -0.7904 -0.0354 -0.4184
19553TIP3    H180074   5.847   6.628   1.030 -1.2214 -0.2941 -0.8210
19553TIP3    H280075   5.843   6.495   1.103 -2.5331 -1.1649 -2.3937
19554TIP3   OH280076   6.335   3.156   5.299  0.1048  0.2912 -0.0612
19554TIP3    H180077   6.312   3.064   5.302  1.0824  0.0681  1.0634
19554TIP3    H280078   6.403   3.162   5.231  1.8819 -0.2952  1.5570
19555TIP3   OH280079   1.007   1.913  14.763 -0.2592 -0.2279  0.5325
19555TIP3    H180080   0.955   1.985  14.798 -1.3093 -0.3951 -0.5924
19555TIP3    H280081   0.959   1.834  14.788  0.0519 -0.4413  0.4548
19556TIP3   OH280082   5.867   0.706   1.543 -0.0097 -0.2372 -0.3389
19556TIP3    H180083   5.925   0.636   1.515 -0.6028 -0.1735 -1.7701
19556TIP3    H280084   5.916   0.787   1.525  0.9466 -0.2327  1.9150
19557TIP3   OH280085   0.529   3.413   2.648  0.1411  0.3514  0.0264
19557TIP3    H180086   0.454   3.355   2.652 -0.9329  1.7004  0.1481
19557TIP3    H280087   0.524   3.453   2.561  0.2241  1.0767  0.3469
19558TIP3   OH280088   2.265   2.915  13.778 -0.1014 -0.1111  0.0486
19558TIP3    H180089   2.222   2.842  13.823 -2.7129  0.4068 -1.4059
19558TIP3    H280090   2.258   2.893  13.685 -1.5040  2.1712 -0.4760
19559TIP3   OH280091   1.796   5.507  12.966 -0.0954 -0.0338 -0.1487
19559TIP3    H180092   1.862   5.461  13.019 -0.7721 -0.4746  0.3228
19559TIP3    H280093   1.728   5.532  13.029 -0.5214  0.1657 -0.6813
19560TIP3   OH280094   5.804   1.634   3.050  0.2327 -0.3941 -0.1984
19560TIP3    H180095   5.860   1.711   3.059  0.0056 -0.1968 -0.4303
19560TIP3    H280096   5.719   1.663   3.085  0.1083 -0.4938 -0.4192
19561TIP3   OH280097   1.876   4.298  16.468  0.3102 -0.1654  0.0251
19561TIP3    H180098   1.792   4.289  16.512 -0.0827  1.6640 -0.2741
19561TIP3    H280099   1.854   4.336  16.382  1.2966 -1.1771 -0.7031
19562TIP3   OH280100   0.652   0.112   2.999 -0.5675  0.3879 -0.0250
19562TIP3    H180101   0.635   0.141   3.089  0.9994  2.7012 -0.3886
19562TIP3    H280102   0.747   0.116   2.990 -0.7266  0.5923 -1.9194
19563TIP3   OH280103   5.227   2.370  12.077  0.0645  0.1380 -0.1198
19563TIP3    H180104   5.262   2.310  12.011  1.3664 -1.9145  2.2691
19563TIP3    H280105   5.284   2.447  12.072  2.2214 -1.3153  0.6787
19564TIP3   OH280106   2.512   6.684   4.552  0.5261  0.1197  0.1810
19564TIP3    H180107   2.511   6.705   4.645 -1.5435 -0.8679  0.4453
19564TIP3    H280108   2.494   6.767   4.508 -1.1886  0.1340  0.8422
19565TIP3   OH280109   3.990   2.124  12.553 -0.3710 -0.7875  0.2022
19565TIP3    H180110   4.044   2.096  12.626 -0.9804  0.7480  1.2955
19565TIP3    H280111   4.049   2.172  12.495 -0.3364 -0.1149  0.7993
19566TIP3   OH280112   4.729   1.698   3.737  0.1746 -0.0872  0.5581
19566TIP3    H180113   4.760   1.609   3.753  1.1287  0.0786 -0.2007
19566TIP3    H280114   4.648   1.706   3.787  2.1107 -0.0450  4.0336
19567TIP3   OH280115   3.278   4.558   4.135  0.4938  0.3727 -0.1459
19567TIP3    H180116   3.301   4.596   4.219 -0.1349  1.8806 -0.6283
19567TIP3    H280117   3.222   4.484   4.156  1.2173  0.0751  0.7914
19568TIP3   OH280118   6.505   4.028  12.013  0.3300 -0.5282  0.0345
19568TIP3    H180119   6.445   4.102  12.010  1.0679  0.0460 -1.9552
19568TIP3    H280120   6.568   4.046  11.944  1.8546 -1.9172  1.0047
19569TIP3   OH280121   0.368   2.106   6.601 -0.7374  0.0675 -0.1773
19569TIP3    H180122   0.460   2.130   6.585 -0.7101  1.5531  1.7855
19569TIP3    H280123   0.319   2.186   6.581 -1.5460 -0.5234 -0.5942
19570TIP3   OH280124   1.376   6.489   3.719 -0.2084 -0.1058 -0.1345
19570TIP3    H180125   1.422   6.490   3.803 -0.4725 -0.4533  0.0131
19570TIP3    H280126   1.435   6.535   3.659 -0.6996  1.5310  0.5951
19571TIP3   OH280127   4.065   4.496   2.125 -0.2928 -0.1794 -0.4091
19571TIP3    H180128   4.150   4.516   2.165  0.1750  0.5109 -1.6892
19571TIP3    H280129   4.086   4.434   2.055 -0.4280  1.8968 -2.3880
19572TIP3   OH280130   0.587   2.579   6.201  0.1838  0.0687 -0.0658
19572TIP3    H180131   0.677   2.549   6.189  0.2904  0.2784  0.1879
19572TIP3    H280132   0.595   2.657   6.256 -0.1688 -0.0303  0.1321
19573TIP3   OH280133   1.187   3.877  15.910  0.0972  0.0947  0.8181
19573TIP3    H180134   1.152   3.965  15.924 -0.8554 -0.5118  2.5033
19573TIP3    H280135   1.158   3.827  15.985  0.6085 -1.6962 -0.1105
19574TIP3   OH280136   4.002   3.413   5.380  0.3117  0.6188  0.3272
19574TIP3    H180137   4.014   3.479   5.312  1.2490 -0.3889 -0.5255
19574TIP3    H280138   3.917   3.373   5.361  0.7743  0.0214 -0.5648
19575TIP3   OH280139   5.715   1.816  13.963  0.2879  0.0013  0.3576
19575TIP3    H180140   5.795   1.773  13.934 -0.3760 -0.3884 -1.0063
19575TIP3    H280141   5.744   1.900  13.998  1.3901 -0.6173  0.9742
19576TIP3   OH280142   1.158   2.249  14.621 -0.0624 -0.2730  0.6488
19576TIP3    H180143   1.086   2.203  14.577  0.1502  2.1779 -2.7153
19576TIP3    H280144   1.236   2.200  14.595  0.0055  0.8443 -1.5129
19577TIP3   OH280145   0.222   5.660   2.677  0.2525  0.3229  0.1632
19577TIP3    H180146   0.253   5.671   2.767  0.4314 -0.5340  0.2217
19577TIP3    H280147   0.129   5.642   2.686  0.5474 -1.2757  0.3089
19578TIP3   OH280148   2.481   4.351   1.375  0.1478  0.5419 -0.0779
19578TIP3    H180149   2.522   4.405   1.308  0.1307 -1.1102 -1.4789
19578TIP3    H280150   2.407   4.310   1.330 -1.5206  1.4652  1.6987
19579TIP3   OH280151   4.853   5.592   3.965  0.1626  0.1846  0.0778
19579TIP3    H180152   4.937   5.563   3.929  0.7280  0.6850  0.9812
19579TIP3    H280153   4.875   5.663   4.025 -0.9193  0.3970  0.2431
19580TIP3   OH280154   1.221   4.241   1.591 -0.2200 -0.2558 -0.7218
19580TIP3    H180155   1.186   4.297   1.661 -0.2619 -0.4254 -0.6056
19580TIP3    H280156   1.298   4.201   1.630 -0.9716 -1.3564 -0.3230
19581TIP3   OH280157   1.914   4.400  11.885  0.1084  0.5227 -0.2759
19581TIP3    H180158   1.971   4.335  11.844 -0.0126  0.2419  0.0020
19581TIP3    H280159   1.825   4.374  11.859 -0.0175 -0.0420  0.6999
19582TIP3   OH280160   6.047   0.659   3.892 -0.5257 -0.9750 -0.3680
19582TIP3    H180161   6.140   0.663   3.911 -0.1903 -0.7678 -1.9013
19582TIP3    H280162   6.008   0.619   3.969  0.4416  1.4799  1.5472
19583TIP3   OH280163   5.875   5.510  13.691  0.3379 -0.1127 -0.1870
19583TIP3    H180164   5.956   5.461  13.683  0.0456 -0.4261 -1.3865
19583TIP3    H280165   5.823   5.484  13.615 -1.2907 -0.6405  1.0506
19584TIP3   OH280166   3.586   0.774  12.064 -0.0878 -0.5530  0.0861
19584TIP3    H180167   3.512   0.720  12.093  0.9171 -1.5547  0.8636
19584TIP3    H280168   3.655   0.755  12.128  1.1356 -0.3351 -1.1442
19585TIP3   OH280169   2.334   0.882  12.214 -0.1936 -0.2469  0.2314
19585TIP3    H180170   2.421   0.869  12.176 -0.3187 -0.9262  0.1542
19585TIP3    H280171   2.303   0.964  12.177  2.1194  2.3554  3.4787
19586TIP3   OH280172   6.249   2.715  16.912  0.1750 -0.4065 -0.4572
19586TIP3    H180173   6.167   2.753  16.945 -1.0312 -0.5383 -3.0647
19586TIP3    H280174   6.317   2.773  16.946 -0.7830 -0.9976  2.8573
19587TIP3   OH280175   4.822   0.708   1.706  0.9628  0.3214  0.0498
19587TIP3    H180176   4.860   0.771   1.767 -1.5953  1.2771  0.7395
19587TIP3    H280177   4.730   0.703   1.729  0.4491 -1.3672 -2.0035
19588TIP3   OH280178   6.586   6.564  13.129  0.4367 -0.1234 -0.3037
19588TIP3    H180179   6.531   6.487  13.116 -1.6180  1.4149 -1.3356
19588TIP3    H280180   6.675   6.530  13.127 -0.3368 -2.3425 -1.7488
19589TIP3   OH280181   6.455   2.313   1.724  0.8060 -0.0033 -0.0567
19589TIP3    H180182   6.363   2.294   1.710  0.8014 -1.0035  1.1738
19589TIP3    H280183   6.499   2.228   1.718  1.5408  0.3556  0.1100
19590TIP3   OH280184   0.691   0.022   1.829  0.3416 -0.1605  0.4129
19590TIP3    H180185   0.678  -0.047   1.893  1.4065 -0.4893  0.2952
19590TIP3    H280186   0.606   0.065   1.822 -0.3573 -1.5145  0.4159
19591TIP3   OH280187   3.667   4.327  14.436 -0.4909  0.1160 -0.4239
19591TIP3    H180188   3.575   4.319  14.412 -0.8899  2.3478  0.2031
19591TIP3    H280189   3.667   4.344  14.530  0.6807 -1.3827 -0.1023
19592TIP3   OH280190   0.020   4.337  16.723  0.4619  0.3349  0.2642
19592TIP3    H180191   0.018   4.369  16.813 -0.7325 -0.2570  0.4787
19592TIP3    H280192   0.031   4.242  16.732 -2.7455 -0.1942 -0.0044
19593TIP3   OH280193   4.735   3.895  14.047  0.1812 -0.1057 -0.0333
19593TIP3    H180194   4.747   3.819  14.104  0.6020 -0.4626 -0.5887
19593TIP3    H280195   4.757   3.863  13.960  0.3368  0.6517 -0.2783
19594TIP3   OH280196   4.537   4.305  13.320 -0.0648 -0.3143 -0.1449
19594TIP3    H180197   4.539   4.368  13.393  0.2319 -1.1847  0.6114
19594TIP3    H280198   4.505   4.224  13.360 -1.2300 -0.4421 -1.2797
19595TIP3   OH280199   2.617   0.280   1.322  0.4042  0.1836  0.1040
19595TIP3    H180200   2.568   0.279   1.240 -1.2933 -0.4286  1.0809
19595TIP3    H280201   2.626   0.188   1.346 -0.2135  0.3889  1.2055
19596TIP3   OH280202   4.907   4.534  14.636 -0.1468  0.5971 -0.6258
19596TIP3    H180203   4.835   4.486  14.676 -0.8504  0.6975 -1.7385
19596TIP3    H280204   4.933   4.481  14.560  0.1943  1.1195 -0.8834
19597TIP3   OH280205   0.079   4.084   3.021  0.0623  0.4181 -0.0042
19597TIP3    H180206   0.075   4.000   2.976  1.3134 -1.1499  2.5999
19597TIP3    H280207   0.038   4.145   2.960 -1.7877 -2.2096 -1.6249
19598TIP3   OH280208   2.839   5.385   6.240 -0.0692  0.1627  0.3532
19598TIP3    H180209   2.930   5.358   6.228 -0.2201 -1.1554  1.8151
19598TIP3    H280210   2.821   5.369   6.333 -1.4421  1.5301  0.3689
19599TIP3   OH280211   3.002   5.241  11.841 -0.7894  0.4310 -0.2504
19599TIP3    H180212   2.930   5.262  11.781 -0.8957  1.9875  0.3739
19599TIP3    H280213   3.040   5.161  11.805 -1.6580  0.6044 -1.6519
19600TIP3   OH280214   4.500   3.116   2.517  0.3765  0.4499  0.2828
19600TIP3    H180215   4.414   3.083   2.491 -0.5786  0.7497  2.7687
19600TIP3    H280216   4.484   3.205   2.548  1.2141 -0.0599  2.3747
19601TIP3   OH280217   3.237   2.837   3.076 -0.0658 -0.7968 -0.4088
19601TIP3    H180218   3.296   2.821   3.149 -0.7015 -0.7167  0.1304
19601TIP3    H280219   3.208   2.751   3.048 -1.2456 -0.7666  0.6320
19602TIP3   OH280220   2.310   1.255   2.576  0.3307  0.5977  0.3144
19602TIP3    H180221   2.227   1.298   2.596  0.4477  0.6874  0.6117
19602TIP3    H280222   2.288   1.189   2.511 -0.1240  0.0631  0.9968
19603TIP3   OH280223   0.711   6.475  12.648 -0.2462  0.4275 -0.2315
19603TIP3    H180224   0.740   6.566  12.646  0.1990  0.3728  1.4816
19603TIP3    H280225   0.692   6.458  12.741 -2.1204 -0.6849 -0.7713
19604TIP3   OH280226   6.180   5.811  11.771  0.1561 -0.2641 -0.0077
19604TIP3    H180227   6.151   5.848  11.688  0.0877  2.5240  1.1217
19604TIP3    H280228   6.252   5.752  11.748 -1.6870 -1.8261 -2.2141
19605TIP3   OH280229   4.199   0.111  11.673 -0.6346 -0.3503 -0.1344
19605TIP3    H180230   4.166   0.063  11.597 -2.9557 -0.5426  0.9298
19605TIP3    H280231   4.135   0.095  11.741  0.2975  1.5409  1.2696
19606TIP3   OH280232   6.259   3.600   0.707 -0.1107 -0.5877 -0.6501
19606TIP3    H180233   6.349   3.624   0.682 -0.2031  0.7470  0.1914
19606TIP3    H280234   6.205   3.666   0.665 -0.6996 -1.2764 -0.9925
19607TIP3   OH280235   4.417   0.408   3.770 -0.0493  0.1679  0.5780
19607TIP3    H180236   4.500   0.361   3.762  0.2484  0.8575 -0.6532
19607TIP3    H280237   4.355   0.358   3.718  0.0388  0.6145  0.0343
19608TIP3   OH280238   6.336   1.670  16.821  0.1326 -0.0166 -0.1854
19608TIP3    H180239   6.379   1.596  16.778  0.9165 -0.9769  2.0886
19608TIP3    H280240   6.408   1.723  16.856 -0.4678  0.4764  0.3354
19609TIP3   OH280241   3.480   2.770  15.547 -0.0691  0.0411  0.6922
19609TIP3    H180242   3.471   2.836  15.478 -0.8995  0.1091  0.8596
19609TIP3    H280243   3.420   2.799  15.616 -1.9011 -1.8805 -0.0099
19610TIP3   OH280244   0.338   3.437   6.159  0.2831  0.1776  0.4062
19610TIP3    H180245   0.258   3.392   6.187  0.1198 -0.9978 -1.7648
19610TIP3    H280246   0.408   3.376   6.181  0.6029  1.0514  1.9695
19611TIP3   OH280247   5.257   3.921  11.713 -0.3347 -0.3233 -0.3873
19611TIP3    H180248   5.222   3.833  11.702  1.0536 -0.8957 -0.3444
19611TIP3    H280249   5.295   3.943  11.627  2.2192 -1.0947  0.4729
19612TIP3   OH280250   4.495   0.415  13.076  0.3896  0.2246  0.8378
19612TIP3    H180251   4.566   0.426  13.012  0.4336  0.9824  0.9980
19612TIP3    H280252   4.431   0.359  13.033 -1.2906  3.5233 -1.3560
19613TIP3   OH280253   3.888   3.350  10.865 -0.0132  0.1798  0.1533
19613TIP3    H180254   3.808   3.349  10.812  0.7202  2.4309 -1.1300
19613TIP3    H280255   3.906   3.258  10.883 -1.2223 -0.5885 -2.1444
19614TIP3   OH280256   3.999   3.789   1.191  0.3319 -0.4199  0.4075
19614TIP3    H180257   3.977   3.820   1.104  3.5282  0.3811 -0.2716
19614TIP3    H280258   4.009   3.869   1.243  0.4311 -0.7724  0.9379
19615TIP3   OH280259   0.384   4.704  14.126  0.0503  0.2884  0.0464
19615TIP3    H180260   0.325   4.777  14.106 -1.4827  0.0975  3.2188
19615TIP3    H280261   0.330   4.626  14.117  1.4564 -0.5002 -2.5092
19616TIP3   OH280262   3.184   0.791  14.066  0.5340  0.1012  0.4125
19616TIP3    H180263   3.115   0.857  14.067  1.9591  1.7292 -1.3718
19616TIP3    H280264   3.166   0.736  14.142 -1.7979  1.3911  0.8812
19617TIP3   OH280265   4.763   0.532   3.902 -0.2800 -0.2245 -0.0993
19617TIP3    H180266   4.745   0.589   3.977  1.4328 -0.6898  0.7046
19617TIP3    H280267   4.782   0.446   3.941 -0.5522 -0.7849 -1.1544
19618TIP3   OH280268   1.863   2.212   6.120  0.4276  0.3465  0.0955
19618TIP3    H180269   1.951   2.196   6.086  0.7596  1.5319  0.3562
19618TIP3    H280270   1.877   2.268   6.197 -0.3074 -1.9744  2.0361
19619TIP3   OH280271   4.491   1.390  14.025 -0.0137  0.1074 -0.1016
19619TIP3    H180272   4.516   1.443  14.100 -0.0465 -1.4121  1.0122
19619TIP3    H280273   4.396   1.377  14.035 -0.1945  0.6634 -0.9329
19620TIP3   OH280274   5.836   1.857  11.965  0.5592 -0.0497  0.0418
19620TIP3    H180275   5.837   1.936  12.019  2.4556 -0.1343  0.1955
19620TIP3    H280276   5.827   1.785  12.028 -2.1173  0.0119 -0.1588
19621TIP3   OH280277   0.186   5.787  16.324  0.5621 -0.0498  0.1622
19621TIP3    H180278   0.201   5.792  16.230 -0.6672 -3.0256 -0.3039
19621TIP3    H280279   0.117   5.851  16.341 -0.1935 -0.4503 -1.2456
19622TIP3   OH280280   2.468   4.024   6.445 -0.2524  1.4033  0.2556
19622TIP3    H180281   2.414   4.085   6.396 -0.4844  2.7691  2.0963
19622TIP3    H280282   2.411   3.995   6.517  1.0163  1.9230  1.5211
19623TIP3   OH280283   5.110   2.122   3.827  0.2008 -0.3891 -0.1155
19623TIP3    H180284   5.088   2.046   3.774  1.1134  1.4827 -3.4415
19623TIP3    H280285   5.186   2.160   3.785 -0.0369  2.2151  1.5825
19624TIP3   OH280286   2.529   4.260  15.156  0.0143 -0.4201 -0.2668
19624TIP3    H180287   2.543   4.204  15.080  1.2298  0.7986 -0.9823
19624TIP3    H280288   2.441   4.294  15.145  0.1526 -0.3187 -1.0979
19625TIP3   OH280289   5.487   3.829   1.231  0.2085  0.3534 -0.0368
19625TIP3    H180290   5.529   3.748   1.204  0.0727 -0.3456  1.7274
19625TIP3    H280291   5.546   3.865   1.298  0.6051  2.0692 -1.2530
19626TIP3   OH280292   2.851   6.379   5.185 -0.3309  0.1791  0.0277
19626TIP3    H180293   2.879   6.451   5.242  0.1480  0.1377 -0.1579
19626TIP3    H280294   2.932   6.343   5.150 -0.5399 -0.7706  0.4992
19627TIP3   OH280295   1.763   4.355  14.370 -0.0748  0.6888 -0.0908
19627TIP3    H180296   1.704   4.356  14.446 -1.3629  1.3533 -1.0478
19627TIP3    H280297   1.810   4.438  14.375 -0.9835  1.2578 -0.5946
19628TIP3   OH280298   2.312   4.260  13.710 -0.4205  0.2006 -0.0638
19628TIP3    H180299   2.253   4.285  13.780 -0.7215 -0.4395 -0.0804
19628TIP3    H280300   2.259   4.206  13.651 -0.0445  0.3195 -0.5227
19629TIP3   OH280301   4.099   5.537   1.739 -0.3986 -0.1559 -0.0208
19629TIP3    H180302   4.061   5.590   1.810  0.7361  2.9578 -1.5660
19629TIP3    H280303   4.043   5.555   1.663  0.1027 -1.1218 -0.6372
19630TIP3   OH280304   1.088   0.177   3.274 -0.4522 -0.1226  0.2462
19630TIP3    H180305   1.171   0.148   3.310 -0.6296 -1.4000 -0.3189
19630TIP3    H280306   1.067   0.257   3.323  0.6442 -0.2871  1.0215
19631TIP3   OH280307   0.757   0.990   0.463 -0.2098  0.2266  0.2541
19631TIP3    H180308   0.699   0.990   0.539 -0.7181  0.4975 -0.1219
19631TIP3    H280309   0.803   0.906   0.466 -1.5820 -0.5678 -0.1537
19632TIP3   OH280310   3.109   1.233   2.432  0.2825  0.3175 -0.4273
19632TIP3    H180311   3.133   1.170   2.500 -0.7023  1.2857  0.8478
19632TIP3    H280312   3.028   1.198   2.395 -0.9879  1.4502  1.1746
19633TIP3   OH280313   1.254   2.255   4.171  0.2469  0.1613  0.3594
19633TIP3    H180314   1.339   2.280   4.208  0.4565 -0.0270  0.0097
19633TIP3    H280315   1.250   2.160   4.181 -0.0797  0.2067  0.6976
19634TIP3   OH280316   1.120   4.189   2.812 -0.1907 -0.0371  0.5285
19634TIP3    H180317   1.203   4.216   2.773 -0.1796 -0.3425  0.3342
19634TIP3    H280318   1.097   4.108   2.765 -0.4675 -0.0927  0.7574
19635TIP3   OH280319   0.476   1.226  11.672  0.0706  0.5399 -0.5029
19635TIP3    H180320   0.446   1.155  11.615  1.8502 -0.8689  0.2306
19635TIP3    H280321   0.523   1.285  11.613  1.5467 -0.6940 -0.6122
19636TIP3   OH280322   1.262   0.368  13.707  0.2570  0.1315  0.0491
19636TIP3    H180323   1.223   0.455  13.698 -0.7615 -0.0960  1.8603
19636TIP3    H280324   1.338   0.382  13.763  1.3995  0.1670 -1.4447
19637TIP3   OH280325   5.841   4.237   3.820 -0.3230 -0.1715  0.6712
19637TIP3    H180326   5.934   4.254   3.836 -0.2547 -1.0205  1.2179
19637TIP3    H280327   5.835   4.143   3.806 -1.0884 -0.1076  0.4874
19638TIP3   OH280328   6.531   4.180   6.588 -0.3540 -0.3660 -0.0677
19638TIP3    H180329   6.504   4.265   6.625  0.0042 -0.2940  0.0324
19638TIP3    H280330   6.466   4.118   6.621  0.0956 -0.3435  0.8919
19639TIP3   OH280331   0.887   1.149   5.243 -0.4978  0.5334 -0.4123
19639TIP3    H180332   0.878   1.227   5.189  2.8514  1.0542 -0.4132
19639TIP3    H280333   0.972   1.157   5.284 -0.6243 -2.4633  0.7372
19640TIP3   OH280334   1.994   6.084  13.518  0.2581 -0.2601 -0.5160
19640TIP3    H180335   1.983   6.175  13.491 -0.4829 -0.6303 -1.5253
19640TIP3    H280336   1.907   6.056  13.545  0.5101 -0.6324 -0.0825
19641TIP3   OH280337   5.335   1.344  16.283  0.3126  0.4112  0.8832
19641TIP3    H180338   5.421   1.341  16.325  0.7704  0.9759  0.0186
19641TIP3    H280339   5.274   1.361  16.354  0.7944 -0.8688  1.6537
19642TIP3   OH280340   0.484   3.584   5.971  0.1140  0.1125  0.4361
19642TIP3    H180341   0.500   3.671   6.009 -0.5106  0.3324  0.2131
19642TIP3    H280342   0.435   3.537   6.038 -1.2665  0.6100 -0.2069
19643TIP3   OH280343   6.291   2.242  14.811  0.4666  0.2727 -0.2536
19643TIP3    H180344   6.357   2.243  14.880  0.4669  1.5447 -0.2537
19643TIP3    H280345   6.336   2.201  14.737 -0.1599 -3.0391  1.0328
19644TIP3   OH280346   6.574   3.574  15.075  0.1297  0.8091  0.0722
19644TIP3    H180347   6.579   3.667  15.052  0.1181  0.5630 -0.9669
19644TIP3    H280348   6.572   3.528  14.991  1.3365 -0.1966  0.5526
19645TIP3   OH280349   3.134   5.207   2.083  0.3187  0.3870 -0.4933
19645TIP3    H180350   3.087   5.127   2.107  0.2366  0.3629 -0.7322
19645TIP3    H280351   3.099   5.274   2.142 -0.9914  0.6761 -1.5549
19646TIP3   OH280352   1.293   2.087   6.294 -0.4637  0.2614  0.2499
19646TIP3    H180353   1.198   2.084   6.283 -0.3450 -0.8572 -0.7505
19646TIP3    H280354   1.305   2.107   6.387 -1.6499  1.4631  0.1837
19647TIP3   OH280355   5.245   2.713   0.726 -0.0045  0.1670 -0.3526
19647TIP3    H180356   5.267   2.627   0.762  1.6358  0.6504 -0.1062
19647TIP3    H280357   5.290   2.715   0.641  2.1314  1.6897  0.7347
19648TIP3   OH280358   2.017   0.956  11.261 -0.2284  0.2101  0.1355
19648TIP3    H180359   2.046   0.865  11.260 -0.6018  0.0826  0.7037
19648TIP3    H280360   2.088   1.004  11.302 -0.8572 -0.1304  1.7145
19649TIP3   OH280361   0.655   5.153   4.881  0.4532 -0.0451 -0.3290
19649TIP3    H180362   0.728   5.183   4.935 -0.7861  0.4125  1.1981
19649TIP3    H280363   0.672   5.190   4.795  1.8818  0.2485  0.0494
19650TIP3   OH280364   6.235   1.739  17.082  0.9149 -0.4011 -0.3230
19650TIP3    H180365   6.153   1.786  17.098  1.0115 -0.3476  0.0195
19650TIP3    H280366   6.270   1.779  17.003  1.8261  1.2458  0.8641
19651TIP3   OH280367   1.013   6.580  16.941  0.3377  0.4088 -0.2640
19651TIP3    H180368   1.085   6.624  16.986  1.3704  0.0659 -1.5108
19651TIP3    H280369   0.947   6.648  16.929  0.6110  0.8353  0.5265
19652TIP3   OH280370   1.287   1.251   5.856 -0.3178  0.4176  0.1558
19652TIP3    H180371   1.255   1.339   5.874  0.4595  0.5985  0.7092
19652TIP3    H280372   1.338   1.260   5.775 -1.0399  0.2731 -0.3253
19653TIP3   OH280373   1.127   5.971  11.956  1.0088  0.1697  0.3160
19653TIP3    H180374   1.145   5.970  11.862  0.3827  0.3252  0.1897
19653TIP3    H280375   1.208   5.940  11.996  0.7449 -1.4795 -0.3668
19654TIP3   OH280376   4.363   0.488  11.864  0.5262 -0.0631 -0.2766
19654TIP3    H180377   4.359   0.466  11.770 -1.0923 -1.4513  0.0708
19654TIP3    H280378   4.456   0.489  11.884  0.8828 -0.3073 -1.7892
19655TIP3   OH280379   1.927   2.920   2.290  0.3157  0.5050  0.2864
19655TIP3    H180380   1.841   2.946   2.325 -0.0066 -0.0719 -0.0750
19655TIP3    H280381   1.907   2.877   2.207  1.0909  2.1339 -0.7887
19656TIP3   OH280382   0.928   5.709  14.789  0.3758  0.2792  0.0646
19656TIP3    H180383   0.843   5.664  14.784  0.7370 -0.3594 -0.5720
19656TIP3    H280384   0.935   5.736  14.881  0.9115 -2.5339  0.9658
19657TIP3   OH280385   4.412   5.775  11.806  0.1038 -0.7484  0.0921
19657TIP3    H180386   4.493   5.811  11.772  0.5657  0.5939  2.3903
19657TIP3    H280387   4.384   5.838  11.873 -1.6053 -2.3224  0.9535
19658TIP3   OH280388   4.046   6.438   0.438 -0.6223 -0.0431  0.6682
19658TIP3    H180389   3.988   6.505   0.475 -1.5173 -0.4247 -0.0240
19658TIP3    H280390   4.116   6.488   0.396 -0.7135  0.4371  1.0752
19659TIP3   OH280391   4.467   3.221   2.956  0.6336  0.1738 -0.2183
19659TIP3    H180392   4.509   3.234   3.041 -0.3533  0.0015  0.3126
19659TIP3    H280393   4.387   3.172   2.976  0.2844  0.3082 -1.2214
19660TIP3   OH280394   5.712   1.594  12.490 -0.6936 -0.8333  0.5162
19660TIP3    H180395   5.709   1.595  12.394 -1.1668 -0.1737  0.5345
19660TIP3    H280396   5.793   1.547  12.510 -1.6421 -2.8748 -0.1723
19661TIP3   OH280397   1.058   0.859  13.920  0.0152 -0.3591 -0.6016
19661TIP3    H180398   1.114   0.854  13.997 -2.3932 -0.7332  1.2309
19661TIP3    H280399   1.017   0.946  13.926 -1.8153 -1.1981 -0.1921
19662TIP3   OH280400   0.441   5.084  15.096  0.0883 -0.4179 -0.7699
19662TIP3    H180401   0.500   5.010  15.080  0.4613 -0.3640  0.2554
19662TIP3    H280402   0.386   5.055  15.169 -0.5363 -0.1106 -1.1157
19663TIP3   OH280403   6.629   4.910  13.740  0.6106  0.5353  0.2812
19663TIP3    H180404   6.646   4.846  13.808  0.3269 -0.3715 -0.4782
19663TIP3    H280405   6.580   4.979  13.784  0.1679 -0.1779  0.9287
19664TIP3   OH280406   3.928   1.428  11.936 -0.3470 -0.4094 -0.3932
19664TIP3    H180407   3.848   1.477  11.920 -0.4826 -0.4734  0.0896
19664TIP3    H280408   3.902   1.357  11.996  0.2308  0.0502  0.4151
19665TIP3   OH280409   1.197   3.814  15.014  0.3448  0.3148  0.2588
19665TIP3    H180410   1.104   3.837  15.006  0.2590 -0.5837 -1.9501
19665TIP3    H280411   1.218   3.833  15.106 -2.2069 -0.2132  1.0433
19666TIP3   OH280412   3.066   4.456   5.473  0.2081  0.0025 -0.1823
19666TIP3    H180413   3.033   4.375   5.512  0.4838  0.4293  0.9752
19666TIP3    H280414   2.995   4.485   5.416 -0.5759 -0.1987  0.6548
19667TIP3   OH280415   4.249   3.757  15.713 -0.1365  0.1556  0.4818
19667TIP3    H180416   4.327   3.716  15.751 -1.0165 -1.4086  0.7167
19667TIP3    H280417   4.236   3.709  15.631 -0.9804  0.2186  0.5701
19668TIP3   OH280418   0.914   1.323  15.898 -0.0617  0.3123 -0.0828
19668TIP3    H180419   0.899   1.413  15.928 -0.6740  0.2475 -0.1846
19668TIP3    H280420   0.888   1.325  15.805 -0.1441  0.0129 -0.0643
19669TIP3   OH280421   6.711   5.864   6.512 -0.2040 -0.3239 -0.3995
19669TIP3    H180422   6.756   5.916   6.446 -0.1669 -0.7141 -0.6886
19669TIP3    H280423   6.654   5.926   6.558  1.2923  0.3662  0.5825
19670TIP3   OH280424   6.164   0.052  11.336 -0.0835  0.1951 -0.1633
19670TIP3    H180425   6.104   0.020  11.270  0.0847  0.3929 -0.4143
19670TIP3    H280426   6.249   0.057  11.292  0.0717  0.1327  0.1225
19671TIP3   OH280427   2.738   4.255  11.831 -0.0568 -0.1277  0.6151
19671TIP3    H180428   2.776   4.168  11.826 -0.3105 -0.2511  0.7925
19671TIP3    H280429   2.732   4.274  11.924 -1.2432 -0.4804  0.6333
19672TIP3   OH280430   0.385   6.424   2.232 -0.4464 -0.3836 -0.0263
19672TIP3    H180431   0.443   6.355   2.198 -1.7361 -1.0163 -1.0593
19672TIP3    H280432   0.425   6.451   2.314  1.3204 -0.7739 -0.7206
19673TIP3   OH280433   6.266   3.436   1.997  0.0920 -0.0795  0.0649
19673TIP3    H180434   6.249   3.364   1.937  1.6946 -0.3384 -0.1152
19673TIP3    H280435   6.259   3.515   1.943 -0.6848 -0.1607  0.0452
19674TIP3   OH280436   1.907   5.977  16.238  0.1109  0.6954  0.0610
19674TIP3    H180437   1.871   6.064  16.224 -0.1529  0.5966  0.1121
19674TIP3    H280438   1.964   5.962  16.162  0.7926  1.2318  0.4556
19675TIP3   OH280439   4.608   2.324  15.728 -0.2710 -0.5610 -1.0449
19675TIP3    H180440   4.543   2.256  15.708  1.0875 -2.5976  0.8997
19675TIP3    H280441   4.561   2.385  15.785 -0.1057 -3.1195  2.0897
19676TIP3   OH280442   6.141   4.514  16.402  0.6448 -0.0864  0.8056
19676TIP3    H180443   6.197   4.441  16.377 -0.2738 -0.1677 -1.1860
19676TIP3    H280444   6.198   4.571  16.453  1.9596 -1.1542  0.5876
19677TIP3   OH280445   3.453   0.752  14.755 -0.4249  0.3005  0.1887
19677TIP3    H180446   3.417   0.664  14.749 -0.6345  0.3223  0.9917
19677TIP3    H280447   3.487   0.771  14.668 -1.4984 -0.0838 -0.3192
19678TIP3   OH280448   5.323   2.594  12.419  0.2122  0.3821 -0.4014
19678TIP3    H180449   5.403   2.619  12.466 -1.1431  0.0967  2.2753
19678TIP3    H280450   5.314   2.501  12.436 -0.8207  0.4655 -0.4529
19679TIP3   OH280451   6.073   5.278   0.639  0.0483 -0.0548 -0.1726
19679TIP3    H180452   6.102   5.334   0.566  0.3972 -0.0602 -0.0407
19679TIP3    H280453   6.040   5.199   0.597 -0.2662  0.1696 -0.3512
19680TIP3   OH280454   2.313   0.343  13.140  0.2320  0.0670 -0.0914
19680TIP3    H180455   2.405   0.316  13.132  0.2668  0.2161 -0.1964
19680TIP3    H280456   2.265   0.261  13.148  0.4244  0.0079  0.4689
19681TIP3   OH280457   1.351   5.219  16.013 -0.1362  0.5277 -0.3821
19681TIP3    H180458   1.362   5.314  16.019 -1.0868  0.6267  0.0088
19681TIP3    H280459   1.315   5.205  15.926  0.4896  0.4643 -0.6382
19682TIP3   OH280460   1.460   6.255  15.599  0.2780 -0.7479  0.3114
19682TIP3    H180461   1.403   6.265  15.675 -1.9924 -2.2768 -1.0540
19682TIP3    H280462   1.407   6.284  15.525  2.2522  0.2370 -0.7967
19683TIP3   OH280463   5.901   4.551   0.613 -0.0057  0.1779  0.4985
19683TIP3    H180464   5.818   4.565   0.658  0.7538  0.1653  1.9490
19683TIP3    H280465   5.968   4.559   0.681  1.0675 -1.8823 -0.1993
19684TIP3   OH280466   4.855   1.578   1.334  0.0126  0.5375  0.1291
19684TIP3    H180467   4.849   1.596   1.240 -0.9543  1.2218  0.3019
19684TIP3    H280468   4.782   1.628   1.372  0.0062 -0.2443  1.1678
19685TIP3   OH280469   2.083   2.780  13.968 -0.2252  0.0959  0.3548
19685TIP3    H180470   2.048   2.825  14.046  1.0398 -2.9280  2.8830
19685TIP3    H280471   2.018   2.712  13.949  0.8804 -1.0863  0.6967
19686TIP3   OH280472   2.289   6.508   1.691 -0.1926  0.5100 -0.1824
19686TIP3    H180473   2.259   6.434   1.745  1.7554 -0.4728 -0.3319
19686TIP3    H280474   2.234   6.504   1.613  0.6283 -1.5994 -0.7370
19687TIP3   OH280475   2.663   2.369   4.906 -0.1014  0.3101  0.2380
19687TIP3    H180476   2.668   2.440   4.970 -2.1278  0.5456  0.2085
19687TIP3    H280477   2.570   2.344   4.905  0.2614 -1.1563 -1.0331
19688TIP3   OH280478   3.431   0.157  15.424 -0.0102  0.1937  1.0447
19688TIP3    H180479   3.504   0.212  15.396 -1.2669  0.8134 -1.2379
19688TIP3    H280480   3.353   0.212  15.413 -1.3452 -1.9279 -1.4136
19689TIP3   OH280481   1.850   3.295  12.019 -0.4424 -0.3514  0.3535
19689TIP3    H180482   1.907   3.252  12.082  1.8442 -1.6361 -2.3955
19689TIP3    H280483   1.789   3.227  11.990  0.7026 -0.7496 -1.2142
19690TIP3   OH280484   3.121   6.299  16.310 -0.4901 -0.7166  0.7468
19690TIP3    H180485   3.156   6.303  16.221  1.4904 -0.0858  1.4956
19690TIP3    H280486   3.104   6.205  16.324  1.7574 -1.1997  0.5916
19691TIP3   OH280487   1.366   3.891   6.500 -0.3182  0.4041  0.0891
19691TIP3    H180488   1.283   3.865   6.461  0.4313  0.3417 -1.5370
19691TIP3    H280489   1.341   3.940   6.578 -1.8273 -1.5641  0.9444
19692TIP3   OH280490   4.809   3.894  12.839 -0.4397 -1.3340 -0.7312
19692TIP3    H180491   4.794   3.800  12.830 -0.3878 -1.6166  1.4755
19692TIP3    H280492   4.888   3.900  12.892 -0.9621 -0.0752 -0.0588
19693TIP3   OH280493   6.477   4.993   3.242  0.3821 -0.0832  0.4860
19693TIP3    H180494   6.447   4.911   3.281 -0.2684  0.0296  0.2305
19693TIP3    H280495   6.447   5.061   3.301 -1.0588  0.1285 -0.4260
19694TIP3   OH280496   1.680   4.266  15.199  0.1217 -0.4204 -0.5406
19694TIP3    H180497   1.626   4.225  15.131  2.0196 -1.2991 -1.5994
19694TIP3    H280498   1.739   4.196  15.228 -0.4186  0.0307  1.8381
19695TIP3   OH280499   4.713   0.669   2.653 -0.8160 -0.3090 -0.3625
19695TIP3    H180500   4.759   0.647   2.734  0.4676  0.5596 -0.8246
19695TIP3    H280501   4.652   0.597   2.639  2.2432 -2.9645 -1.1631
19696TIP3   OH280502   0.999   6.284  12.766  0.7971  0.0326  0.1647
19696TIP3    H180503   1.046   6.203  12.749 -0.4967 -0.6947 -0.1220
19696TIP3    H280504   0.949   6.300  12.686 -2.2563 -1.2481  1.6377
19697TIP3   OH280505   3.963   6.763  16.054 -0.5596 -0.3616  0.1191
19697TIP3    H180506   3.906   6.795  15.985 -0.3154 -1.2922 -0.5190
19697TIP3    H280507   4.049   6.800  16.033 -0.8212  0.7568  0.8931
19698TIP3   OH280508   0.212   3.508  16.073  0.2320 -0.2164 -0.1812
19698TIP3    H180509   0.289   3.539  16.026 -0.8973 -0.1878 -2.1123
19698TIP3    H280510   0.210   3.414  16.059  0.3351 -0.3360  0.5487
19699TIP3   OH280511   2.943   0.519   1.525 -0.0646 -0.5339  0.6264
19699TIP3    H180512   2.866   0.542   1.472  0.5848 -3.0323 -1.6434
19699TIP3    H280513   3.017   0.544   1.470  0.6392 -2.4031  0.6487
19700TIP3   OH280514   2.254   1.428  16.859  0.2495 -0.3672  0.2430
19700TIP3    H180515   2.269   1.482  16.780  0.5645 -0.3628  0.3020
19700TIP3    H280516   2.293   1.343  16.837 -1.1152 -0.8997 -0.2217
19701TIP3   OH280517   5.979   4.341   1.964  0.3320  0.0381  0.2694
19701TIP3    H180518   5.894   4.341   2.010 -0.0819 -1.4528 -0.4355
19701TIP3    H280519   6.042   4.370   2.030 -0.2427 -2.0507  1.8531
19702TIP3   OH280520   6.121   4.430   0.272  0.4360  0.2286  0.3542
19702TIP3    H180521   6.109   4.501   0.208  1.7784  0.7317  0.6280
19702TIP3    H280522   6.168   4.362   0.224  0.8303  0.3176  0.6110
19703TIP3   OH280523   0.488   5.005   1.182 -0.1392  0.3201 -0.0794
19703TIP3    H180524   0.439   4.942   1.129  0.5767 -0.1484 -0.2007
19703TIP3    H280525   0.492   5.083   1.127 -0.2826  0.1747 -0.3009
19704TIP3   OH280526   6.128   3.672   3.291  0.6092 -0.5719  0.6005
19704TIP3    H180527   6.112   3.759   3.326  0.6717  0.6990 -2.2695
19704TIP3    H280528   6.042   3.630   3.289  0.1717  0.3297 -0.1759
19705TIP3   OH280529   0.192   4.444  16.458  0.1714  0.1409 -0.7278
19705TIP3    H180530   0.183   4.403  16.372  2.5335 -1.0868 -0.4719
19705TIP3    H280531   0.122   4.405  16.511 -0.6493  0.1359 -1.7805
19706TIP3   OH280532   5.850   3.356  14.638  0.3991  0.4097 -0.6297
19706TIP3    H180533   5.780   3.291  14.632 -0.3667  1.2581 -1.1080
19706TIP3    H280534   5.804   3.440  14.642  1.3231  0.8735  1.2663
19707TIP3   OH280535   5.900   2.415  16.391 -0.1618 -0.2689 -0.3046
19707TIP3    H180536   5.856   2.404  16.307  0.0574  0.0624 -0.4658
19707TIP3    H280537   5.841   2.472  16.441 -0.9098 -1.4796  0.2374
19708TIP3   OH280538   0.058   3.966   4.902  0.7155 -0.3776  0.9867
19708TIP3    H180539   0.001   3.970   4.979 -0.2229 -0.7447  0.3333
19708TIP3    H280540   0.105   3.883   4.913  0.6337 -0.3987  1.2036
19709TIP3   OH280541   4.723   1.067   2.886  0.6933 -0.2972  0.2347
19709TIP3    H180542   4.778   1.002   2.929  3.3315  0.4115 -1.8130
19709TIP3    H280543   4.683   1.019   2.813  1.0404 -0.1265 -0.0730
19710TIP3   OH280544   6.054   1.534   2.941 -0.1552 -0.2710  0.1423
19710TIP3    H180545   6.056   1.516   2.847 -1.7025 -1.1638  0.2450
19710TIP3    H280546   5.962   1.556   2.959  0.1279 -0.0665  1.4365
19711TIP3   OH280547   3.480   6.260   6.366  0.2023  0.0229  0.3994
19711TIP3    H180548   3.519   6.314   6.434 -1.5504  2.0920 -0.1090
19711TIP3    H280549   3.522   6.289   6.285  1.5426 -1.7086  0.4141
19712TIP3   OH280550   6.164   0.263   2.208 -0.5073 -0.2197  0.5312
19712TIP3    H180551   6.077   0.233   2.234 -0.2183  0.5037  2.5191
19712TIP3    H280552   6.224   0.194   2.236 -0.3358 -0.2469  0.1146
19713TIP3   OH280553   1.001   5.042  13.290  0.3543  0.4601 -0.0491
19713TIP3    H180554   1.052   4.970  13.326  1.1483  0.8320 -0.4066
19713TIP3    H280555   0.970   5.091  13.367  0.6800  0.3246  0.1693
19714TIP3   OH280556   4.935   2.825  15.602  0.0136  0.1352 -0.2795
19714TIP3    H180557   4.886   2.745  15.622  2.7306 -1.3254  1.1560
19714TIP3    H280558   4.880   2.896  15.636 -2.2935 -1.0861 -1.2056
19715TIP3   OH280559   1.709   3.823   0.539  0.8852 -0.4038 -0.5734
19715TIP3    H180560   1.648   3.779   0.480  0.4985 -1.8858  0.8350
19715TIP3    H280561   1.768   3.871   0.481  0.4349 -1.6471 -2.1604
19716TIP3   OH280562   1.681   0.722   5.488 -0.3370  0.1058  0.6526
19716TIP3    H180563   1.676   0.637   5.531  0.0514 -0.1421  0.2075
19716TIP3    H280564   1.639   0.710   5.403  2.4226 -0.5190 -0.7556
19717TIP3   OH280565   4.554   2.518  12.602  0.3760  0.3915 -0.5348
19717TIP3    H180566   4.469   2.545  12.635  1.4669  3.2453  0.1972
19717TIP3    H280567   4.578   2.584  12.537  1.9634 -0.4354 -0.8641
19718TIP3   OH280568   1.600   6.211   2.094 -0.3059 -0.0614  0.2378
19718TIP3    H180569   1.545   6.186   2.020  0.3600  1.3806 -0.8020
19718TIP3    H280570   1.538   6.232   2.164 -1.3512  3.5730 -1.5293
19719TIP3   OH280571   3.748   4.897   3.942  0.2034  0.5447  0.2241
19719TIP3    H180572   3.736   4.988   3.914  0.5925  0.6131  0.2795
19719TIP3    H280573   3.662   4.856   3.929  0.4619  0.4659 -1.4948
19720TIP3   OH280574   2.743   1.840  15.637  0.1007 -0.5515  0.8168
19720TIP3    H180575   2.745   1.811  15.728  0.1585 -0.1243  0.9546
19720TIP3    H280576   2.681   1.913  15.637 -0.9247 -1.4006  0.2552
19721TIP3   OH280577   5.869   1.026  10.153  0.1609  0.2013  0.1683
19721TIP3    H180578   5.782   1.049  10.183  0.1331 -1.3990  1.4518
19721TIP3    H280579   5.873   1.058  10.063 -1.6987  0.3807  0.1177
19722TIP3   OH280580   1.224   5.957   0.148 -0.1551  0.1543 -0.4949
19722TIP3    H180581   1.152   6.005   0.190  0.7020  0.5311  0.6160
19722TIP3    H280582   1.223   5.871   0.191 -0.3752 -0.0826 -0.9751
19723TIP3   OH280583   3.198   0.317   5.360 -0.0400 -0.4170 -0.0774
19723TIP3    H180584   3.213   0.350   5.449  0.7156 -0.8014 -0.0547
19723TIP3    H280585   3.282   0.280   5.334 -0.2420 -0.2669 -0.9763
19724TIP3   OH280586   5.003   3.005  10.868  0.1129 -0.2244  0.1144
19724TIP3    H180587   5.055   3.077  10.834 -0.3748  0.2230  0.2954
19724TIP3    H280588   4.912   3.034  10.857 -0.0710 -0.2093  1.4615
19725TIP3   OH280589   2.387   6.243  11.947 -0.0547 -0.1618  0.6089
19725TIP3    H180590   2.320   6.241  11.879  0.8920  1.3996 -0.4432
19725TIP3    H280591   2.338   6.250  12.029 -1.1827  1.1494 -0.1387
19726TIP3   OH280592   5.848   4.996   1.325 -0.1760  0.2956 -0.3686
19726TIP3    H180593   5.790   5.068   1.303 -0.4496 -0.2038 -1.3379
19726TIP3    H280594   5.922   5.037   1.370 -0.5515  1.1117 -0.4889
19727TIP3   OH280595   5.289   1.258   3.675 -0.0276 -0.3254  0.0028
19727TIP3    H180596   5.310   1.343   3.635 -2.4167  0.0751 -0.5059
19727TIP3    H280597   5.309   1.195   3.606  0.2599 -0.0599 -0.1651
19728TIP3   OH280598   2.783   6.028  15.499  0.4833  0.0632  0.2132
19728TIP3    H180599   2.772   5.977  15.418  1.2965  0.1522  0.0350
19728TIP3    H280600   2.875   6.015  15.522  0.6962  1.4493  0.1730
19729TIP3   OH280601   3.574   5.565   0.868 -0.0831 -0.1935 -0.0939
19729TIP3    H180602   3.560   5.533   0.957  1.3565  1.5348  0.8179
19729TIP3    H280603   3.668   5.582   0.863 -0.2324  0.3446 -1.7418
19730TIP3   OH280604   6.659   0.927  13.149 -0.2849 -0.3929 -0.2073
19730TIP3    H180605   6.721   0.909  13.219 -0.7800 -1.4396 -0.0199
19730TIP3    H280606   6.598   0.853  13.151 -2.3563  1.2435  0.4946
19731TIP3   OH280607   5.985   5.537   2.262  0.1744 -0.3315 -0.4416
19731TIP3    H180608   5.949   5.450   2.242  0.4883 -0.7762  0.8542
19731TIP3    H280609   5.914   5.598   2.239  0.3228 -0.8080 -2.3762
19732TIP3   OH280610   4.188   4.440   0.501  0.8293  0.0202  0.3877
19732TIP3    H180611   4.228   4.372   0.447  0.1764  0.4297 -0.6466
19732TIP3    H280612   4.170   4.396   0.585  2.7183 -0.3603  0.6396
19733TIP3   OH280613   5.943   2.782  11.829 -0.0698 -0.2508 -0.6392
19733TIP3    H180614   6.031   2.804  11.860 -0.2359  1.1440 -1.1154
19733TIP3    H280615   5.953   2.694  11.792  0.9185 -0.4793  0.1127
19734TIP3   OH280616   0.047   3.982  14.699 -0.4664  0.2927 -0.4364
19734TIP3    H180617   0.051   4.075  14.676 -2.4251  0.2322 -1.2016
19734TIP3    H280618   0.126   3.945  14.658 -0.0784  1.4676 -0.8125
19735TIP3   OH280619   0.341   5.628  17.089  0.4298  0.2934 -0.1514
19735TIP3    H180620   0.285   5.567  17.039 -0.0473  0.7364 -0.1605
19735TIP3    H280621   0.416   5.575  17.115 -0.8158 -0.8099  1.4014
19736TIP3   OH280622   4.413   6.039  11.590  0.1246 -0.8268  0.5258
19736TIP3    H180623   4.351   6.090  11.643  0.0056  0.3095 -0.6777
19736TIP3    H280624   4.404   6.073  11.501  1.5121 -1.5771  0.0593
19737TIP3   OH280625   3.646   2.968   6.071 -0.0035 -0.5749  0.2821
19737TIP3    H180626   3.695   2.997   6.147  0.3404 -1.3725  0.3795
19737TIP3    H280627   3.568   2.925   6.107 -0.5349  0.2559  0.1420
19738TIP3   OH280628   0.055   5.897   3.992 -0.2847  0.5551 -0.1884
19738TIP3    H180629   0.035   5.889   4.085  0.2104  1.3366 -0.0074
19738TIP3    H280630   0.142   5.857   3.982 -0.4065  0.3241 -0.3513
19739TIP3   OH280631   3.132   1.983   4.224  0.1714 -0.1863 -0.2611
19739TIP3    H180632   3.199   1.927   4.184  2.4607  1.1033  1.5119
19739TIP3    H280633   3.091   1.927   4.290  0.0504 -0.7571 -0.8080
19740TIP3   OH280634   4.511   1.263  14.983 -0.6636 -0.3902 -0.8723
19740TIP3    H180635   4.443   1.202  15.009 -1.3120  0.2316 -1.0854
19740TIP3    H280636   4.479   1.303  14.902  0.2935 -0.6385 -1.3958
19741TIP3   OH280637   1.829   0.961  12.463 -0.1037 -0.2683 -0.2453
19741TIP3    H180638   1.908   0.916  12.433  0.5677  0.3550  0.5391
19741TIP3    H280639   1.815   0.928  12.552 -0.3200  0.1564 -0.1211
19742TIP3   OH280640   0.418   5.987   1.340 -0.0001  0.9412 -0.1303
19742TIP3    H180641   0.346   5.986   1.278 -0.6259 -1.0279  0.5408
19742TIP3    H280642   0.382   5.948   1.419  1.9602 -0.8040 -0.0162
19743TIP3   OH280643   1.358   3.064   4.200 -0.7094 -0.4678  0.4439
19743TIP3    H180644   1.327   3.105   4.281  0.3944 -1.5819  1.4564
19743TIP3    H280645   1.432   3.118   4.173 -1.0742 -0.0992  0.1482
19744TIP3   OH280646   1.156   5.008  15.823  0.2705  0.3201  0.1530
19744TIP3    H180647   1.106   5.019  15.904 -2.3159  0.0498 -1.3051
19744TIP3    H280648   1.167   5.097  15.789 -1.8312  0.2153 -0.9399
19745TIP3   OH280649   4.522   1.935  14.383  0.5045  0.3185  0.2814
19745TIP3    H180650   4.487   1.846  14.390 -0.8456  0.8714  1.0326
19745TIP3    H280651   4.535   1.962  14.473 -0.9812  1.5620  0.1580
19746TIP3   OH280652   4.927   6.635  12.157  0.7323 -0.0843 -0.0714
19746TIP3    H180653   4.834   6.644  12.181  0.8642 -0.3528  0.5865
19746TIP3    H280654   4.968   6.715  12.190  0.9773 -0.6144  0.9740
19747TIP3   OH280655   4.774   4.338   1.084 -0.0982 -0.4795 -0.2501
19747TIP3    H180656   4.757   4.409   1.146  0.5812  0.5398 -1.1955
19747TIP3    H280657   4.688   4.317   1.048 -0.4594 -0.8868  0.7929
19748TIP3   OH280658   6.310   2.387   0.427  0.4795  0.1390  0.4904
19748TIP3    H180659   6.312   2.483   0.422  3.4091  0.2368  1.8788
19748TIP3    H280660   6.306   2.358   0.336 -1.1436  1.5282  0.0721
19749TIP3   OH280661   3.118   3.505  15.244  0.2029  0.1119 -0.0181
19749TIP3    H180662   3.029   3.519  15.278  0.0785 -0.3188 -0.1712
19749TIP3    H280663   3.133   3.411  15.252 -0.4713 -0.3064 -2.6841
19750TIP3   OH280664   2.701   0.468   3.173  0.6487 -0.0333  0.3285
19750TIP3    H180665   2.656   0.440   3.093  2.5068  1.1286 -1.2178
19750TIP3    H280666   2.762   0.398   3.191  0.4368 -0.1586  0.5593
19751TIP3   OH280667   4.432   5.314  14.539 -0.0039 -0.3926 -0.0275
19751TIP3    H180668   4.399   5.403  14.553  1.0982 -0.1773  1.5117
19751TIP3    H280669   4.491   5.321  14.464 -1.9806 -0.4314 -1.6784
19752TIP3   OH280670   2.923   3.861  13.801  0.1127 -0.0324  0.3427
19752TIP3    H180671   2.972   3.894  13.725 -0.1615  0.8047  0.5187
19752TIP3    H280672   2.836   3.901  13.792  0.6571  1.7004  2.1397
19753TIP3   OH280673   1.279   3.247   4.963  0.3161  0.5350  0.9334
19753TIP3    H180674   1.351   3.203   4.920  1.8871  1.1565  2.7966
19753TIP3    H280675   1.317   3.327   4.999 -2.2860  3.4477 -1.9942
19754TIP3   OH280676   6.354   6.160   0.184  0.1453 -0.6338 -0.1152
19754TIP3    H180677   6.401   6.119   0.256 -0.8898 -2.2765 -0.3221
19754TIP3    H280678   6.361   6.097   0.112 -0.2557  0.2189 -0.9257
19755TIP3   OH280679   6.781   1.876  17.055 -0.1019  0.1497 -1.1899
19755TIP3    H180680   6.740   1.942  17.111  0.9631  0.3132 -0.5710
19755TIP3    H280681   6.875   1.894  17.061  0.5449 -3.0250  1.2639
19756TIP3   OH280682   1.415   0.472  13.166 -0.6590  0.2745  0.7997
19756TIP3    H180683   1.371   0.393  13.199 -1.1159  0.7872  1.4505
19756TIP3    H280684   1.347   0.539  13.169 -0.9576  0.1948 -1.9582
19757TIP3   OH280685   6.081   1.195  12.566  0.0006 -0.1137  0.5166
19757TIP3    H180686   6.171   1.181  12.593  0.1794 -2.4098 -1.0709
19757TIP3    H280687   6.080   1.178  12.472 -2.1111 -0.2482  0.5160
19758TIP3   OH280688   0.531   1.802  14.010  0.2789 -0.5083 -0.3269
19758TIP3    H180689   0.576   1.881  14.041 -0.2863 -0.3889  0.1957
19758TIP3    H280690   0.470   1.833  13.944 -2.1461 -0.0455  1.9904
19759TIP3   OH280691   5.703   1.716   1.131 -0.1682 -0.1501  0.3609
19759TIP3    H180692   5.693   1.711   1.226 -1.9929 -0.0052  0.2240
19759TIP3    H280693   5.651   1.643   1.097 -0.3404  0.3612 -0.5404
19760TIP3   OH280694   5.806   4.697   5.207 -0.3507 -0.2188 -0.1097
19760TIP3    H180695   5.861   4.647   5.267 -1.5607 -0.9873  0.4012
19760TIP3    H280696   5.736   4.636   5.182 -2.1358  1.3319  0.8709
19761TIP3   OH280697   0.031   3.756   2.186 -0.1028 -0.2041  0.0204
19761TIP3    H180698   0.013   3.752   2.093  1.3362  1.0655 -0.3489
19761TIP3    H280699   0.020   3.848   2.209 -0.8496 -0.5667  1.2119
19762TIP3   OH280700   1.494   2.548  14.089 -0.3380  0.0821 -0.0229
19762TIP3    H180701   1.509   2.545  14.183 -2.4467 -0.8768  0.3444
19762TIP3    H280702   1.517   2.460  14.058 -0.3164  0.1796 -0.2843
19763TIP3   OH280703   4.809   4.767   1.631  0.1026 -0.1237  0.6020
19763TIP3    H180704   4.796   4.689   1.685 -1.0735 -0.2295  0.1857
19763TIP3    H280705   4.721   4.802   1.617  0.2624 -0.5132 -1.8440
19764TIP3   OH280706   0.641   2.281   4.368  0.9390 -0.0413  0.5906
19764TIP3    H180707   0.595   2.310   4.446  0.3139  0.1725  0.1572
19764TIP3    H280708   0.614   2.190   4.356 -0.9496  0.6157 -0.7267
19765TIP3   OH280709   4.564   6.414   5.969 -0.3451 -0.1360 -0.2928
19765TIP3    H180710   4.558   6.399   5.875 -2.7692 -1.8978  0.0609
19765TIP3    H280711   4.604   6.335   6.004 -0.2344  0.1489  0.2360
19766TIP3   OH280712   3.390   4.231   3.310 -0.4173 -0.2497  0.0667
19766TIP3    H180713   3.295   4.232   3.320 -0.2208  0.7075  2.3128
19766TIP3    H280714   3.423   4.193   3.392  1.1618  0.1814 -0.3317
19767TIP3   OH280715   3.220   6.007  16.866  0.8594  0.1412 -0.4327
19767TIP3    H180716   3.138   5.969  16.836  1.1175  0.7246 -1.9255
19767TIP3    H280717   3.221   6.095  16.829  1.7820  0.4388  0.2610
19768TIP3   OH280718   2.591   2.904  14.875 -0.2068 -0.1885 -0.0328
19768TIP3    H180719   2.647   2.902  14.798  0.2734 -0.9846  0.3242
19768TIP3    H280720   2.610   2.988  14.916  1.6229 -0.9153  0.7030
19769TIP3   OH280721   3.913   0.296  11.973  0.2450  0.2637 -0.8814
19769TIP3    H180722   3.846   0.269  11.911 -1.0121 -0.4422  0.7042
19769TIP3    H280723   3.899   0.390  11.984 -1.0175 -0.0033 -0.0094
19770TIP3   OH280724   3.150   0.640   1.082  0.3454  0.2809 -0.7096
19770TIP3    H180725   3.230   0.588   1.076  0.8253  0.9291 -0.0574
19770TIP3    H280726   3.102   0.619   1.002  1.4600  0.3583 -1.4175
19771TIP3   OH280727   3.451   1.686   0.087  0.2184  0.2083  0.0207
19771TIP3    H180728   3.452   1.687   0.183  0.1524 -0.1534  0.0284
19771TIP3    H280729   3.540   1.710   0.062  0.5796 -0.8669  0.1985
19772TIP3   OH280730   2.587   5.159  15.461  0.3445 -0.6178  0.1697
19772TIP3    H180731   2.519   5.134  15.524 -0.3315 -0.1140 -0.3501
19772TIP3    H280732   2.583   5.091  15.393  1.4976 -1.5188  0.9390
19773TIP3   OH280733   0.202   4.284   2.289 -0.2493 -0.1893  0.2544
19773TIP3    H180734   0.288   4.262   2.252 -0.2058 -0.4610  0.5113
19773TIP3    H280735   0.221   4.351   2.354 -0.3064  0.1757 -0.1029
19774TIP3   OH280736   3.205   3.822   4.027 -0.0740  0.4151 -0.9904
19774TIP3    H180737   3.298   3.816   4.007 -0.2325 -0.7702 -1.4484
19774TIP3    H280738   3.161   3.807   3.944 -0.6839  0.9546 -0.7753
19775TIP3   OH280739   0.659   3.710  11.559  0.3416  0.6166  0.0830
19775TIP3    H180740   0.653   3.687  11.467  0.9359  0.1183  0.1584
19775TIP3    H280741   0.720   3.784  11.562  0.5159  0.4726  0.0993
19776TIP3   OH280742   2.239   6.536   4.004  0.3277  0.0848 -0.0576
19776TIP3    H180743   2.249   6.515   4.096 -2.6922 -0.9943  0.1197
19776TIP3    H280744   2.174   6.605   4.001  0.8213  0.5384 -1.3749
19777TIP3   OH280745   3.172   0.002  12.522 -0.4351  0.4244 -0.3056
19777TIP3    H180746   3.179  -0.022  12.429 -0.3021 -0.8908  0.0301
19777TIP3    H280747   3.166  -0.081  12.568  2.8549  0.8207  1.1592
19778TIP3   OH280748   5.768   0.807   0.161 -0.7255  0.1354 -0.0694
19778TIP3    H180749   5.759   0.807   0.256 -0.9590  0.9591 -0.0853
19778TIP3    H280750   5.745   0.718   0.135  1.1827 -0.6648  0.7947
19779TIP3   OH280751   6.607   1.830  16.834  0.2448 -0.4407 -0.4886
19779TIP3    H180752   6.588   1.905  16.778 -1.8275  0.3793  1.1853
19779TIP3    H280753   6.662   1.866  16.904  1.0251 -0.9797 -0.8135
19780TIP3   OH280754   5.673   0.773  13.298 -0.2779 -0.0374  0.3298
19780TIP3    H180755   5.659   0.803  13.208 -1.7747  1.2097  0.9321
19780TIP3    H280756   5.643   0.682  13.297  2.0012 -0.8629 -0.9441
19781TIP3   OH280757   5.732   5.486   1.444  0.2780  0.6257 -0.6028
19781TIP3    H180758   5.687   5.557   1.398 -2.0370 -0.3624  0.0139
19781TIP3    H280759   5.821   5.519   1.455 -0.0677  2.4420 -2.4142
19782TIP3   OH280760   4.743   6.317  14.654 -0.1431  0.1661  0.5044
19782TIP3    H180761   4.674   6.337  14.590  0.1582  0.0396  0.1346
19782TIP3    H280762   4.811   6.273  14.603 -0.3040 -0.7976  1.0890
19783TIP3   OH280763   2.798   3.916  14.751  0.1050  0.6793 -0.0961
19783TIP3    H180764   2.793   3.821  14.741 -0.9152  0.8365 -1.3895
19783TIP3    H280765   2.841   3.929  14.836 -0.4754 -0.9294  0.4827
19784TIP3   OH280766   4.410   4.692   5.366  0.3798 -0.3374 -0.1726
19784TIP3    H180767   4.428   4.614   5.418 -0.0517 -0.7552 -0.6409
19784TIP3    H280768   4.386   4.759   5.430 -1.9674 -1.3322  0.0702
19785TIP3   OH280769   6.562   6.708  16.867 -0.2449  0.0995 -0.2068
19785TIP3    H180770   6.586   6.799  16.883 -1.4208  0.3144  0.4317
19785TIP3    H280771   6.638   6.671  16.821  0.1775  1.4297 -0.6192
19786TIP3   OH280772   6.233   5.002   2.549 -0.7743 -0.2790  0.0863
19786TIP3    H180773   6.244   5.004   2.644 -1.5644  0.0031  0.1768
19786TIP3    H280774   6.161   5.063   2.532  0.6249  1.1831 -0.8764
19787TIP3   OH280775   4.268   3.299   5.467 -0.4743  0.8700 -0.3373
19787TIP3    H180776   4.189   3.326   5.420 -0.8192 -1.8388 -1.5421
19787TIP3    H280777   4.292   3.216   5.426  1.2856  0.1302  1.9903
19788TIP3   OH280778   2.786   0.296   0.007  0.1818  0.0332  0.8480
19788TIP3    H180779   2.776   0.303   0.102 -0.2907 -1.9492  0.9971
19788TIP3    H280780   2.700   0.319  -0.028  0.2482  0.4074  0.9342
19789TIP3   OH280781   1.398   0.715  12.968  0.1493 -0.4617  0.0140
19789TIP3    H180782   1.326   0.717  12.905  2.5292  0.8395 -2.9662
19789TIP3    H280783   1.434   0.627  12.961 -0.8898 -1.0248  1.3027
19790TIP3   OH280784   0.702   2.992   2.345  0.5786 -0.1865 -0.4785
19790TIP3    H180785   0.607   3.009   2.341  0.4239 -0.3588  1.5659
19790TIP3    H280786   0.741   3.069   2.304 -0.4216  0.6576  0.0695
19791TIP3   OH280787   2.706   0.347   3.873  0.4225  0.5931  0.2475
19791TIP3    H180788   2.665   0.432   3.888  1.3978  0.7725  2.3133
19791TIP3    H280789   2.719   0.312   3.961  3.1579 -0.1708 -0.3770
19792TIP3   OH280790   2.677   5.013  16.102 -0.7720 -0.0059 -0.1371
19792TIP3    H180791   2.677   5.057  16.187  1.9821  0.3979 -0.2449
19792TIP3    H280792   2.630   5.074  16.044 -4.4756 -1.1741  1.3556
19793TIP3   OH280793   2.946   1.596   5.044 -0.0280  0.7393 -0.2948
19793TIP3    H180794   2.933   1.523   5.105  0.4415 -0.7300 -1.8535
19793TIP3    H280795   2.857   1.619   5.016 -0.1585 -1.9180 -2.6569
19794TIP3   OH280796   1.093   3.378  13.683  0.0797 -0.1459  0.4150
19794TIP3    H180797   1.002   3.365  13.655 -0.2281  2.1527  0.1106
19794TIP3    H280798   1.113   3.300  13.734 -2.2518 -0.4891  0.9532
19795TIP3   OH280799   4.569   5.376  14.797  0.0696  0.1719 -0.6558
19795TIP3    H180800   4.501   5.444  14.796 -1.2515 -1.0954 -2.0608
19795TIP3    H280801   4.560   5.332  14.712  1.8150 -0.8585 -0.3455
19796TIP3   OH280802   1.243   3.776  11.575  0.8020 -0.2126 -0.1626
19796TIP3    H180803   1.264   3.868  11.556  0.3156 -0.2020 -0.6499
19796TIP3    H280804   1.315   3.747  11.631 -0.5538  1.3403  2.5935
19797TIP3   OH280805   4.266   2.402   5.945 -0.2377 -0.1592 -0.3188
19797TIP3    H180806   4.264   2.459   5.868 -0.8824 -0.3343 -0.4412
19797TIP3    H280807   4.184   2.421   5.992 -0.9863 -1.6880 -0.9067
19798TIP3   OH280808   3.156   0.172   0.504 -0.0651 -0.0322 -0.3726
19798TIP3    H180809   3.123   0.249   0.550 -0.7623 -2.0986  2.9689
19798TIP3    H280810   3.077   0.126   0.475  0.3520  0.7207 -2.9450
19799TIP3   OH280811   1.896   5.776  12.060 -0.0914  0.2411 -0.1320
19799TIP3    H180812   1.812   5.821  12.067  0.8665  1.8353  2.2423
19799TIP3    H280813   1.930   5.803  11.975 -0.9394  1.4956 -0.0990
19800TIP3   OH280814   1.735   4.514   3.711 -0.0060 -0.1213  0.2907
19800TIP3    H180815   1.765   4.510   3.620  0.4106 -0.9530  0.4526
19800TIP3    H280816   1.785   4.445   3.755  0.2591  0.6946  1.2862
19801TIP3   OH280817   5.197   1.357   2.729  0.1497 -0.2526 -0.0660
19801TIP3    H180818   5.215   1.332   2.819 -0.7268 -1.7886 -0.2867
19801TIP3    H280819   5.228   1.284   2.676 -1.4148 -0.4156 -0.8381
19802TIP3   OH280820   6.553   3.437   0.190 -0.3067  0.0049 -0.2845
19802TIP3    H180821   6.508   3.521   0.182 -1.6714 -0.5129  1.3648
19802TIP3    H280822   6.638   3.451   0.148  0.1352  2.6813  1.2837
19803TIP3   OH280823   3.758   0.799  15.564  0.3041 -0.0362  0.3533
19803TIP3    H180824   3.679   0.747  15.552  0.0008  0.3540  0.6231
19803TIP3    H280825   3.736   0.885  15.529  0.2228  0.4067  1.4388
19804TIP3   OH280826   3.577   1.798   5.217 -0.1067  0.3553 -0.2927
19804TIP3    H180827   3.640   1.855   5.174  0.2331 -0.4215 -0.8502
19804TIP3    H280828   3.517   1.858   5.262  0.7931  1.1107 -0.0779
19805TIP3   OH280829   3.765   4.938  14.801 -0.0385 -0.0128  0.4482
19805TIP3    H180830   3.845   4.977  14.837  1.3116 -1.2016 -1.1140
19805TIP3    H280831   3.756   4.978  14.714 -1.5923  0.6359  0.8597
19806TIP3   OH280832   1.967   0.852  16.328  0.0089  0.2455 -0.9702
19806TIP3    H180833   2.037   0.913  16.303 -0.1298  0.6557 -0.3606
19806TIP3    H280834   1.985   0.831  16.419 -1.3492  1.3091 -0.4233
19807TIP3   OH280835   3.459   6.713  15.269 -0.2078 -0.8396  0.2962
19807TIP3    H180836   3.449   6.734  15.176 -2.4260 -1.2740  0.3841
19807TIP3    H280837   3.430   6.792  15.315  0.9378 -0.6053  0.6461
19808TIP3   OH280838   0.763   6.119   0.592  0.3314  0.2537 -0.3437
19808TIP3    H180839   0.791   6.029   0.578 -0.5153  0.1260 -1.3068
19808TIP3    H280840   0.755   6.127   0.687  0.6959 -0.5945 -0.2321
19809TIP3   OH280841   0.820   2.387   0.943 -0.0760 -0.1948  0.0906
19809TIP3    H180842   0.853   2.394   1.033  1.0281 -1.2922 -0.1923
19809TIP3    H280843   0.842   2.471   0.903 -0.1494  0.1285  0.7185
19810TIP3   OH280844   1.745   2.691  13.793 -0.6282 -0.7847  1.1464
19810TIP3    H180845   1.662   2.729  13.820 -0.4388  0.1780  0.4365
19810TIP3    H280846   1.769   2.632  13.864 -2.1366 -1.4361  1.1549
19811TIP3   OH280847   3.409   1.761   3.392 -0.0642 -0.1877 -0.1163
19811TIP3    H180848   3.501   1.765   3.365  0.0729 -0.8944  0.2315
19811TIP3    H280849   3.408   1.700   3.466 -0.3901  1.8284  1.6335
19812TIP3   OH280850   2.735   4.924  15.699 -0.5772 -0.6834 -0.2610
19812TIP3    H180851   2.783   4.892  15.776 -1.3416 -0.2530  0.3974
19812TIP3    H280852   2.789   4.895  15.625  1.2608  0.6390  0.4694
19813TIP3   OH280853   6.592   4.530   4.172 -0.0774  0.0499  0.5776
19813TIP3    H180854   6.551   4.589   4.109 -0.2359  0.6144  1.2015
19813TIP3    H280855   6.671   4.575   4.199 -0.6986  0.4412  1.7973
19814TIP3   OH280856   0.624   5.794   1.339  0.9067 -0.2948 -0.1437
19814TIP3    H180857   0.575   5.719   1.373 -0.6867  0.2445 -1.1505
19814TIP3    H280858   0.557   5.859   1.318  2.1777  1.0079 -0.3078
19815TIP3   OH280859   3.691   4.830   5.649 -0.0820  0.3570 -0.7009
19815TIP3    H180860   3.769   4.785   5.616  1.0478  0.9928  0.9904
19815TIP3    H280861   3.626   4.761   5.658  0.8202 -0.4896 -0.5456
19816TIP3   OH280862   5.579   2.679  12.487  0.0547  0.6086 -0.1477
19816TIP3    H180863   5.598   2.647  12.399  2.8297 -1.6610  1.0881
19816TIP3    H280864   5.611   2.769  12.487  0.9348  0.3243 -1.2280
19817TIP3   OH280865   5.247   2.424  11.449  0.1664  0.3799 -0.2132
19817TIP3    H180866   5.202   2.498  11.408 -0.3975 -0.9688 -2.2051
19817TIP3    H280867   5.179   2.358  11.462  1.1971 -1.1422 -1.9165
19818TIP3   OH280868   6.458   0.645   0.814  0.1482  0.5075 -0.0759
19818TIP3    H180869   6.421   0.608   0.734  0.8170  0.1684 -0.2407
19818TIP3    H280870   6.384   0.650   0.875  0.0452 -1.2504 -0.0082
19819TIP3   OH280871   4.413   1.267  12.513 -0.5133 -0.0852 -0.9677
19819TIP3    H180872   4.495   1.313  12.498  0.5794 -0.6686  2.2888
19819TIP3    H280873   4.377   1.308  12.592 -1.0994 -2.6176  0.2070
19820TIP3   OH280874   2.958   2.756  12.403 -0.7743 -0.0515 -1.0490
19820TIP3    H180875   3.013   2.695  12.354 -1.2531 -0.5821 -0.9385
19820TIP3    H280876   3.020   2.816  12.444 -0.1914 -1.1837 -0.1823
19821TIP3   OH280877   6.093   4.168  15.344 -0.3252 -0.3674  0.6055
19821TIP3    H180878   6.024   4.233  15.352 -1.1750 -1.5159  3.9006
19821TIP3    H280879   6.073   4.121  15.263 -0.8352  2.0707 -0.7709
19822TIP3   OH280880   0.474   4.535   4.145  0.2930  0.1549  0.8554
19822TIP3    H180881   0.393   4.488   4.167  0.4815 -1.5923 -1.8421
19822TIP3    H280882   0.543   4.485   4.187  0.3365 -0.9999 -0.5564
19823TIP3   OH280883   0.482   5.984  14.873  0.0169  0.4320 -0.0832
19823TIP3    H180884   0.406   6.042  14.876 -0.0899  0.2867 -0.0180
19823TIP3    H280885   0.447   5.896  14.862  0.1864  0.3885 -0.2903
19824TIP3   OH280886   0.882   4.374  14.730 -0.0656 -0.6547 -0.4370
19824TIP3    H180887   0.922   4.388  14.644  1.8188  0.7267  0.6004
19824TIP3    H280888   0.949   4.400  14.792 -2.5921  1.9695  1.4593
19825TIP3   OH280889   2.906   0.786  17.053  0.3950 -0.3238 -0.1893
19825TIP3    H180890   2.846   0.784  17.127  2.0841  0.2856  1.2848
19825TIP3    H280891   2.913   0.878  17.030  3.0888  0.1147  1.7964
19826TIP3   OH280892   0.639   4.701  14.880  0.2697  0.0595 -0.0841
19826TIP3    H180893   0.549   4.713  14.851 -0.0203 -0.5889  0.5219
19826TIP3    H280894   0.684   4.664  14.803 -0.5605 -1.9357  0.3338
19827TIP3   OH280895   5.292   4.926   4.322 -0.4968 -0.5698  0.4095
19827TIP3    H180896   5.353   4.998   4.338 -0.8371 -0.2177  0.1462
19827TIP3    H280897   5.232   4.960   4.256 -0.7508 -1.0469  0.3900
19828TIP3   OH280898   0.341   2.485   2.842 -0.2481  0.0816  0.1849
19828TIP3    H180899   0.436   2.488   2.845 -0.2961  0.9550  1.5378
19828TIP3    H280900   0.318   2.399   2.879  0.0226 -0.8909 -1.7677
19829TIP3   OH280901   5.692   3.647   1.795 -0.7790 -0.2077  0.0134
19829TIP3    H180902   5.672   3.683   1.708 -1.1435 -0.5755 -0.0567
19829TIP3    H280903   5.625   3.581   1.809 -0.3145 -0.6245  0.2896
19830TIP3   OH280904   1.042   0.589  15.768 -0.0080  0.5274  0.4414
19830TIP3    H180905   1.062   0.496  15.759 -4.0390 -0.6444  1.6167
19830TIP3    H280906   1.053   0.607  15.861 -2.9719  0.0364  0.9854
19831TIP3   OH280907   0.035   1.517   3.636  0.1468 -0.3584  0.2234
19831TIP3    H180908  -0.018   1.547   3.563 -1.3438 -1.7220  0.6830
19831TIP3    H280909   0.111   1.476   3.596 -0.0722 -0.0507 -0.5153
19832TIP3   OH280910   0.256   4.643   5.897 -0.2336 -1.1220 -0.1848
19832TIP3    H180911   0.301   4.628   5.980  1.6930 -1.3348 -1.2290
19832TIP3    H280912   0.188   4.707   5.919  1.4655  0.3255  1.1855
19833TIP3   OH280913   1.061   5.051  12.815  0.2819  0.4030 -0.3012
19833TIP3    H180914   1.143   5.091  12.846  0.1051  0.1134  0.5889
19833TIP3    H280915   1.071   5.047  12.720  0.3863  2.3996 -0.4298
19834TIP3   OH280916   5.230   0.448   1.198 -0.4307  0.2284  0.1114
19834TIP3    H180917   5.196   0.483   1.116  2.7381  1.9521 -0.6558
19834TIP3    H280918   5.155   0.446   1.257 -2.2390  1.6647 -1.9903
19835TIP3   OH280919   6.118   6.580   0.149 -0.5303 -0.6297 -0.0525
19835TIP3    H180920   6.025   6.599   0.135 -0.2196  1.8540  0.7762
19835TIP3    H280921   6.163   6.660   0.125  1.3021 -1.3527  0.7503
19836TIP3   OH280922   3.693   5.889  15.345 -0.2494  0.5429 -0.1757
19836TIP3    H180923   3.733   5.926  15.266  1.5582  0.0062  0.4333
19836TIP3    H280924   3.761   5.896  15.412 -2.4061  2.8782  1.9708
19837TIP3   OH280925   0.412   4.148   1.612  0.0729  0.3616  0.0392
19837TIP3    H180926   0.317   4.147   1.598 -0.3999 -0.0902  2.7883
19837TIP3    H280927   0.443   4.070   1.566 -1.0386 -0.0414 -0.0684
19838TIP3   OH280928   2.590   5.836  15.037 -0.0220 -0.1209  0.1568
19838TIP3    H180929   2.676   5.794  15.041  0.4082  0.6154 -0.8743
19838TIP3    H280930   2.602   5.908  14.975 -1.2360  0.3483  0.4485
19839TIP3   OH280931   6.660   0.299   0.687  0.0342 -0.1648  0.2169
19839TIP3    H180932   6.752   0.312   0.663 -0.3646  0.6570 -1.0134
19839TIP3    H280933   6.642   0.207   0.667  0.5798 -0.3213  0.4389
19840TIP3   OH280934   6.494   4.784   6.418  0.5676  0.4287  0.4699
19840TIP3    H180935   6.517   4.825   6.334  1.0083  0.5854  0.6606
19840TIP3    H280936   6.530   4.695   6.411  0.3281  0.3390  0.3717
19841TIP3   OH280937   3.840   5.936   5.353  0.3977 -0.2188 -0.2367
19841TIP3    H180938   3.837   5.968   5.263  0.5476  0.7809  0.1001
19841TIP3    H280939   3.811   5.845   5.347 -0.4630  0.0946 -1.1773
19842TIP3   OH280940   1.664   2.021   3.074  0.4934 -0.0282  0.9259
19842TIP3    H180941   1.618   1.963   3.134 -1.6515 -0.1837 -0.7362
19842TIP3    H280942   1.757   2.010   3.095 -0.0205 -2.0684  2.3778
19843TIP3   OH280943   3.658   1.723   1.963 -0.2760 -0.2546 -0.0807
19843TIP3    H180944   3.649   1.634   1.928  0.3903 -0.1082 -0.6490
19843TIP3    H280945   3.719   1.766   1.903 -1.6950  1.0407 -0.6601
19844TIP3   OH280946   2.656   3.721   4.728 -0.1541 -0.7426  0.1353
19844TIP3    H180947   2.579   3.774   4.704  0.0906  0.0017  0.9340
19844TIP3    H280948   2.695   3.696   4.644 -0.1704  0.5189 -0.2746
19845TIP3   OH280949   1.369   0.412  15.589  0.4775 -0.0778 -0.2269
19845TIP3    H180950   1.382   0.321  15.564 -0.6596 -0.1383 -0.6529
19845TIP3    H280951   1.274   0.424  15.590  0.5953  0.9716  0.2992
19846TIP3   OH280952   6.531   4.445   4.982 -0.4999 -0.5158 -0.0678
19846TIP3    H180953   6.597   4.416   5.046 -1.1398 -0.1012  0.7932
19846TIP3    H280954   6.465   4.490   5.034 -0.5927  0.6315 -1.1338
19847TIP3   OH280955   1.093   4.951   2.513  0.4500  0.4850  0.3773
19847TIP3    H180956   1.189   4.945   2.517  0.6717 -0.8727 -3.4065
19847TIP3    H280957   1.063   4.864   2.538  0.3869  0.1659 -0.7631
19848TIP3   OH280958   5.623   3.852   5.206  0.1971  0.4195 -0.1386
19848TIP3    H180959   5.620   3.944   5.233 -0.8973  0.2692  0.3285
19848TIP3    H280960   5.716   3.833   5.195  0.4171  1.7374 -0.7948
19849TIP3   OH280961   2.390   4.724   2.568 -0.0117 -0.2622 -1.0077
19849TIP3    H180962   2.378   4.664   2.641  0.1684  0.4877 -0.3504
19849TIP3    H280963   2.479   4.758   2.580 -0.4071  0.7648 -0.8841
19850TIP3   OH280964   0.913   1.120  12.886  0.1403  0.3786 -0.0283
19850TIP3    H180965   0.868   1.154  12.963  1.2810  0.1859  0.7515
19850TIP3    H280966   0.888   1.028  12.881 -0.2792  0.4987 -0.1467
19851TIP3   OH280967   3.949   4.709  13.589 -0.1579 -0.2824 -0.5962
19851TIP3    H180968   4.027   4.657  13.567  0.1798  0.5177 -1.3658
19851TIP3    H280969   3.962   4.736  13.680 -0.2451 -1.3669 -0.2504
19852TIP3   OH280970   2.686   4.187   2.626  0.2477 -0.6665 -0.0355
19852TIP3    H180971   2.650   4.264   2.582 -1.4010 -1.8367 -0.8459
19852TIP3    H280972   2.743   4.223   2.694  0.4027  1.2388 -1.1009
19853TIP3   OH280973   0.511   4.719  15.669  0.4367  0.3866 -0.2030
19853TIP3    H180974   0.416   4.707  15.677  0.4058  0.1959 -0.7692
19853TIP3    H280975   0.549   4.647  15.719  0.2688 -0.1646 -0.8439
19854TIP3   OH280976   0.179   2.348   4.976  0.2701 -0.0932 -0.2871
19854TIP3    H180977   0.145   2.348   4.886  0.7085  0.3775 -0.4642
19854TIP3    H280978   0.250   2.285   4.975  1.6406  1.3966 -0.8361
19855TIP3   OH280979   5.971   5.610   1.443  0.1298 -0.4197 -0.2628
19855TIP3    H180980   5.991   5.669   1.370  1.4569 -1.0839 -0.4694
19855TIP3    H280981   6.056   5.580   1.474 -0.4306 -0.5271  1.2731
19856TIP3   OH280982   3.473   5.960  13.801  0.2021  0.0517  0.3367
19856TIP3    H180983   3.455   5.915  13.718 -1.5367  0.5101  0.4300
19856TIP3    H280984   3.550   6.014  13.783  0.9002 -1.1628 -0.4536
19857TIP3   OH280985   0.390   3.637  15.444 -0.5326  0.4402  0.8987
19857TIP3    H180986   0.294   3.635  15.443 -0.5364  0.6864  0.3348
19857TIP3    H280987   0.415   3.547  15.466 -0.8991  0.8076  2.9356
19858TIP3   OH280988   3.432   2.267   4.957 -0.5525  1.0744  0.6470
19858TIP3    H180989   3.387   2.195   4.914 -2.5162  2.9667 -0.6650
19858TIP3    H280990   3.525   2.249   4.943 -0.9167 -1.7335  1.3581
19859TIP3   OH280991   3.782   2.558  14.999 -0.2349  0.2053 -0.3922
19859TIP3    H180992   3.749   2.633  14.950 -1.1088  0.2709  0.2671
19859TIP3    H280993   3.782   2.587  15.091  1.0051 -0.0415 -0.2936
19860TIP3   OH280994   1.676   6.743  12.291  0.5777  0.1840  0.4733
19860TIP3    H180995   1.754   6.690  12.275  0.9099  1.2915 -2.0507
19860TIP3    H280996   1.604   6.693  12.251 -0.2584 -1.1414  3.3250
19861TIP3   OH280997   0.530   6.245  11.794  0.1325 -0.0303 -0.4638
19861TIP3    H180998   0.464   6.315  11.794  0.2601  0.0941 -0.0965
19861TIP3    H280999   0.483   6.168  11.762  0.1444  0.3595 -1.4286
19862TIP3   OH281000   1.481   4.166   1.703  0.0916 -0.2618 -0.1575
19862TIP3    H181001   1.543   4.217   1.756 -1.0395 -0.3169  1.2903
19862TIP3    H281002   1.484   4.078   1.741 -1.1218 -0.1700  0.2037
19863TIP3   OH281003   4.215   1.634  12.311 -0.7631 -0.5109  0.0229
19863TIP3    H181004   4.235   1.545  12.285 -3.0166 -0.8766 -0.6888
19863TIP3    H281005   4.171   1.625  12.396  1.1031  0.1719  1.1259
19864TIP3   OH281006   2.140   3.169   4.555  0.2534  0.1245 -0.4010
19864TIP3    H181007   2.049   3.166   4.526  0.3340 -1.6428 -0.5394
19864TIP3    H281008   2.144   3.110   4.631  1.2720  0.2214 -0.3599
19865TIP3   OH281009   5.848   3.280   2.089 -1.0748  0.4850 -0.2650
19865TIP3    H181010   5.908   3.301   2.159 -0.6474 -0.2533 -0.3973
19865TIP3    H281011   5.897   3.296   2.008 -0.8311 -0.6862 -0.3706
19866TIP3   OH281012   2.469   6.098  15.179 -0.1289  0.2180  0.6393
19866TIP3    H181013   2.495   6.031  15.116  1.9131  1.3539  0.1996
19866TIP3    H281014   2.395   6.143  15.138 -0.5042 -0.7407  0.2539
19867TIP3   OH281015   3.428   2.575   4.933  0.0890 -0.4726 -0.1734
19867TIP3    H181016   3.427   2.493   4.884 -0.0318 -0.2872 -0.4815
19867TIP3    H281017   3.492   2.630   4.887  0.5031 -0.5528  0.2943
19868TIP3   OH281018   4.304   4.823   6.879  0.0662  0.0972 -0.0899
19868TIP3    H181019   4.273   4.856   6.795  0.8545 -2.7654 -1.6168
19868TIP3    H281020   4.229   4.778   6.917  0.5634 -1.4733 -0.8826
19869TIP3   OH281021   1.999   3.044  16.986  0.4122 -0.1049 -0.0944
19869TIP3    H181022   2.085   3.062  17.024  1.5090 -1.1839 -1.9351
19869TIP3    H281023   1.954   2.990  17.052  2.0071 -1.4238 -0.0373
19870TIP3   OH281024   6.605   4.273  13.705  0.3953  0.2424 -0.4782
19870TIP3    H181025   6.577   4.182  13.707  1.2784 -0.0275  0.5467
19870TIP3    H281026   6.532   4.320  13.666 -0.1211 -0.8845 -0.9065
19871TIP3   OH281027   5.254   2.225  16.768 -0.9925  0.5195 -0.2029
19871TIP3    H181028   5.249   2.314  16.800 -0.9775  0.9673 -1.3849
19871TIP3    H281029   5.301   2.232  16.684 -0.7461 -0.6250 -0.1816
19872TIP3   OH281030   3.707   0.519   1.668  0.1894  0.2012 -0.2516
19872TIP3    H181031   3.688   0.583   1.736  0.6818 -0.5852  0.6632
19872TIP3    H281032   3.690   0.565   1.586 -2.6555  0.4890  0.3899
19873TIP3   OH281033   1.061   1.147  14.481 -0.7960 -0.3167  0.2337
19873TIP3    H181034   1.108   1.139  14.564 -1.4628 -0.1136  0.6354
19873TIP3    H281035   1.088   1.231  14.445  0.0143 -0.7058 -0.0885
19874TIP3   OH281036   0.919   2.285  10.334 -0.0237  0.1999  0.5857
19874TIP3    H181037   0.864   2.335  10.274  0.4084 -0.4280 -0.3611
19874TIP3    H281038   0.969   2.351  10.381 -1.1633  0.7488  1.0518
19875TIP3   OH281039   6.261   6.145  16.603 -0.3463 -0.4920  0.1434
19875TIP3    H181040   6.182   6.170  16.556  0.8952 -0.8931 -2.2860
19875TIP3    H281041   6.300   6.229  16.630 -0.0877 -0.1064 -1.3229
19876TIP3   OH281042   5.289   6.789   0.119 -0.1959  0.1672 -0.0053
19876TIP3    H181043   5.357   6.754   0.061 -3.8046 -3.4105 -2.6356
19876TIP3    H281044   5.282   6.723   0.189 -0.7282  0.6923  0.4374
19877TIP3   OH281045   4.799   0.582  17.180  0.1459 -0.1094  0.7290
19877TIP3    H181046   4.804   0.674  17.203  0.6068  0.1118 -0.2236
19877TIP3    H281047   4.890   0.554  17.172  0.0083 -0.6009  0.8357
19878TIP3   OH281048   0.626   6.119   4.438  0.4086 -0.0433  0.1292
19878TIP3    H181049   0.684   6.055   4.396  1.1983 -0.0566  1.2132
19878TIP3    H281050   0.563   6.066   4.486  2.2566 -0.1055  2.6857
19879TIP3   OH281051   1.092   3.216  14.147  0.0690 -0.2675  0.4142
19879TIP3    H181052   1.172   3.259  14.179 -0.1370  1.4854 -1.2371
19879TIP3    H281053   1.111   3.195  14.055 -1.0501 -0.6615  0.2541
19880TIP3   OH281054   3.985   6.658   0.046 -0.4701  0.3799 -0.4666
19880TIP3    H181055   3.994   6.646  -0.048  2.3679  0.7265 -0.3402
19880TIP3    H281056   4.028   6.582   0.085  0.6101  1.4188  0.4813
19881TIP3   OH281057   6.263   0.693   3.244 -0.1144  0.5806 -0.3108
19881TIP3    H181058   6.333   0.758   3.242 -1.0729  1.7095  0.7680
19881TIP3    H281059   6.185   0.742   3.217 -1.6516  1.0750  4.1388
19882TIP3   OH281060   1.531   3.443  12.227  0.3628  0.6253  0.6567
19882TIP3    H181061   1.493   3.469  12.143 -1.2368 -1.9032  0.5033
19882TIP3    H281062   1.469   3.475  12.292  0.7942  1.2182  0.7803
19883TIP3   OH281063   4.894   5.200   4.676 -0.2099  0.1066 -0.4257
19883TIP3    H181064   4.929   5.253   4.748  1.1566  0.0167 -0.9974
19883TIP3    H281065   4.814   5.246   4.649 -0.8742  0.0308  1.2579
19884TIP3   OH281066   3.827   1.251  14.573 -0.0498 -0.1489 -0.5307
19884TIP3    H181067   3.781   1.333  14.594 -0.3898 -0.5940  0.5167
19884TIP3    H281068   3.863   1.222  14.657  1.4031 -0.2692 -1.1787
19885TIP3   OH281069   1.447   1.249   1.287  0.0706  0.0632  0.3720
19885TIP3    H181070   1.379   1.181   1.290  0.5855 -0.4360  1.1638
19885TIP3    H281071   1.439   1.288   1.200  0.5529 -1.8150 -0.5600
19886TIP3   OH281072   5.736   3.605  12.930 -0.7407 -0.1660  0.0567
19886TIP3    H181073   5.658   3.578  12.979 -1.0973 -2.0037 -1.4004
19886TIP3    H281074   5.752   3.533  12.869  0.0863  1.6934 -2.0720
19887TIP3   OH281075   3.921   0.841   5.356  0.2052 -0.4410 -0.1543
19887TIP3    H181076   3.946   0.770   5.415  1.0785 -0.4024 -0.4613
19887TIP3    H281077   3.990   0.906   5.366  0.4607 -0.5026 -1.3293
19888TIP3   OH281078   5.604   2.954  12.366  0.7615 -0.2363  0.7167
19888TIP3    H181079   5.597   2.993  12.453  1.3093  0.7951  0.3159
19888TIP3    H281080   5.514   2.955  12.332  0.6204 -0.2192  1.0871
19889TIP3   OH281081   6.198   3.009   1.698 -0.4337  0.0360 -0.0398
19889TIP3    H181082   6.174   2.919   1.719  0.7985  0.1119  1.9515
19889TIP3    H281083   6.134   3.036   1.632 -0.9076 -2.2299 -0.6095
19890TIP3   OH281084   1.020   3.366   2.368 -0.3356 -0.4139 -0.2330
19890TIP3    H181085   1.111   3.395   2.363 -0.3277  0.1819  2.2498
19890TIP3    H281086   0.983   3.413   2.443 -1.4679 -3.7744  1.5345
19891TIP3   OH281087   1.845   0.069   3.134 -0.4647  0.5138 -0.5147
19891TIP3    H181088   1.849   0.154   3.178 -0.2014  0.5441 -0.5994
19891TIP3    H281089   1.933   0.054   3.102 -0.9352  1.1076 -2.1861
19892TIP3   OH281090   1.507   5.122  14.740 -0.1911 -0.2734 -0.0274
19892TIP3    H181091   1.576   5.104  14.804  0.3240 -0.6495 -0.6766
19892TIP3    H281092   1.426   5.110  14.789  0.1852 -1.1444  0.4032
19893TIP3   OH281093   0.795   4.045  16.912  0.5517 -0.1124 -0.6523
19893TIP3    H181094   0.856   4.067  16.982  1.2031  0.5591 -1.4135
19893TIP3    H281095   0.848   4.047  16.832  0.0804 -1.9997 -1.0592
19894TIP3   OH281096   0.281   0.969  10.935 -0.2869 -0.2740 -0.1267
19894TIP3    H181097   0.237   0.915  11.000  1.1772  0.6674  1.7731
19894TIP3    H281098   0.374   0.949  10.946  0.1506  1.3436 -0.5664
19895TIP3   OH281099   0.670   2.527  16.705 -0.4025  0.2851 -0.2559
19895TIP3    H181100   0.710   2.613  16.693  0.4233 -0.2194 -1.3392
19895TIP3    H281101   0.618   2.513  16.626 -0.9402 -0.0081  0.1424
19896TIP3   OH281102   2.112   0.334   0.683  0.3799  0.5389  0.3297
19896TIP3    H181103   2.064   0.410   0.650  0.8214  0.3763 -0.7295
19896TIP3    H281104   2.059   0.303   0.757  0.1313  1.7863  0.6962
19897TIP3   OH281105   3.335   3.057   5.132 -0.0687 -0.1823 -0.0053
19897TIP3    H181106   3.349   3.001   5.209  1.0280 -0.9987 -0.7647
19897TIP3    H281107   3.241   3.054   5.118 -0.3757  0.4372  1.6206
19898TIP3   OH281108   2.961   2.825   4.462 -0.1818 -0.0960  0.1304
19898TIP3    H181109   3.046   2.851   4.427 -0.4790 -0.2381 -0.7002
19898TIP3    H281110   2.952   2.733   4.439 -0.9438  0.1398 -0.5706
19899TIP3   OH281111   0.080   0.568   1.409  0.3030  0.1942  0.3233
19899TIP3    H181112   0.072   0.537   1.319 -2.1288 -0.4846  0.6850
19899TIP3    H281113   0.049   0.495   1.462 -1.6671  1.7278  1.4480
19900TIP3   OH281114   0.984   2.187   5.134 -0.9628  0.0363  0.5873
19900TIP3    H181115   0.940   2.183   5.219 -1.8713 -0.7734  0.1027
19900TIP3    H281116   1.025   2.101   5.125 -0.9960  0.0642  0.1476
19901TIP3   OH281117   4.036   5.262  12.172 -0.5680  0.0904 -0.0524
19901TIP3    H181118   4.043   5.357  12.170 -3.0867  0.3382 -1.4617
19901TIP3    H281119   4.126   5.231  12.184  0.3148  2.6120  0.3717
19902TIP3   OH281120   2.284   3.128   3.017  0.1971  0.1238 -0.0175
19902TIP3    H181121   2.263   3.141   3.110 -1.4760  0.7210 -0.4406
19902TIP3    H281122   2.208   3.163   2.970  1.4660  0.8198 -1.6633
19903TIP3   OH281123   0.771   0.534  15.874  0.0743  0.2963  0.2367
19903TIP3    H181124   0.851   0.576  15.842  0.5251 -1.1840 -0.7272
19903TIP3    H281125   0.789   0.440  15.865 -1.4879 -0.0777  0.7453
19904TIP3   OH281126   6.148   5.068  12.465  0.2853  0.6070  0.3827
19904TIP3    H181127   6.160   5.106  12.551 -0.6951  2.6956 -0.3356
19904TIP3    H281128   6.164   5.140  12.404 -2.7831  0.2573 -1.0222
19905TIP3   OH281129   5.358   6.230   5.080 -0.9164 -0.2726 -0.0590
19905TIP3    H181130   5.280   6.262   5.034 -1.0869  2.0171  1.6268
19905TIP3    H281131   5.350   6.266   5.168  1.9157 -0.1764  0.2473
19906TIP3   OH281132   1.528   6.447   5.451  0.0122 -0.4225 -0.2169
19906TIP3    H181133   1.542   6.529   5.403  0.1910  0.1339  0.7596
19906TIP3    H281134   1.556   6.379   5.390 -1.7308  0.0982 -1.7063
19907TIP3   OH281135   0.425   0.379  12.023  0.1938  0.0464 -0.1814
19907TIP3    H181136   0.340   0.342  12.048  0.4906 -0.7091 -0.2675
19907TIP3    H281137   0.417   0.473  12.041 -0.5796 -0.0558  0.0261
19908TIP3   OH281138   3.103   6.194   0.917  0.2610  0.1007  0.2842
19908TIP3    H181139   3.111   6.133   0.844  1.6861 -0.1358  0.6020
19908TIP3    H281140   3.083   6.138   0.993 -0.3046  0.2402  0.2366
19909TIP3   OH281141   0.575   4.620   0.455 -0.0766  0.1891  0.5940
19909TIP3    H181142   0.601   4.541   0.501  1.2456 -0.1678 -0.6739
19909TIP3    H281143   0.536   4.676   0.522  2.3418 -0.0257  2.3141
19910TIP3   OH281144   4.545   2.201   2.156  0.1342  0.3155 -0.1302
19910TIP3    H181145   4.588   2.178   2.074 -0.2029  1.5751 -0.6808
19910TIP3    H281146   4.486   2.127   2.173  0.4793 -0.1302 -0.8294
19911TIP3   OH281147   2.587   5.150  11.896 -0.0252  0.3567 -0.4355
19911TIP3    H181148   2.622   5.097  11.824  0.4522  0.5961 -0.3832
19911TIP3    H281149   2.564   5.233  11.855 -0.8507  0.0854 -0.5333
19912TIP3   OH281150   4.141   5.062  14.322 -0.0942 -0.6705 -0.6050
19912TIP3    H181151   4.168   5.097  14.237 -0.1329  0.3306 -0.2108
19912TIP3    H281152   4.223   5.039  14.366  0.0605  0.7935 -0.0819
19913TIP3   OH281153   6.335   1.682  11.562 -0.3810  0.3265  0.4497
19913TIP3    H181154   6.351   1.591  11.534  2.9273 -0.1323  3.1899
19913TIP3    H281155   6.292   1.673  11.647 -0.4860  1.3631  0.5098
19914TIP3   OH281156   1.076   1.284   2.137 -0.3032 -0.0555  0.2030
19914TIP3    H181157   1.155   1.299   2.085 -0.4821 -1.1811 -0.4404
19914TIP3    H281158   1.105   1.292   2.228  0.1363  1.3590 -0.0374
19915TIP3   OH281159   3.740   0.603   0.679  0.1140 -0.0831 -0.5295
19915TIP3    H181160   3.755   0.550   0.601 -0.6022 -2.1370  0.6451
19915TIP3    H281161   3.823   0.601   0.727  0.2017  0.1800 -0.6714
19916TIP3   OH281162   5.670   6.124  11.258  0.0084 -0.2099  0.2880
19916TIP3    H181163   5.589   6.098  11.214 -0.0606  0.6848 -0.1354
19916TIP3    H281164   5.731   6.052  11.240 -0.8808 -1.2224  1.1976
19917TIP3   OH281165   0.364   2.947  11.653 -0.5098 -0.0758 -0.5704
19917TIP3    H181166   0.308   2.870  11.653 -0.8226  0.1504 -0.9123
19917TIP3    H281167   0.452   2.913  11.640 -0.4826 -0.4856  0.5978
19918TIP3   OH281168   6.521   3.640  14.269 -0.1234 -0.1827  0.9091
19918TIP3    H181169   6.567   3.711  14.223  0.0740 -0.5573  0.5219
19918TIP3    H281170   6.518   3.669  14.360  0.2712  0.1597  0.8190
19919TIP3   OH281171   0.732   4.756   6.603  0.2477  0.1660  0.2719
19919TIP3    H181172   0.692   4.757   6.516  0.2297 -0.7949  0.2625
19919TIP3    H281173   0.674   4.809   6.656  1.4443  2.7175 -0.7885
19920TIP3   OH281174   3.567   6.050  12.518 -0.4286 -0.3506 -1.3147
19920TIP3    H181175   3.643   6.102  12.545 -0.7883 -0.6900  0.4199
19920TIP3    H281176   3.579   6.039  12.423  1.1716  0.4175 -1.2394
19921TIP3   OH281177   1.455   4.493  16.879 -0.2299  0.2999  0.0767
19921TIP3    H181178   1.441   4.573  16.828 -1.5967 -0.5583 -0.9482
19921TIP3    H281179   1.546   4.468  16.860  0.1091  1.4172  0.1650
19922TIP3   OH281180   2.548   1.274   3.206  0.5114  0.0587  0.3627
19922TIP3    H181181   2.503   1.319   3.277 -0.6809  2.3080 -1.6473
19922TIP3    H281182   2.631   1.320   3.198  0.6521 -0.2030  0.3131
19923TIP3   OH281183   4.333   5.954   0.287  0.3209 -0.1053  0.1470
19923TIP3    H181184   4.336   5.961   0.191 -0.6329  1.9565  0.2147
19923TIP3    H281185   4.351   5.862   0.304 -4.5391 -1.9018 -2.3288
19924TIP3   OH281186   6.052   0.438   4.911 -0.0428 -0.1898 -0.0185
19924TIP3    H181187   6.142   0.407   4.919 -0.4542 -1.6078 -0.4718
19924TIP3    H281188   6.005   0.398   4.984 -0.3175  0.5464  0.2230
19925TIP3   OH281189   0.697   6.089   5.390 -0.4976 -0.4069  0.1199
19925TIP3    H181190   0.772   6.109   5.335 -1.8807  1.5164 -1.2084
19925TIP3    H281191   0.733   6.036   5.462  1.8685 -0.5399 -1.0737
19926TIP3   OH281192   2.119   5.048  12.303  0.3536  0.1789  0.5892
19926TIP3    H181193   2.192   5.105  12.280 -0.2019  1.2369  1.3386
19926TIP3    H281194   2.083   5.018  12.219  1.4913 -0.1682  0.2181
19927TIP3   OH281195   6.119   1.938  12.942  0.4447  0.3905 -0.2435
19927TIP3    H181196   6.151   1.871  13.003 -0.0106 -2.0690 -2.5474
19927TIP3    H281197   6.024   1.925  12.940  0.4184  0.7157 -1.1707
19928TIP3   OH281198   1.554   4.775  14.548 -0.4049 -0.0690  0.5133
19928TIP3    H181199   1.552   4.762  14.643  0.9459 -1.6646  0.3661
19928TIP3    H281200   1.551   4.686  14.512 -1.0287  0.5189 -0.9598
19929TIP3   OH281201   4.576   4.055  12.781 -0.0138  0.0288 -0.0356
19929TIP3    H181202   4.593   4.092  12.694  0.6500 -1.9411 -0.8073
19929TIP3    H281203   4.657   4.011  12.805 -0.5102 -0.2817  1.1562
19930TIP3   OH281204   0.578   1.284   2.631  0.1900  0.5017 -0.1132
19930TIP3    H181205   0.673   1.289   2.632  0.3304 -0.8670 -2.1173
19930TIP3    H281206   0.551   1.347   2.564 -0.2536  0.1597 -0.2615
19931TIP3   OH281207   1.376   6.145   5.995 -0.2820 -0.1353 -0.3315
19931TIP3    H181208   1.291   6.153   6.039  0.3249  0.4503  0.7895
19931TIP3    H281209   1.437   6.121   6.065  0.4499 -0.7410 -1.1565
19932TIP3   OH281210   1.448   0.578   3.079  0.0520 -0.6997  0.8900
19932TIP3    H181211   1.485   0.501   3.034 -0.3693  0.2919 -1.2655
19932TIP3    H281212   1.525   0.630   3.104  0.2607 -0.6393  0.1383
19933TIP3   OH281213   1.809   1.475  15.284  0.3487  0.5215  0.0903
19933TIP3    H181214   1.747   1.447  15.216  0.2941  0.7070  0.0613
19933TIP3    H281215   1.878   1.521  15.236  0.7272 -0.0513  0.0816
19934TIP3   OH281216   4.850   0.872   1.916  0.2530 -0.1279 -0.7089
19934TIP3    H181217   4.819   0.822   1.991 -0.1687 -0.3375 -1.0168
19934TIP3    H281218   4.871   0.958   1.951 -4.5291  1.4780 -1.0625
19935TIP3   OH281219   1.402   3.787   0.417 -0.3756  0.0700  0.0406
19935TIP3    H181220   1.410   3.707   0.366  0.9207  1.3040 -1.8250
19935TIP3    H281221   1.351   3.846   0.362  1.7218  1.7107 -0.2746
19936TIP3   OH281222   5.501   1.845   1.986  0.3355 -0.1841  0.0202
19936TIP3    H181223   5.532   1.923   1.939 -0.2271 -0.9438 -1.7261
19936TIP3    H281224   5.406   1.847   1.975  0.3979 -1.7446 -1.1654
19937TIP3   OH281225   3.203   4.568   1.778 -0.3756 -0.2853  0.2046
19937TIP3    H181226   3.181   4.529   1.862  2.4629 -0.6241  0.9142
19937TIP3    H281227   3.244   4.652   1.800  1.6607 -0.9806 -0.6777
19938TIP3   OH281228   2.802   1.504   4.465 -0.2547  0.3620  0.0944
19938TIP3    H181229   2.822   1.597   4.463 -1.8408  0.7206 -0.5228
19938TIP3    H281230   2.741   1.494   4.538 -1.2830  0.0967 -0.7721
19939TIP3   OH281231   1.435   0.320   1.800  0.0324  0.6528  0.5340
19939TIP3    H181232   1.384   0.364   1.867 -0.1370  0.3173  0.6276
19939TIP3    H281233   1.526   0.341   1.820 -0.1172  2.6096 -0.5742
19940TIP3   OH281234   3.816   4.477   5.738 -0.2971 -0.1030 -0.1874
19940TIP3    H181235   3.761   4.406   5.772 -0.6432 -0.4041 -1.3280
19940TIP3    H281236   3.904   4.440   5.733  0.0126  0.3351  1.5122
19941TIP3   OH281237   1.962   2.528   1.381 -0.1946 -0.2854 -0.2617
19941TIP3    H181238   2.045   2.575   1.375 -1.2953  1.7387 -0.2749
19941TIP3    H281239   1.973   2.471   1.457  0.2439  2.0237  1.5175
19942TIP3   OH281240   5.999   3.541  14.093 -0.4430  0.0325  0.1185
19942TIP3    H181241   5.986   3.605  14.023 -1.1890 -0.2977 -0.0579
19942TIP3    H281242   5.927   3.559  14.155 -2.2007 -2.1965 -1.1270
19943TIP3   OH281243   5.576   6.544  12.283  0.2519 -0.3236  0.2849
19943TIP3    H181244   5.509   6.565  12.349  0.1098 -0.3113  0.1363
19943TIP3    H281245   5.637   6.617  12.287  1.6987 -1.5326  2.2756
19944TIP3   OH281246   5.178   5.788   3.856  0.0130 -0.3990  0.4978
19944TIP3    H181247   5.248   5.839   3.897 -0.1070  0.5169 -0.3874
19944TIP3    H281248   5.224   5.721   3.805  0.4910  1.9182 -2.4000
19945TIP3   OH281249   2.642   0.723  13.807 -0.2790  0.4837  0.3324
19945TIP3    H181250   2.563   0.768  13.776 -0.8200 -0.1334  0.8082
19945TIP3    H281251   2.617   0.631  13.812  0.0899  0.4439  1.6674
19946TIP3   OH281252   1.254   6.354  13.814 -0.2183 -0.2677 -1.0691
19946TIP3    H181253   1.292   6.439  13.791 -0.1394 -0.5416 -1.9855
19946TIP3    H281254   1.301   6.291  13.760  0.3859 -1.0336  0.2861
19947TIP3   OH281255   0.436   5.064   4.020  0.5491  0.1450  0.0519
19947TIP3    H181256   0.394   5.068   3.934  1.6814  1.0723 -0.4900
19947TIP3    H281257   0.499   4.993   4.014 -0.1745 -0.5509  0.5141
19948TIP3   OH281258   5.224   4.827   1.887  0.0725  0.3320  0.6062
19948TIP3    H181259   5.204   4.735   1.870 -1.3612  0.0611  3.3171
19948TIP3    H281260   5.143   4.873   1.866  0.0294  0.6565  1.4566
19949TIP3   OH281261   2.658   2.501  13.607 -0.3861  0.1021  0.8414
19949TIP3    H181262   2.684   2.572  13.665 -0.6498  1.2443 -0.3777
19949TIP3    H281263   2.569   2.478  13.635 -0.3504  0.3394  1.1506
19950TIP3   OH281264   0.234   0.423  12.516  0.1502 -0.2180 -0.0222
19950TIP3    H181265   0.239   0.344  12.463 -1.2411  0.4606 -1.2314
19950TIP3    H281266   0.141   0.446  12.517  0.5029  1.3482  0.3649
19951TIP3   OH281267   2.898   5.729   3.756 -0.0650  0.4306  0.3105
19951TIP3    H181268   2.848   5.793   3.806  1.1056 -0.6645  3.1016
19951TIP3    H281269   2.988   5.740   3.786  0.2567 -2.1265  0.5311
19952TIP3   OH281270   1.949   4.383  10.402  0.0479  0.0135 -0.6810
19952TIP3    H181271   1.951   4.465  10.450 -0.1790  0.4591 -1.4094
19952TIP3    H281272   2.040   4.367  10.377  0.4072 -0.9937  1.1371
19953TIP3   OH281273   5.759   6.706   1.795  0.2164  0.0258  0.0783
19953TIP3    H181274   5.730   6.765   1.726 -3.0552  0.2777  1.4446
19953TIP3    H281275   5.689   6.640   1.800  2.2023 -2.1429  0.7126
19954TIP3   OH281276   1.371   6.162   2.960 -0.0627 -0.8328  0.3739
19954TIP3    H181277   1.397   6.251   2.936  0.5497 -0.7769  1.1773
19954TIP3    H281278   1.403   6.108   2.888  1.6802 -0.6639  0.9613
19955TIP3   OH281279   1.354   0.889   3.738  0.2185 -0.2407  0.6401
19955TIP3    H181280   1.356   0.811   3.794 -0.4546 -1.1758 -0.5810
19955TIP3    H281281   1.385   0.858   3.653 -0.4953  0.7204  0.0072
19956TIP3   OH281282   6.436   1.201  16.037 -0.7633 -0.7466 -0.5744
19956TIP3    H181283   6.484   1.282  16.021  1.6922 -2.2932 -1.5343
19956TIP3    H281284   6.413   1.204  16.130  0.8594  0.2609 -0.1802
19957TIP3   OH281285   2.600   0.440  13.705 -0.4146 -0.0449 -0.1158
19957TIP3    H181286   2.688   0.444  13.743 -1.4885  1.9016  2.5305
19957TIP3    H281287   2.590   0.350  13.676  1.4515 -1.0984  2.1808
19958TIP3   OH281288   6.503   2.117   2.528  0.3181 -0.4456 -0.1700
19958TIP3    H181289   6.435   2.182   2.541  0.4299 -0.6791  1.8368
19958TIP3    H281290   6.460   2.047   2.478 -0.1227  0.5983 -1.2920
19959TIP3   OH281291   2.200   0.688   5.345  0.3930 -0.2795 -0.2260
19959TIP3    H181292   2.253   0.678   5.266  1.1993 -1.2576  0.4061
19959TIP3    H281293   2.250   0.642   5.413 -0.5966 -0.0169  0.7034
19960TIP3   OH281294   5.934   5.068   4.985 -0.1487  0.8802 -0.8173
19960TIP3    H181295   5.889   4.984   4.976 -0.4075  1.0535 -1.1724
19960TIP3    H281296   5.905   5.102   5.070 -0.4017  0.8221 -0.8802
19961TIP3   OH281297   4.307   2.786  11.460  0.4159  0.2615 -0.4003
19961TIP3    H181298   4.262   2.729  11.522  0.7249  2.5879  2.1648
19961TIP3    H281299   4.252   2.785  11.382 -2.4379  0.5331  1.4586
19962TIP3   OH281300   6.003   5.180   4.611 -0.1397 -0.0264  0.2100
19962TIP3    H181301   5.972   5.116   4.547 -0.6381 -0.9922  1.3650
19962TIP3    H281302   6.082   5.141   4.649 -0.4583  0.0092  0.9383
19963TIP3   OH281303   3.244   6.173  14.846 -0.7648  0.2445  0.3735
19963TIP3    H181304   3.327   6.218  14.829 -0.0813 -0.3871  1.8366
19963TIP3    H281305   3.253   6.141  14.936 -1.7195 -1.7120 -0.1805
19964TIP3   OH281306   3.463   1.803  12.636 -0.0835 -0.0042  0.2149
19964TIP3    H181307   3.442   1.835  12.548 -0.2147  1.2299  0.6674
19964TIP3    H281308   3.378   1.778  12.673 -0.3759  1.6689  0.7868
19965TIP3   OH281309   4.982   5.982  13.648 -0.2402  0.0439 -0.3671
19965TIP3    H181310   5.074   5.967  13.670  0.0105  0.2092 -1.2801
19965TIP3    H281311   4.940   5.897  13.662 -0.0463  0.0721  0.4761
19966TIP3   OH281312   4.735   5.141   0.339 -0.2303 -0.4113  0.7021
19966TIP3    H181313   4.752   5.073   0.404 -1.3483 -0.3783  1.0480
19966TIP3    H281314   4.821   5.161   0.303  0.2200 -1.4501  1.1481
19967TIP3   OH281315   6.724   5.979  14.486  0.0572 -0.1434 -0.2797
19967TIP3    H181316   6.734   5.950  14.395  2.4177  2.3935 -0.9797
19967TIP3    H281317   6.654   6.044  14.483  0.6219  0.4682 -0.4652
19968TIP3   OH281318   0.451   1.052   3.608 -0.2511  0.2189  0.0623
19968TIP3    H181319   0.477   1.142   3.587  2.0679 -0.5287 -0.5959
19968TIP3    H281320   0.420   1.016   3.526  2.0666 -0.5487 -0.5539
19969TIP3   OH281321   3.315   5.242  10.918 -0.0173  0.0692 -0.1966
19969TIP3    H181322   3.281   5.330  10.936  0.4598 -0.0785  1.7097
19969TIP3    H281323   3.249   5.202  10.861 -0.0840  1.7423 -1.3849
19970TIP3   OH281324   6.584   0.765  13.516  0.4341  0.3315 -0.5641
19970TIP3    H181325   6.494   0.780  13.547  0.7690  1.4312 -0.0726
19970TIP3    H281326   6.581   0.679  13.473 -0.1457 -1.1371  2.2024
19971TIP3   OH281327   0.613   5.170  13.343  0.1021 -0.1051  0.4974
19971TIP3    H181328   0.524   5.136  13.356  0.5477 -1.3313  0.3800
19971TIP3    H281329   0.600   5.246  13.286 -0.7660 -1.0114 -0.5814
19972TIP3   OH281330   3.645   1.228  12.387 -0.5837 -0.0703 -0.5004
19972TIP3    H181331   3.656   1.159  12.322  2.7563  0.6014 -0.8072
19972TIP3    H281332   3.684   1.193  12.467  0.2668  1.0817 -0.3948
19973TIP3   OH281333   5.498   0.403  12.584 -0.6854 -0.3235  0.1592
19973TIP3    H181334   5.592   0.402  12.603 -0.8154 -0.2901  0.8547
19973TIP3    H281335   5.478   0.495  12.567 -0.5660 -0.3486 -0.1040
19974TIP3   OH281336   3.293   5.392  13.242 -0.1045 -0.8277 -0.0751
19974TIP3    H181337   3.330   5.430  13.163  0.7269  1.1208  1.1805
19974TIP3    H281338   3.220   5.449  13.265  0.1729 -0.8762  0.9970
19975TIP3   OH281339   0.379   3.486  14.915 -1.0093  0.1360 -0.0039
19975TIP3    H181340   0.315   3.540  14.869 -1.1549  0.3884  0.4916
19975TIP3    H281341   0.463   3.506  14.872 -0.7141  2.2621  1.4230
19976TIP3   OH281342   5.241   3.426   4.758 -0.2064 -0.5146 -0.0972
19976TIP3    H181343   5.295   3.481   4.701  0.0985 -1.3338 -0.6319
19976TIP3    H281344   5.241   3.470   4.842 -0.9208  0.8935 -0.8100
19977TIP3   OH281345   1.010   0.621   4.174 -0.2927  0.5277 -0.2303
19977TIP3    H181346   0.971   0.693   4.126 -0.7219  0.8793  0.6288
19977TIP3    H281347   1.037   0.659   4.258  2.3988  0.4318 -0.9538
19978TIP3   OH281348   2.967   0.418  12.192 -0.3450  0.4257 -0.2377
19978TIP3    H181349   2.923   0.449  12.113 -0.3238 -2.1310 -1.3462
19978TIP3    H281350   2.907   0.352  12.228  1.0558 -0.7124  0.0927
19979TIP3   OH281351   3.755   1.274   1.732  0.2564  0.0915  0.3917
19979TIP3    H181352   3.790   1.216   1.664 -1.3312 -0.6519  0.1673
19979TIP3    H281353   3.664   1.288   1.708  0.3928  2.1176  0.8609
19980TIP3   OH281354   4.782   4.133   5.536 -0.0319  0.3369  0.0796
19980TIP3    H181355   4.860   4.145   5.481 -1.2961 -0.9607 -2.0909
19980TIP3    H281356   4.814   4.085   5.612  1.5765  1.3039  0.0684
19981TIP3   OH281357   1.916   2.835  14.865 -0.5491  0.4835  0.3047
19981TIP3    H181358   1.974   2.798  14.799 -1.0637 -0.6431  0.4525
19981TIP3    H281359   1.836   2.857  14.816 -1.1864 -0.9771  0.6220
19982TIP3   OH281360   0.719   3.645  15.275  0.3673 -0.0023  0.5706
19982TIP3    H181361   0.646   3.585  15.266  1.0457 -0.8080  0.2455
19982TIP3    H281362   0.757   3.649  15.187 -0.2747  1.7218  0.3314
19983TIP3   OH281363   5.239   2.126   2.703 -0.3495 -0.0329 -0.3086
19983TIP3    H181364   5.209   2.091   2.786 -0.7391  1.4725  0.2276
19983TIP3    H281365   5.334   2.120   2.706 -0.1717  2.1987  1.3491
19984TIP3   OH281366   4.918   5.504   4.693 -0.4447  0.4549 -0.4418
19984TIP3    H181367   5.004   5.508   4.651 -0.5127  0.1869 -0.6054
19984TIP3    H281368   4.856   5.494   4.622 -0.5164 -0.5291 -0.2497
19985TIP3   OH281369   5.205   3.737   5.117 -0.6866 -0.3485 -0.4040
19985TIP3    H181370   5.242   3.652   5.142 -1.1928 -0.6103 -0.5399
19985TIP3    H281371   5.142   3.757   5.187  0.3697  0.5411  0.3297
19986TIP3   OH281372   0.079   6.755   3.533  0.3499 -0.1756 -0.0043
19986TIP3    H181373  -0.010   6.725   3.546  0.1762  0.6788  0.8741
19986TIP3    H281374   0.098   6.736   3.441  0.0423 -2.3481  0.3430
19987TIP3   OH281375   2.750   2.177  16.772 -0.4713  0.1427  0.9514
19987TIP3    H181376   2.845   2.184  16.783 -0.4909 -0.8516  1.9616
19987TIP3    H281377   2.735   2.085  16.755 -1.2324  0.3633  0.4015
19988TIP3   OH281378   2.374   2.533   4.004  0.1929 -0.3399 -0.5520
19988TIP3    H181379   2.450   2.478   3.985  1.2790  0.8803  0.1562
19988TIP3    H281380   2.302   2.470   4.014  1.0438 -1.5079 -1.3894
19989LIG      O81381   3.608   3.447  16.486  0.2554 -0.5580 -0.9630
19989LIG     C181382   3.645   3.313  16.463  0.9091  0.3938 -0.0298
19989LIG     C281383   3.790   3.288  16.438 -0.1121  0.3822  0.0855
19989LIG     C381384   3.592   3.229  16.580 -0.7341 -0.1316 -0.6768
19989LIG     H181385   3.578   3.286  16.378  1.4260 -2.2349  0.3141
19989LIG     H281386   3.837   3.316  16.342 -1.8254  0.7300 -0.6868
19989LIG     H381387   3.813   3.181  16.455 -0.1049  0.5274  1.0794
19989LIG     H481388   3.847   3.340  16.518 -0.6013 -0.3450  0.9270
19989LIG     H581389   3.646   3.258  16.673 -1.2298  0.4021 -0.5464
19989LIG     H681390   3.606   3.120  16.566  1.4386  0.0960 -0.6034
19989LIG     H781391   3.484   3.241  16.605 -0.0759  0.2623  2.3529
19989LIG     H881392   3.515   3.451  16.462  0.1927 -0.2217 -0.6620
   6.78881   6.78881  17.22707
